
.Version 7.9.3 of ABINIT 
.(MPI version, prepared for a x86_64_linux_gnu4.7 computer) 

.Copyright (C) 1998-2014 ABINIT group . 
 ABINIT comes with ABSOLUTELY NO WARRANTY.
 It is free software, and you are welcome to redistribute it
 under certain conditions (GNU General Public License,
 see ~abinit/COPYING or http://www.gnu.org/copyleft/gpl.txt).

 ABINIT is a project of the Universite Catholique de Louvain,
 Corning Inc. and other collaborators, see ~abinit/doc/developers/contributors.txt .
 Please read ~abinit/doc/users/acknowledgments.html for suggested
 acknowledgments of the ABINIT effort.
 For more information, see http://www.abinit.org .

.Starting date : Sat 30 Aug 2014.
- ( at 22h26 )
  
- input  file    -> tbase2_4.in
- output file    -> tbase2_4.out
- root for input  files -> tbase2_4i
- root for output files -> tbase2_4o


 DATASET   11 : space group P4/m m m (#123); Bravais tP (primitive tetrag.)
================================================================================
 Values of the parameters that define the memory need for DATASET 11.
   intxc =         0  ionmov =         3    iscf =         7 xclevel =         1
  lmnmax =         1   lnmax =         1   mband =         1  mffmem =         1
P  mgfft =        60   mkmem =         1 mpssoang=         1     mpw =      6759
  mqgrid =      3001   natom =         2    nfft =    216000    nkpt =         1
  nloalg =         4  nspden =         1 nspinor =         1  nsppol =         1
    nsym =        16  n1xccc =         0  ntypat =         1  occopt =         1
================================================================================
P This job should need less than                      60.452 Mbytes of memory.
  Rough estimation (10% accuracy) of disk space for files :
_ WF disk file :      0.105 Mbytes ; DEN or POT disk file :      1.650 Mbytes.
================================================================================


 DATASET   12 : space group Pm -3 m (#221); Bravais cP (primitive cubic)
================================================================================
 Values of the parameters that define the memory need for DATASET 12.
   intxc =         0  ionmov =         0    iscf =         7 xclevel =         1
  lmnmax =         1   lnmax =         1   mband =         1  mffmem =         1
P  mgfft =        60   mkmem =         1 mpssoang=         1     mpw =      6759
  mqgrid =      3001   natom =         1    nfft =    216000    nkpt =         1
  nloalg =         4  nspden =         2 nspinor =         1  nsppol =         2
    nsym =        48  n1xccc =         0  ntypat =         1  occopt =         2
================================================================================
P This job should need less than                      93.503 Mbytes of memory.
  Rough estimation (10% accuracy) of disk space for files :
_ WF disk file :      0.208 Mbytes ; DEN or POT disk file :      3.298 Mbytes.
================================================================================

--------------------------------------------------------------------------------
------------- Echo of variables that govern the present computation ------------
--------------------------------------------------------------------------------
-
- outvars: echo of selected default values                                      
-   accesswff0 =  0 , fftalg0 =112 , wfoptalg0 =  0
-
- outvars: echo of global parameters not present in the input file              
-  max_nthreads =    0
-
 -outvars: echo values of preprocessed input variables --------
            acell      1.2000000000E+01  1.2000000000E+01  1.2000000000E+01 Bohr
              amu      1.00794000E+00
        bs_loband11         0
        bs_loband12         0       0
           diemac      1.00000000E+00
             ecut      3.00000000E+01 Hartree
-          fftalg         112
           ionmov11         3
           ionmov12         0
           istwfk        2
           jdtset       11   12
           kptopt           0
P           mkmem           1
            natom11         2
            natom12         1
            nband11         1
            nband12         1       1
           ndtset           2
            ngfft          60      60      60
             nkpt           1
           nspden11         1
           nspden12         2
           nsppol11         1
           nsppol12         2
            nstep          10
             nsym11        16
             nsym12        48
            ntime11        10
            ntime12         1
           ntypat           1
              occ11    2.000000
              occ12    1.000000
                       0.000000
           occopt11         1
           occopt12         2
        optforces           1
          spgroup11       123
          spgroup12       221
           spinat12    0.0000000000E+00  0.0000000000E+00  1.0000000000E+00
           symafm11      1    1    1    1    1    1    1    1    1    1
                         1    1    1    1    1    1
           symafm12      1    1    1    1    1    1    1    1    1    1
                         1    1    1    1    1    1    1    1    1    1
                         1    1    1    1    1    1    1    1    1    1
                         1    1    1    1    1    1    1    1    1    1
                         1    1    1    1    1    1    1    1
           symrel11    1  0  0   0  1  0   0  0  1      -1  0  0   0 -1  0   0  0 -1
                      -1  0  0   0  1  0   0  0 -1       1  0  0   0 -1  0   0  0  1
                      -1  0  0   0 -1  0   0  0  1       1  0  0   0  1  0   0  0 -1
                       1  0  0   0 -1  0   0  0 -1      -1  0  0   0  1  0   0  0  1
                       1  0  0   0  0  1   0  1  0      -1  0  0   0  0 -1   0 -1  0
                      -1  0  0   0  0  1   0 -1  0       1  0  0   0  0 -1   0  1  0
                      -1  0  0   0  0 -1   0  1  0       1  0  0   0  0  1   0 -1  0
                       1  0  0   0  0 -1   0 -1  0      -1  0  0   0  0  1   0  1  0
           symrel12    1  0  0   0  1  0   0  0  1      -1  0  0   0 -1  0   0  0 -1
                      -1  0  0   0  1  0   0  0 -1       1  0  0   0 -1  0   0  0  1
                      -1  0  0   0 -1  0   0  0  1       1  0  0   0  1  0   0  0 -1
                       1  0  0   0 -1  0   0  0 -1      -1  0  0   0  1  0   0  0  1
                       0  1  0   1  0  0   0  0  1       0 -1  0  -1  0  0   0  0 -1
                       0 -1  0   1  0  0   0  0 -1       0  1  0  -1  0  0   0  0  1
                       0 -1  0  -1  0  0   0  0  1       0  1  0   1  0  0   0  0 -1
                       0  1  0  -1  0  0   0  0 -1       0 -1  0   1  0  0   0  0  1
                       0  0  1   1  0  0   0  1  0       0  0 -1  -1  0  0   0 -1  0
                       0  0 -1   1  0  0   0 -1  0       0  0  1  -1  0  0   0  1  0
                       0  0 -1  -1  0  0   0  1  0       0  0  1   1  0  0   0 -1  0
                       0  0  1  -1  0  0   0 -1  0       0  0 -1   1  0  0   0  1  0
                       1  0  0   0  0  1   0  1  0      -1  0  0   0  0 -1   0 -1  0
                      -1  0  0   0  0  1   0 -1  0       1  0  0   0  0 -1   0  1  0
                      -1  0  0   0  0 -1   0  1  0       1  0  0   0  0  1   0 -1  0
                       1  0  0   0  0 -1   0 -1  0      -1  0  0   0  0  1   0  1  0
                       0  1  0   0  0  1   1  0  0       0 -1  0   0  0 -1  -1  0  0
                       0 -1  0   0  0  1  -1  0  0       0  1  0   0  0 -1   1  0  0
                       0 -1  0   0  0 -1   1  0  0       0  1  0   0  0  1  -1  0  0
                       0  1  0   0  0 -1  -1  0  0       0 -1  0   0  0  1   1  0  0
                       0  0  1   0  1  0   1  0  0       0  0 -1   0 -1  0  -1  0  0
                       0  0 -1   0  1  0  -1  0  0       0  0  1   0 -1  0   1  0  0
                       0  0 -1   0 -1  0   1  0  0       0  0  1   0  1  0  -1  0  0
                       0  0  1   0 -1  0  -1  0  0       0  0 -1   0  1  0   1  0  0
            tnons11    0.0000000  0.0000000  0.0000000     0.0000000  0.0000000  0.0000000
                       0.0000000  0.0000000  0.0000000     0.0000000  0.0000000  0.0000000
                       0.0000000  0.0000000  0.0000000     0.0000000  0.0000000  0.0000000
                       0.0000000  0.0000000  0.0000000     0.0000000  0.0000000  0.0000000
                       0.0000000  0.0000000  0.0000000     0.0000000  0.0000000  0.0000000
                       0.0000000  0.0000000  0.0000000     0.0000000  0.0000000  0.0000000
                       0.0000000  0.0000000  0.0000000     0.0000000  0.0000000  0.0000000
                       0.0000000  0.0000000  0.0000000     0.0000000  0.0000000  0.0000000
            tnons12    0.0000000  0.0000000  0.0000000     0.0000000  0.0000000  0.0000000
                       0.0000000  0.0000000  0.0000000     0.0000000  0.0000000  0.0000000
                       0.0000000  0.0000000  0.0000000     0.0000000  0.0000000  0.0000000
                       0.0000000  0.0000000  0.0000000     0.0000000  0.0000000  0.0000000
                       0.0000000  0.0000000  0.0000000     0.0000000  0.0000000  0.0000000
                       0.0000000  0.0000000  0.0000000     0.0000000  0.0000000  0.0000000
                       0.0000000  0.0000000  0.0000000     0.0000000  0.0000000  0.0000000
                       0.0000000  0.0000000  0.0000000     0.0000000  0.0000000  0.0000000
                       0.0000000  0.0000000  0.0000000     0.0000000  0.0000000  0.0000000
                       0.0000000  0.0000000  0.0000000     0.0000000  0.0000000  0.0000000
                       0.0000000  0.0000000  0.0000000     0.0000000  0.0000000  0.0000000
                       0.0000000  0.0000000  0.0000000     0.0000000  0.0000000  0.0000000
                       0.0000000  0.0000000  0.0000000     0.0000000  0.0000000  0.0000000
                       0.0000000  0.0000000  0.0000000     0.0000000  0.0000000  0.0000000
                       0.0000000  0.0000000  0.0000000     0.0000000  0.0000000  0.0000000
                       0.0000000  0.0000000  0.0000000     0.0000000  0.0000000  0.0000000
                       0.0000000  0.0000000  0.0000000     0.0000000  0.0000000  0.0000000
                       0.0000000  0.0000000  0.0000000     0.0000000  0.0000000  0.0000000
                       0.0000000  0.0000000  0.0000000     0.0000000  0.0000000  0.0000000
                       0.0000000  0.0000000  0.0000000     0.0000000  0.0000000  0.0000000
                       0.0000000  0.0000000  0.0000000     0.0000000  0.0000000  0.0000000
                       0.0000000  0.0000000  0.0000000     0.0000000  0.0000000  0.0000000
                       0.0000000  0.0000000  0.0000000     0.0000000  0.0000000  0.0000000
                       0.0000000  0.0000000  0.0000000     0.0000000  0.0000000  0.0000000
           toldfe11    0.00000000E+00 Hartree
           toldfe12    1.00000000E-06 Hartree
           toldff11    5.00000000E-05
           toldff12    0.00000000E+00
           tolmxf11    5.00000000E-04
           tolmxf12    5.00000000E-05
            typat11    1  1
            typat12    1
           xangst11   -3.7042404601E-01  0.0000000000E+00  0.0000000000E+00
                       3.7042404601E-01  0.0000000000E+00  0.0000000000E+00
           xangst12    0.0000000000E+00  0.0000000000E+00  0.0000000000E+00
            xcart11   -7.0000000000E-01  0.0000000000E+00  0.0000000000E+00
                       7.0000000000E-01  0.0000000000E+00  0.0000000000E+00
            xcart12    0.0000000000E+00  0.0000000000E+00  0.0000000000E+00
             xred11   -5.8333333333E-02  0.0000000000E+00  0.0000000000E+00
                       5.8333333333E-02  0.0000000000E+00  0.0000000000E+00
             xred12    0.0000000000E+00  0.0000000000E+00  0.0000000000E+00
            znucl        1.00000

================================================================================

 chkinp: Checking input parameters for consistency, jdtset=  11.

 chkinp: Checking input parameters for consistency, jdtset=  12.

================================================================================
== DATASET 11 ==================================================================
-   nproc =    1

 Exchange-correlation functional for the present dataset will be:
  LDA: new Teter (4/93) with spin-polarized option - ixc=1
 Citation for XC functional:
  S. Goedecker, M. Teter, J. Huetter, PRB 54, 1703 (1996)

 Real(R)+Recip(G) space primitive vectors, cartesian coordinates (Bohr,Bohr^-1):
 R(1)= 12.0000000  0.0000000  0.0000000  G(1)=  0.0833333  0.0000000  0.0000000
 R(2)=  0.0000000 12.0000000  0.0000000  G(2)=  0.0000000  0.0833333  0.0000000
 R(3)=  0.0000000  0.0000000 12.0000000  G(3)=  0.0000000  0.0000000  0.0833333
 Unit cell volume ucvol=  1.7280000E+03 bohr^3
 Angles (23,13,12)=  9.00000000E+01  9.00000000E+01  9.00000000E+01 degrees

 getcut: wavevector=  0.0000  0.0000  0.0000  ngfft=  60  60  60
         ecut(hartree)=     30.000   => boxcut(ratio)=   2.02789

--- Pseudopotential description ------------------------------------------------
- pspini: atom type   1  psp file is /home/gonze/ABINIT/ABINITv7.9.3/trunk/7.9.3-private/tests/Psps_for_tests/01h.pspgth
- pspatm: opening atomic psp file    /home/gonze/ABINIT/ABINITv7.9.3/trunk/7.9.3-private/tests/Psps_for_tests/01h.pspgth
- Goedecker-Teter-Hutter  Wed May  8 14:27:44 EDT 1996
-  1.00000   1.00000    960508                znucl, zion, pspdat
    2    1    0    0      2001   0.00000      pspcod,pspxc,lmax,lloc,mmax,r2well
 rloc=   0.2000000
  cc1=  -4.0663326; cc2=   0.6778322; cc3=   0.0000000; cc4=   0.0000000
  rrs=   0.0000000; h1s=   0.0000000; h2s=   0.0000000
  rrp=   0.0000000; h1p=   0.0000000
-  Local part computed in reciprocal space.

 pspatm : COMMENT -
  the projectors are not normalized,
  so that the KB energies are not consistent with 
  definition in PRB44, 8503 (1991). 
  However, this does not influence the results obtained hereafter.
 pspatm: epsatm=   -0.00480358
         --- l  ekb(1:nproj) -->
 pspatm: atomic psp has been read  and splines computed

  -1.92143215E-02                                ecore*ucvol(ha*bohr**3)
--------------------------------------------------------------------------------

P newkpt: treating      1 bands with npw=    6759 for ikpt=   1 by node    0

_setup2: Arith. and geom. avg. npw (full set) are   13517.000   13517.000

================================================================================

=== [ionmov= 3] Broyden-Fletcher-Goldfard-Shanno method (forces,Tot energy) 
================================================================================

--- Iteration: ( 1/10) Internal Cycle: (1/1)
--------------------------------------------------------------------------------

---SELF-CONSISTENT-FIELD CONVERGENCE--------------------------------------------

     iter   Etot(hartree)      deltaE(h)  residm     vres2    diffor    maxfor
 ETOT  1  -1.1294675706715    -1.129E+00 4.495E-05 4.802E+01 7.290E-03 7.290E-03
 ETOT  2  -1.1320826829733    -2.615E-03 1.618E-09 3.564E+00 1.804E-02 2.533E-02
 ETOT  3  -1.1324276037537    -3.449E-04 4.497E-07 1.037E-01 7.182E-03 1.815E-02
 ETOT  4  -1.1324407193870    -1.312E-05 1.024E-07 8.543E-05 1.099E-03 1.925E-02
 ETOT  5  -1.1324407238201    -4.433E-09 6.820E-12 1.579E-05 1.186E-05 1.926E-02
 ETOT  6  -1.1324407238088     1.131E-11 2.743E-14 8.002E-07 1.745E-06 1.926E-02

 At SCF step    6, forces are converged : 
  for the second time, max diff in force=  1.745E-06 < toldff=  5.000E-05

 Cartesian components of stress tensor (hartree/bohr^3)
  sigma(1 1)= -1.18576493E-05  sigma(3 2)=  0.00000000E+00
  sigma(2 2)=  4.87250422E-06  sigma(3 1)=  0.00000000E+00
  sigma(3 3)=  4.87250422E-06  sigma(2 1)=  0.00000000E+00


---OUTPUT-----------------------------------------------------------------------

 Cartesian coordinates (xcart) [bohr]
 -7.00000000000000E-01  0.00000000000000E+00  0.00000000000000E+00
  7.00000000000000E-01  0.00000000000000E+00  0.00000000000000E+00
 Reduced coordinates (xred)
 -5.83333333333333E-02  0.00000000000000E+00  0.00000000000000E+00
  5.83333333333333E-02  0.00000000000000E+00  0.00000000000000E+00
 Cartesian forces (fcart) [Ha/bohr]; max,rms= 1.92592E-02 1.11193E-02 (free atoms)
 -1.92592033774389E-02 -0.00000000000000E+00 -0.00000000000000E+00
  1.92592033774389E-02 -0.00000000000000E+00 -0.00000000000000E+00
 Reduced forces (fred)
  2.31110440529267E-01  0.00000000000000E+00  0.00000000000000E+00
 -2.31110440529267E-01  0.00000000000000E+00  0.00000000000000E+00
 Total energy (etotal) [Ha]= -1.13244072380879E+00

--- Iteration: ( 2/10) Internal Cycle: (1/1)
--------------------------------------------------------------------------------

---SELF-CONSISTENT-FIELD CONVERGENCE--------------------------------------------

     iter   Etot(hartree)      deltaE(h)  residm     vres2    diffor    maxfor
 ETOT  1  -1.1328974456390    -1.133E+00 1.653E-10 9.284E-02 1.517E-02 4.088E-03
 ETOT  2  -1.1329006332982    -3.188E-06 1.791E-12 3.456E-03 6.587E-04 4.746E-03
 ETOT  3  -1.1329010352884    -4.020E-07 4.901E-10 1.175E-04 2.481E-04 4.995E-03
 ETOT  4  -1.1329010475859    -1.230E-08 9.256E-11 1.288E-07 2.965E-05 4.965E-03
 ETOT  5  -1.1329010475893    -3.407E-12 3.093E-15 1.698E-08 6.089E-07 4.964E-03

 At SCF step    5, forces are converged : 
  for the second time, max diff in force=  6.089E-07 < toldff=  5.000E-05

 Cartesian components of stress tensor (hartree/bohr^3)
  sigma(1 1)= -4.02597615E-07  sigma(3 2)=  0.00000000E+00
  sigma(2 2)=  4.75261789E-06  sigma(3 1)=  0.00000000E+00
  sigma(3 3)=  4.75261789E-06  sigma(2 1)=  0.00000000E+00


---OUTPUT-----------------------------------------------------------------------

 Cartesian coordinates (xcart) [bohr]
 -7.19259203377439E-01  0.00000000000000E+00  0.00000000000000E+00
  7.19259203377439E-01  0.00000000000000E+00  0.00000000000000E+00
 Reduced coordinates (xred)
 -5.99382669481199E-02  0.00000000000000E+00  0.00000000000000E+00
  5.99382669481199E-02  0.00000000000000E+00  0.00000000000000E+00
 Cartesian forces (fcart) [Ha/bohr]; max,rms= 4.96426E-03 2.86611E-03 (free atoms)
 -4.96425577745302E-03 -0.00000000000000E+00 -0.00000000000000E+00
  4.96425577745302E-03 -0.00000000000000E+00 -0.00000000000000E+00
 Reduced forces (fred)
  5.95710693294362E-02  0.00000000000000E+00  0.00000000000000E+00
 -5.95710693294362E-02  0.00000000000000E+00  0.00000000000000E+00
 Total energy (etotal) [Ha]= -1.13290104758926E+00

 Difference of energy with previous step (new-old):
           Absolute (Ha)=-4.60324E-04
           Relative     =-4.06406E-04

--- Iteration: ( 3/10) Internal Cycle: (1/1)
--------------------------------------------------------------------------------

---SELF-CONSISTENT-FIELD CONVERGENCE--------------------------------------------

     iter   Etot(hartree)      deltaE(h)  residm     vres2    diffor    maxfor
 ETOT  1  -1.1329366964831    -1.133E+00 2.091E-11 1.341E-02 5.311E-03 3.468E-04
 ETOT  2  -1.1329371469226    -4.504E-07 2.505E-13 4.865E-04 2.557E-04 9.109E-05
 ETOT  3  -1.1329372033591    -5.644E-08 6.920E-11 1.709E-05 9.274E-05 1.650E-06
 ETOT  4  -1.1329372051420    -1.783E-09 1.337E-11 1.772E-08 1.124E-05 9.593E-06
 ETOT  5  -1.1329372051423    -2.571E-13 4.205E-16 2.663E-09 2.411E-07 9.835E-06

 At SCF step    5, forces are converged : 
  for the second time, max diff in force=  2.411E-07 < toldff=  5.000E-05

 Cartesian components of stress tensor (hartree/bohr^3)
  sigma(1 1)=  3.75933951E-06  sigma(3 2)=  0.00000000E+00
  sigma(2 2)=  4.71049764E-06  sigma(3 1)=  0.00000000E+00
  sigma(3 3)=  4.71049764E-06  sigma(2 1)=  0.00000000E+00


---OUTPUT-----------------------------------------------------------------------

 Cartesian coordinates (xcart) [bohr]
 -7.26621352272866E-01  0.00000000000000E+00  0.00000000000000E+00
  7.26621352272866E-01  0.00000000000000E+00  0.00000000000000E+00
 Reduced coordinates (xred)
 -6.05517793560721E-02  0.00000000000000E+00  0.00000000000000E+00
  6.05517793560721E-02  0.00000000000000E+00  0.00000000000000E+00
 Cartesian forces (fcart) [Ha/bohr]; max,rms= 9.83454E-06 5.67797E-06 (free atoms)
  9.83453960413725E-06 -0.00000000000000E+00 -0.00000000000000E+00
 -9.83453960413725E-06 -0.00000000000000E+00 -0.00000000000000E+00
 Reduced forces (fred)
 -1.18014475249647E-04  0.00000000000000E+00  0.00000000000000E+00
  1.18014475249647E-04  0.00000000000000E+00  0.00000000000000E+00
 Total energy (etotal) [Ha]= -1.13293720514229E+00

 Difference of energy with previous step (new-old):
           Absolute (Ha)=-3.61576E-05
           Relative     =-3.19154E-05

 At Broyd/MD step   3, gradients are converged : 
  max grad (force/stress) = 9.8345E-06 < tolmxf= 5.0000E-04 ha/bohr (free atoms)

================================================================================

 ----iterations are completed or convergence reached----

 Mean square residual over all n,k,spin=   4.2049E-16; max=  4.2049E-16
   0.0000  0.0000  0.0000    1  4.20491E-16 kpt; spin; max resid(k); each band:
  4.20E-16
 reduced coordinates (array xred) for    2 atoms
      -0.060551779356      0.000000000000      0.000000000000
       0.060551779356      0.000000000000      0.000000000000
 rms dE/dt=  6.8136E-05; max dE/dt=  1.1801E-04; dE/dt below (all hartree)
    1      -0.000118014475      0.000000000000      0.000000000000
    2       0.000118014475      0.000000000000      0.000000000000

 cartesian coordinates (angstrom) at end:
    1     -0.38451145889765     0.00000000000000     0.00000000000000
    2      0.38451145889765     0.00000000000000     0.00000000000000

 cartesian forces (hartree/bohr) at end:
    1      0.00000983453960    -0.00000000000000    -0.00000000000000
    2     -0.00000983453960    -0.00000000000000    -0.00000000000000
 frms,max,avg= 5.6779741E-06 9.8345396E-06   0.000E+00  0.000E+00  0.000E+00 h/b

 cartesian forces (eV/Angstrom) at end:
    1      0.00050571231699    -0.00000000000000    -0.00000000000000
    2     -0.00050571231699    -0.00000000000000    -0.00000000000000
 frms,max,avg= 2.9197314E-04 5.0571232E-04   0.000E+00  0.000E+00  0.000E+00 e/A
 length scales= 12.000000000000 12.000000000000 12.000000000000 bohr
              =  6.350126503080  6.350126503080  6.350126503080 angstroms
 prteigrs : about to open file tbase2_4o_DS11_EIG
 Fermi (or HOMO) energy (hartree) =  -0.36676   Average Vxc (hartree)=  -0.04724
 Eigenvalues (hartree) for nkpt=   1  k points:
 kpt#   1, nband=  1, wtk=  1.00000, kpt=  0.0000  0.0000  0.0000 (reduced coord)
  -0.36676
 Total charge density [el/Bohr^3]
,     Maximum=    3.1267E-01  at reduced coord.    0.9500    0.0000    0.0000
,Next maximum=    3.1267E-01  at reduced coord.    0.0500    0.0000    0.0000
,     Minimum=    9.9229E-11  at reduced coord.    0.5000    0.5000    0.3333
,Next minimum=    9.9229E-11  at reduced coord.    0.5000    0.3333    0.5000
,  Integrated=    2.0000E+00

--------------------------------------------------------------------------------
 Components of total free energy (in Hartree) :

    Kinetic energy  =  1.06072932305242E+00
    Hartree energy  =  8.13549609452120E-01
    XC energy       = -6.41512041556074E-01
    Ewald energy    =  2.17848980771964E-01
    PspCore energy  = -1.11193990319380E-05
    Loc. psp. energy= -2.58354195746369E+00
    NL   psp  energy=  0.00000000000000E+00
    >>>>>>>>> Etotal= -1.13293720514229E+00

 Other information on the energy :
    Total energy(eV)= -3.08287891784025E+01 ; Band energy (Ha)=  -7.3352030219E-01
--------------------------------------------------------------------------------
 rms coord change=  1.2808E-03   atom, delta coord (reduced):
     1       -0.002218446023      0.000000000000      0.000000000000
     2        0.002218446023      0.000000000000      0.000000000000

 Cartesian components of stress tensor (hartree/bohr^3)
  sigma(1 1)=  3.75933951E-06  sigma(3 2)=  0.00000000E+00
  sigma(2 2)=  4.71049764E-06  sigma(3 1)=  0.00000000E+00
  sigma(3 3)=  4.71049764E-06  sigma(2 1)=  0.00000000E+00

-Cartesian components of stress tensor (GPa)         [Pressure= -1.2926E-01 GPa]
- sigma(1 1)=  1.10603568E-01  sigma(3 2)=  0.00000000E+00
- sigma(2 2)=  1.38587602E-01  sigma(3 1)=  0.00000000E+00
- sigma(3 3)=  1.38587602E-01  sigma(2 1)=  0.00000000E+00

================================================================================
== DATASET 12 ==================================================================
-   nproc =    1

 Exchange-correlation functional for the present dataset will be:
  LDA: new Teter (4/93) with spin-polarized option - ixc=1
 Citation for XC functional:
  S. Goedecker, M. Teter, J. Huetter, PRB 54, 1703 (1996)

 Real(R)+Recip(G) space primitive vectors, cartesian coordinates (Bohr,Bohr^-1):
 R(1)= 12.0000000  0.0000000  0.0000000  G(1)=  0.0833333  0.0000000  0.0000000
 R(2)=  0.0000000 12.0000000  0.0000000  G(2)=  0.0000000  0.0833333  0.0000000
 R(3)=  0.0000000  0.0000000 12.0000000  G(3)=  0.0000000  0.0000000  0.0833333
 Unit cell volume ucvol=  1.7280000E+03 bohr^3
 Angles (23,13,12)=  9.00000000E+01  9.00000000E+01  9.00000000E+01 degrees

 getcut: wavevector=  0.0000  0.0000  0.0000  ngfft=  60  60  60
         ecut(hartree)=     30.000   => boxcut(ratio)=   2.02789
  -4.80358038E-03                                ecore*ucvol(ha*bohr**3)
--------------------------------------------------------------------------------

P newkpt: treating      1 bands with npw=    6759 for ikpt=   1 by node    0
P newkpt: treating      1 bands with npw=    6759 for ikpt=   1 by node    0

_setup2: Arith. and geom. avg. npw (full set) are   13517.000   13517.000

================================================================================

     iter   Etot(hartree)      deltaE(h)  residm     vres2    diffor    maxfor
 ETOT  1 -0.47735047307879    -4.774E-01 6.905E-05 6.866E+01 0.000E+00 0.000E+00
 ETOT  2 -0.47765217972552    -3.017E-04 3.555E-11 2.284E-01 0.000E+00 0.000E+00
 ETOT  3 -0.47765320174752    -1.022E-06 6.783E-09 3.454E-04 0.000E+00 0.000E+00
 ETOT  4 -0.47765320720361    -5.456E-09 8.347E-11 1.477E-06 0.000E+00 0.000E+00
 ETOT  5 -0.47765320721318    -9.576E-12 9.542E-14 8.495E-09 0.000E+00 0.000E+00

 At SCF step    5, etot is converged : 
  for the second time, diff in etot=  9.576E-12 < toldfe=  1.000E-06

 Cartesian components of stress tensor (hartree/bohr^3)
  sigma(1 1)=  2.39435055E-06  sigma(3 2)=  0.00000000E+00
  sigma(2 2)=  2.39435055E-06  sigma(3 1)=  0.00000000E+00
  sigma(3 3)=  2.39435055E-06  sigma(2 1)=  0.00000000E+00

================================================================================

 ----iterations are completed or convergence reached----

 Mean square residual over all n,k,spin=   6.7086E-14; max=  9.5421E-14
   0.0000  0.0000  0.0000    1  3.87518E-14 kpt; spin; max resid(k); each band:
  3.88E-14
   0.0000  0.0000  0.0000    2  9.54206E-14 kpt; spin; max resid(k); each band:
  9.54E-14
 reduced coordinates (array xred) for    1 atoms
       0.000000000000      0.000000000000      0.000000000000
 rms dE/dt=  0.0000E+00; max dE/dt=  0.0000E+00; dE/dt below (all hartree)
    1       0.000000000000      0.000000000000      0.000000000000

 cartesian coordinates (angstrom) at end:
    1      0.00000000000000     0.00000000000000     0.00000000000000

 cartesian forces (hartree/bohr) at end:
    1     -0.00000000000000    -0.00000000000000    -0.00000000000000
 frms,max,avg= 0.0000000E+00 0.0000000E+00   0.000E+00  0.000E+00  0.000E+00 h/b

 cartesian forces (eV/Angstrom) at end:
    1     -0.00000000000000    -0.00000000000000    -0.00000000000000
 frms,max,avg= 0.0000000E+00 0.0000000E+00   0.000E+00  0.000E+00  0.000E+00 e/A
 length scales= 12.000000000000 12.000000000000 12.000000000000 bohr
              =  6.350126503080  6.350126503080  6.350126503080 angstroms
 prteigrs : about to open file tbase2_4o_DS12_EIG
 Fermi (or HOMO) energy (hartree) =  -0.26604   Average Vxc (hartree)=  -0.04490
 Eigenvalues (hartree) for nkpt=   1  k points, SPIN UP:
 kpt#   1, nband=  1, wtk=  1.00000, kpt=  0.0000  0.0000  0.0000 (reduced coord)
  -0.26604
 Eigenvalues (hartree) for nkpt=   1  k points, SPIN DOWN:
 kpt#   1, nband=  1, wtk=  1.00000, kpt=  0.0000  0.0000  0.0000 (reduced coord)
  -0.10016
 Total charge density [el/Bohr^3]
,     Maximum=    2.0501E-01  at reduced coord.    0.0000    0.0000    0.0000
,Next maximum=    1.8372E-01  at reduced coord.    0.0000    0.0000    0.9833
,     Minimum=    9.5620E-08  at reduced coord.    0.5000    0.5000    0.3833
,Next minimum=    9.5620E-08  at reduced coord.    0.5000    0.3833    0.5000
,  Integrated=    1.0000E+00
 Spin up density      [el/Bohr^3]
,     Maximum=    2.0501E-01  at reduced coord.    0.0000    0.0000    0.0000
,Next maximum=    1.8372E-01  at reduced coord.    0.0000    0.0000    0.9833
,     Minimum=    9.5620E-08  at reduced coord.    0.5000    0.5000    0.3833
,Next minimum=    9.5620E-08  at reduced coord.    0.5000    0.3833    0.5000
,  Integrated=    1.0000E+00
 Spin down density    [el/Bohr^3]
,     Maximum=    0.0000E+00  at reduced coord.    0.9833    0.9833    0.9833
,Next maximum=    0.0000E+00  at reduced coord.    0.9667    0.9833    0.9833
,     Minimum=    0.0000E+00  at reduced coord.    0.0000    0.0000    0.0000
,Next minimum=    0.0000E+00  at reduced coord.    0.0167    0.0000    0.0000
,  Integrated=    0.0000E+00
 Magnetization (spin up - spin down) [el/Bohr^3]
,     Maximum=    2.0501E-01  at reduced coord.    0.0000    0.0000    0.0000
,Next maximum=    1.8372E-01  at reduced coord.    0.0000    0.0000    0.9833
,     Minimum=    9.5620E-08  at reduced coord.    0.5000    0.5000    0.3833
,Next minimum=    9.5620E-08  at reduced coord.    0.5000    0.3833    0.5000
,  Integrated=    1.0000E+00
 Relative magnetization (=zeta, between -1 and 1)
,     Maximum=    1.0000E+00  at reduced coord.    0.9833    0.9833    0.9833
,Next maximum=    1.0000E+00  at reduced coord.    0.9667    0.9833    0.9833
,     Minimum=    1.0000E+00  at reduced coord.    0.0000    0.0000    0.0000
,Next minimum=    1.0000E+00  at reduced coord.    0.0167    0.0000    0.0000

--------------------------------------------------------------------------------
 Components of total free energy (in Hartree) :

    Kinetic energy  =  4.54200528773612E-01
    Hartree energy  =  1.81130249718783E-01
    XC energy       = -2.75288191622281E-01
    Ewald energy    = -1.18220728311694E-01
    PspCore energy  = -2.77984975798451E-06
    Loc. psp. energy= -7.19472285921843E-01
    NL   psp  energy=  0.00000000000000E+00
    >>>>>>>>> Etotal= -4.77653207213181E-01

 Other information on the energy :
    Total energy(eV)= -1.29976047734380E+01 ; Band energy (Ha)=  -2.6603656430E-01
--------------------------------------------------------------------------------

 Cartesian components of stress tensor (hartree/bohr^3)
  sigma(1 1)=  2.39435055E-06  sigma(3 2)=  0.00000000E+00
  sigma(2 2)=  2.39435055E-06  sigma(3 1)=  0.00000000E+00
  sigma(3 3)=  2.39435055E-06  sigma(2 1)=  0.00000000E+00

-Cartesian components of stress tensor (GPa)         [Pressure= -7.0444E-02 GPa]
- sigma(1 1)=  7.04442134E-02  sigma(3 2)=  0.00000000E+00
- sigma(2 2)=  7.04442134E-02  sigma(3 1)=  0.00000000E+00
- sigma(3 3)=  7.04442134E-02  sigma(2 1)=  0.00000000E+00

== END DATASET(S) ==============================================================
================================================================================
  
 -outvars: echo values of variables after computation  --------
            acell      1.2000000000E+01  1.2000000000E+01  1.2000000000E+01 Bohr
              amu      1.00794000E+00
        bs_loband11         0
        bs_loband12         0       0
           diemac      1.00000000E+00
             ecut      3.00000000E+01 Hartree
           etotal11   -1.1329372051E+00
           etotal12   -4.7765320721E-01
            fcart11    9.8345396041E-06 -0.0000000000E+00 -0.0000000000E+00
                      -9.8345396041E-06 -0.0000000000E+00 -0.0000000000E+00
            fcart12   -0.0000000000E+00 -0.0000000000E+00 -0.0000000000E+00
-          fftalg         112
           ionmov11         3
           ionmov12         0
           istwfk        2
           jdtset       11   12
           kptopt           0
P           mkmem           1
            natom11         2
            natom12         1
            nband11         1
            nband12         1       1
           ndtset           2
            ngfft          60      60      60
             nkpt           1
           nspden11         1
           nspden12         2
           nsppol11         1
           nsppol12         2
            nstep          10
             nsym11        16
             nsym12        48
            ntime11        10
            ntime12         1
           ntypat           1
              occ11    2.000000
              occ12    1.000000
                       0.000000
           occopt11         1
           occopt12         2
        optforces           1
          spgroup11       123
          spgroup12       221
           spinat12    0.0000000000E+00  0.0000000000E+00  1.0000000000E+00
           strten11    3.7593395069E-06  4.7104976375E-06  4.7104976375E-06
                       0.0000000000E+00  0.0000000000E+00  0.0000000000E+00
           strten12    2.3943505506E-06  2.3943505506E-06  2.3943505506E-06
                       0.0000000000E+00  0.0000000000E+00  0.0000000000E+00
           symafm11      1    1    1    1    1    1    1    1    1    1
                         1    1    1    1    1    1
           symafm12      1    1    1    1    1    1    1    1    1    1
                         1    1    1    1    1    1    1    1    1    1
                         1    1    1    1    1    1    1    1    1    1
                         1    1    1    1    1    1    1    1    1    1
                         1    1    1    1    1    1    1    1
           symrel11    1  0  0   0  1  0   0  0  1      -1  0  0   0 -1  0   0  0 -1
                      -1  0  0   0  1  0   0  0 -1       1  0  0   0 -1  0   0  0  1
                      -1  0  0   0 -1  0   0  0  1       1  0  0   0  1  0   0  0 -1
                       1  0  0   0 -1  0   0  0 -1      -1  0  0   0  1  0   0  0  1
                       1  0  0   0  0  1   0  1  0      -1  0  0   0  0 -1   0 -1  0
                      -1  0  0   0  0  1   0 -1  0       1  0  0   0  0 -1   0  1  0
                      -1  0  0   0  0 -1   0  1  0       1  0  0   0  0  1   0 -1  0
                       1  0  0   0  0 -1   0 -1  0      -1  0  0   0  0  1   0  1  0
           symrel12    1  0  0   0  1  0   0  0  1      -1  0  0   0 -1  0   0  0 -1
                      -1  0  0   0  1  0   0  0 -1       1  0  0   0 -1  0   0  0  1
                      -1  0  0   0 -1  0   0  0  1       1  0  0   0  1  0   0  0 -1
                       1  0  0   0 -1  0   0  0 -1      -1  0  0   0  1  0   0  0  1
                       0  1  0   1  0  0   0  0  1       0 -1  0  -1  0  0   0  0 -1
                       0 -1  0   1  0  0   0  0 -1       0  1  0  -1  0  0   0  0  1
                       0 -1  0  -1  0  0   0  0  1       0  1  0   1  0  0   0  0 -1
                       0  1  0  -1  0  0   0  0 -1       0 -1  0   1  0  0   0  0  1
                       0  0  1   1  0  0   0  1  0       0  0 -1  -1  0  0   0 -1  0
                       0  0 -1   1  0  0   0 -1  0       0  0  1  -1  0  0   0  1  0
                       0  0 -1  -1  0  0   0  1  0       0  0  1   1  0  0   0 -1  0
                       0  0  1  -1  0  0   0 -1  0       0  0 -1   1  0  0   0  1  0
                       1  0  0   0  0  1   0  1  0      -1  0  0   0  0 -1   0 -1  0
                      -1  0  0   0  0  1   0 -1  0       1  0  0   0  0 -1   0  1  0
                      -1  0  0   0  0 -1   0  1  0       1  0  0   0  0  1   0 -1  0
                       1  0  0   0  0 -1   0 -1  0      -1  0  0   0  0  1   0  1  0
                       0  1  0   0  0  1   1  0  0       0 -1  0   0  0 -1  -1  0  0
                       0 -1  0   0  0  1  -1  0  0       0  1  0   0  0 -1   1  0  0
                       0 -1  0   0  0 -1   1  0  0       0  1  0   0  0  1  -1  0  0
                       0  1  0   0  0 -1  -1  0  0       0 -1  0   0  0  1   1  0  0
                       0  0  1   0  1  0   1  0  0       0  0 -1   0 -1  0  -1  0  0
                       0  0 -1   0  1  0  -1  0  0       0  0  1   0 -1  0   1  0  0
                       0  0 -1   0 -1  0   1  0  0       0  0  1   0  1  0  -1  0  0
                       0  0  1   0 -1  0  -1  0  0       0  0 -1   0  1  0   1  0  0
            tnons11    0.0000000  0.0000000  0.0000000     0.0000000  0.0000000  0.0000000
                       0.0000000  0.0000000  0.0000000     0.0000000  0.0000000  0.0000000
                       0.0000000  0.0000000  0.0000000     0.0000000  0.0000000  0.0000000
                       0.0000000  0.0000000  0.0000000     0.0000000  0.0000000  0.0000000
                       0.0000000  0.0000000  0.0000000     0.0000000  0.0000000  0.0000000
                       0.0000000  0.0000000  0.0000000     0.0000000  0.0000000  0.0000000
                       0.0000000  0.0000000  0.0000000     0.0000000  0.0000000  0.0000000
                       0.0000000  0.0000000  0.0000000     0.0000000  0.0000000  0.0000000
            tnons12    0.0000000  0.0000000  0.0000000     0.0000000  0.0000000  0.0000000
                       0.0000000  0.0000000  0.0000000     0.0000000  0.0000000  0.0000000
                       0.0000000  0.0000000  0.0000000     0.0000000  0.0000000  0.0000000
                       0.0000000  0.0000000  0.0000000     0.0000000  0.0000000  0.0000000
                       0.0000000  0.0000000  0.0000000     0.0000000  0.0000000  0.0000000
                       0.0000000  0.0000000  0.0000000     0.0000000  0.0000000  0.0000000
                       0.0000000  0.0000000  0.0000000     0.0000000  0.0000000  0.0000000
                       0.0000000  0.0000000  0.0000000     0.0000000  0.0000000  0.0000000
                       0.0000000  0.0000000  0.0000000     0.0000000  0.0000000  0.0000000
                       0.0000000  0.0000000  0.0000000     0.0000000  0.0000000  0.0000000
                       0.0000000  0.0000000  0.0000000     0.0000000  0.0000000  0.0000000
                       0.0000000  0.0000000  0.0000000     0.0000000  0.0000000  0.0000000
                       0.0000000  0.0000000  0.0000000     0.0000000  0.0000000  0.0000000
                       0.0000000  0.0000000  0.0000000     0.0000000  0.0000000  0.0000000
                       0.0000000  0.0000000  0.0000000     0.0000000  0.0000000  0.0000000
                       0.0000000  0.0000000  0.0000000     0.0000000  0.0000000  0.0000000
                       0.0000000  0.0000000  0.0000000     0.0000000  0.0000000  0.0000000
                       0.0000000  0.0000000  0.0000000     0.0000000  0.0000000  0.0000000
                       0.0000000  0.0000000  0.0000000     0.0000000  0.0000000  0.0000000
                       0.0000000  0.0000000  0.0000000     0.0000000  0.0000000  0.0000000
                       0.0000000  0.0000000  0.0000000     0.0000000  0.0000000  0.0000000
                       0.0000000  0.0000000  0.0000000     0.0000000  0.0000000  0.0000000
                       0.0000000  0.0000000  0.0000000     0.0000000  0.0000000  0.0000000
                       0.0000000  0.0000000  0.0000000     0.0000000  0.0000000  0.0000000
           toldfe11    0.00000000E+00 Hartree
           toldfe12    1.00000000E-06 Hartree
           toldff11    5.00000000E-05
           toldff12    0.00000000E+00
           tolmxf11    5.00000000E-04
           tolmxf12    5.00000000E-05
            typat11    1  1
            typat12    1
           xangst11   -3.8451145890E-01  0.0000000000E+00  0.0000000000E+00
                       3.8451145890E-01  0.0000000000E+00  0.0000000000E+00
           xangst12    0.0000000000E+00  0.0000000000E+00  0.0000000000E+00
            xcart11   -7.2662135227E-01  0.0000000000E+00  0.0000000000E+00
                       7.2662135227E-01  0.0000000000E+00  0.0000000000E+00
            xcart12    0.0000000000E+00  0.0000000000E+00  0.0000000000E+00
             xred11   -6.0551779356E-02  0.0000000000E+00  0.0000000000E+00
                       6.0551779356E-02  0.0000000000E+00  0.0000000000E+00
             xred12    0.0000000000E+00  0.0000000000E+00  0.0000000000E+00
            znucl        1.00000

================================================================================


- Timing analysis has been suppressed with timopt=0



================================================================================

 Suggested references for the acknowledgment of ABINIT usage.

 The users of ABINIT have little formal obligations with respect to the ABINIT group
 (those specified in the GNU General Public License, http://www.gnu.org/copyleft/gpl.txt).
 However, it is common practice in the scientific literature,
 to acknowledge the efforts of people that have made the research possible.
 In this spirit, please find below suggested citations of work written by ABINIT developers,
 corresponding to implementations inside of ABINIT that you have used in the present run.
 Note also that it will be of great value to readers of publications presenting these results,
 to read papers enabling them to understand the theoretical formalism and details
 of the ABINIT implementation.
 For information on why they are suggested, see also http://www.abinit.org/about/?text=acknowledgments.

 [1] ABINIT : First-principles approach of materials and nanosystem properties.
 X. Gonze, B. Amadon, P.-M. Anglade, J.-M. Beuken, F. Bottin, P. Boulanger, F. Bruneval,
 D. Caliste, R. Caracas, M. Cote, T. Deutsch, L. Genovese, Ph. Ghosez, M. Giantomassi
 S. Goedecker, D.R. Hamann, P. Hermet, F. Jollet, G. Jomard, S. Leroux, M. Mancini, S. Mazevet,
 M.J.T. Oliveira, G. Onida, Y. Pouillon, T. Rangel, G.-M. Rignanese, D. Sangalli, R. Shaltaf,
 M. Torrent, M.J. Verstraete, G. Zerah, J.W. Zwanziger
 Computer Phys. Comm. 180, 2582-2615 (2009).
 Comment : the third generic paper describing the ABINIT project.
 Note that a version of this paper, that is not formatted for Computer Phys. Comm. 
 is available at http://www.abinit.org/about/ABINIT_CPC_v10.pdf .
 The licence allows the authors to put it on the Web.

 [2] A brief introduction to the ABINIT software package.
 X. Gonze, G.-M. Rignanese, M. Verstraete, J.-M. Beuken, Y. Pouillon, R. Caracas, F. Jollet,
 M. Torrent, G. Zerah, M. Mikami, Ph. Ghosez, M. Veithen, J.-Y. Raty, V. Olevano, F. Bruneval,
 L. Reining, R. Godby, G. Onida, D.R. Hamann, and D.C. Allan.
 Z. Kristallogr. 220, 558-562 (2005).
 Comment : the second generic paper describing the ABINIT project. Note that this paper
 should be cited especially if you are using the GW part of ABINIT, as several authors
 of this part are not in the list of authors of the first or third paper.
 The .pdf of the latter paper is available at http://www.abinit.org/about/zfk_0505-06_558-562.pdf.
 Note that it should not redistributed (Copyright by Oldenburg Wissenshaftverlag,
 the licence allows the authors to put it on the Web).


 And optionally :

 [3] First-principles computation of material properties : the ABINIT software project. 
 X. Gonze, J.-M. Beuken, R. Caracas, F. Detraux, M. Fuchs, G.-M. Rignanese, L. Sindic,
 M. Verstraete, G. Zerah, F. Jollet, M. Torrent, A. Roy, M. Mikami, Ph. Ghosez, J.-Y. Raty, D.C. Allan.
 Computational Materials Science 25, 478-492 (2002). http://dx.doi.org/10.1016/S0927-0256(02)00325-7
 Comment : the original paper describing the ABINIT project.

 [4] Fast radix 2, 3, 4 and 5 kernels for Fast Fourier Transformations
 on computers with overlapping multiply-add instructions.
 S. Goedecker, SIAM J. on Scientific Computing 18, 1605 (1997).
-
- Proc.   0 individual time (sec): cpu=          3.6  wall=          3.6

================================================================================

 Calculation completed.
.Delivered    7 WARNINGs and   6 COMMENTs to log file.
+Overall time at end (sec) : cpu=          3.6  wall=          3.6
