
.Version 7.9.3 of ABINIT 
.(MPI version, prepared for a x86_64_linux_gnu4.7 computer) 

.Copyright (C) 1998-2014 ABINIT group . 
 ABINIT comes with ABSOLUTELY NO WARRANTY.
 It is free software, and you are welcome to redistribute it
 under certain conditions (GNU General Public License,
 see ~abinit/COPYING or http://www.gnu.org/copyleft/gpl.txt).

 ABINIT is a project of the Universite Catholique de Louvain,
 Corning Inc. and other collaborators, see ~abinit/doc/developers/contributors.txt .
 Please read ~abinit/doc/users/acknowledgments.html for suggested
 acknowledgments of the ABINIT effort.
 For more information, see http://www.abinit.org .

.Starting date : Sat 30 Aug 2014.
- ( at 22h27 )
  
- input  file    -> tbs_2.in
- output file    -> tbs_2.out
- root for input  files -> tbs_2i
- root for output files -> tbs_2o


 Symmetries : space group Fd -3 m (#227); Bravais cF (face-center cubic)
================================================================================
 Values of the parameters that define the memory need of the present run
   intxc =         0  ionmov =         0    iscf =         7 xclevel =         1
  lmnmax =         2   lnmax =         2   mband =         8  mffmem =         1
P  mgfft =        18   mkmem =        64 mpssoang=         3     mpw =       278
  mqgrid =      3001   natom =         2    nfft =      5832    nkpt =        64
  nloalg =         4  nspden =         1 nspinor =         1  nsppol =         1
    nsym =        48  n1xccc =      2501  ntypat =         1  occopt =         1
================================================================================
P This job should need less than                       4.704 Mbytes of memory.
  Rough estimation (10% accuracy) of disk space for files :
_ WF disk file :      2.174 Mbytes ; DEN or POT disk file :      0.046 Mbytes.
================================================================================

--------------------------------------------------------------------------------
------------- Echo of variables that govern the present computation ------------
--------------------------------------------------------------------------------
-
- outvars: echo of selected default values                                      
-   accesswff0 =  0 , fftalg0 =112 , wfoptalg0 =  0
-
- outvars: echo of global parameters not present in the input file              
-  max_nthreads =    0
-
 -outvars: echo values of preprocessed input variables --------
            acell      1.0217000000E+01  1.0217000000E+01  1.0217000000E+01 Bohr
              amu      2.80855000E+01
     bs_algorithm           2
      bs_coupling           0
     bs_freq_mesh      0.00000000E+00  2.20495952E-01  7.34986508E-04 Hartree
 bs_haydock_niter         200
   bs_haydock_tol      5.00000000E-02  0.00000000E+00
        bs_loband           2
      chksymbreak           0
           diemac      1.20000000E+01
             ecut      7.56385066E+00 Hartree
          ecuteps      1.51277013E+00 Hartree
          ecutwfn      7.56385066E+00 Hartree
-          fftalg         112
         icutcoul           3
          inclvkb           2
           irdkss           1
           irdscr           1
              kpt      2.75000000E-02  5.25000000E-02  7.75000000E-02
                       2.77500000E-01  5.25000000E-02  7.75000000E-02
                      -4.72500000E-01  5.25000000E-02  7.75000000E-02
                      -2.22500000E-01  5.25000000E-02  7.75000000E-02
                       2.75000000E-02  3.02500000E-01  7.75000000E-02
                       2.77500000E-01  3.02500000E-01  7.75000000E-02
                      -4.72500000E-01  3.02500000E-01  7.75000000E-02
                      -2.22500000E-01  3.02500000E-01  7.75000000E-02
                       2.75000000E-02 -4.47500000E-01  7.75000000E-02
                       2.77500000E-01 -4.47500000E-01  7.75000000E-02
                      -4.72500000E-01 -4.47500000E-01  7.75000000E-02
                      -2.22500000E-01 -4.47500000E-01  7.75000000E-02
                       2.75000000E-02 -1.97500000E-01  7.75000000E-02
                       2.77500000E-01 -1.97500000E-01  7.75000000E-02
                      -4.72500000E-01 -1.97500000E-01  7.75000000E-02
                      -2.22500000E-01 -1.97500000E-01  7.75000000E-02
                       2.75000000E-02  5.25000000E-02  3.27500000E-01
                       2.77500000E-01  5.25000000E-02  3.27500000E-01
                      -4.72500000E-01  5.25000000E-02  3.27500000E-01
                      -2.22500000E-01  5.25000000E-02  3.27500000E-01
                       2.75000000E-02  3.02500000E-01  3.27500000E-01
                       2.77500000E-01  3.02500000E-01  3.27500000E-01
                      -4.72500000E-01  3.02500000E-01  3.27500000E-01
                      -2.22500000E-01  3.02500000E-01  3.27500000E-01
                       2.75000000E-02 -4.47500000E-01  3.27500000E-01
                       2.77500000E-01 -4.47500000E-01  3.27500000E-01
                      -4.72500000E-01 -4.47500000E-01  3.27500000E-01
                      -2.22500000E-01 -4.47500000E-01  3.27500000E-01
                       2.75000000E-02 -1.97500000E-01  3.27500000E-01
                       2.77500000E-01 -1.97500000E-01  3.27500000E-01
                      -4.72500000E-01 -1.97500000E-01  3.27500000E-01
                      -2.22500000E-01 -1.97500000E-01  3.27500000E-01
                       2.75000000E-02  5.25000000E-02 -4.22500000E-01
                       2.77500000E-01  5.25000000E-02 -4.22500000E-01
                      -4.72500000E-01  5.25000000E-02 -4.22500000E-01
                      -2.22500000E-01  5.25000000E-02 -4.22500000E-01
                       2.75000000E-02  3.02500000E-01 -4.22500000E-01
                       2.77500000E-01  3.02500000E-01 -4.22500000E-01
                      -4.72500000E-01  3.02500000E-01 -4.22500000E-01
                      -2.22500000E-01  3.02500000E-01 -4.22500000E-01
                       2.75000000E-02 -4.47500000E-01 -4.22500000E-01
                       2.77500000E-01 -4.47500000E-01 -4.22500000E-01
                      -4.72500000E-01 -4.47500000E-01 -4.22500000E-01
                      -2.22500000E-01 -4.47500000E-01 -4.22500000E-01
                       2.75000000E-02 -1.97500000E-01 -4.22500000E-01
                       2.77500000E-01 -1.97500000E-01 -4.22500000E-01
                      -4.72500000E-01 -1.97500000E-01 -4.22500000E-01
                      -2.22500000E-01 -1.97500000E-01 -4.22500000E-01
                       2.75000000E-02  5.25000000E-02 -1.72500000E-01
                       2.77500000E-01  5.25000000E-02 -1.72500000E-01
                       outvar_i_n : Printing only first  50 k-points.
         kptrlatt        4    0    0      0    4    0      0    0    4
          kptrlen      2.88980399E+01
P           mkmem          64
            natom           2
            nband           8
            ngfft          18      18      18
             nkpt          64
           npweps          27
           npwwfn         283
           nsheps           4
            nstep          50
             nsym          48
           ntypat           1
              occ      2.000000  2.000000  2.000000  2.000000  0.000000  0.000000
                       0.000000  0.000000
        optdriver          99
            rprim      0.0000000000E+00  5.0000000000E-01  5.0000000000E-01
                       5.0000000000E-01  0.0000000000E+00  5.0000000000E-01
                       5.0000000000E-01  5.0000000000E-01  0.0000000000E+00
           shiftk      1.10000000E-01  2.10000000E-01  3.10000000E-01
         soenergy      2.93994603E-02 Hartree
          spgroup         227
           symrel      1  0  0   0  1  0   0  0  1      -1  0  0   0 -1  0   0  0 -1
                       0 -1  1   0 -1  0   1 -1  0       0  1 -1   0  1  0  -1  1  0
                      -1  0  0  -1  0  1  -1  1  0       1  0  0   1  0 -1   1 -1  0
                       0  1 -1   1  0 -1   0  0 -1       0 -1  1  -1  0  1   0  0  1
                      -1  0  0  -1  1  0  -1  0  1       1  0  0   1 -1  0   1  0 -1
                       0 -1  1   1 -1  0   0 -1  0       0  1 -1  -1  1  0   0  1  0
                       1  0  0   0  0  1   0  1  0      -1  0  0   0  0 -1   0 -1  0
                       0  1 -1   0  0 -1   1  0 -1       0 -1  1   0  0  1  -1  0  1
                      -1  0  1  -1  1  0  -1  0  0       1  0 -1   1 -1  0   1  0  0
                       0 -1  0   1 -1  0   0 -1  1       0  1  0  -1  1  0   0  1 -1
                       1  0 -1   0  0 -1   0  1 -1      -1  0  1   0  0  1   0 -1  1
                       0  1  0   0  0  1   1  0  0       0 -1  0   0  0 -1  -1  0  0
                       1  0 -1   0  1 -1   0  0 -1      -1  0  1   0 -1  1   0  0  1
                       0 -1  0   0 -1  1   1 -1  0       0  1  0   0  1 -1  -1  1  0
                      -1  0  1  -1  0  0  -1  1  0       1  0 -1   1  0  0   1 -1  0
                       0  1  0   1  0  0   0  0  1       0 -1  0  -1  0  0   0  0 -1
                       0  0 -1   0  1 -1   1  0 -1       0  0  1   0 -1  1  -1  0  1
                       1 -1  0   0 -1  1   0 -1  0      -1  1  0   0  1 -1   0  1  0
                       0  0  1   1  0  0   0  1  0       0  0 -1  -1  0  0   0 -1  0
                      -1  1  0  -1  0  0  -1  0  1       1 -1  0   1  0  0   1  0 -1
                       0  0  1   0  1  0   1  0  0       0  0 -1   0 -1  0  -1  0  0
                       1 -1  0   0 -1  0   0 -1  1      -1  1  0   0  1  0   0  1 -1
                       0  0 -1   1  0 -1   0  1 -1       0  0  1  -1  0  1   0 -1  1
                      -1  1  0  -1  0  1  -1  0  0       1 -1  0   1  0 -1   1  0  0
            tnons      0.0000000  0.0000000  0.0000000     0.2500000  0.2500000  0.2500000
                       0.0000000  0.0000000  0.0000000     0.2500000  0.2500000  0.2500000
                       0.0000000  0.0000000  0.0000000     0.2500000  0.2500000  0.2500000
                       0.0000000  0.0000000  0.0000000     0.2500000  0.2500000  0.2500000
                       0.0000000  0.0000000  0.0000000     0.2500000  0.2500000  0.2500000
                       0.0000000  0.0000000  0.0000000     0.2500000  0.2500000  0.2500000
                       0.0000000  0.0000000  0.0000000     0.2500000  0.2500000  0.2500000
                       0.0000000  0.0000000  0.0000000     0.2500000  0.2500000  0.2500000
                       0.0000000  0.0000000  0.0000000     0.2500000  0.2500000  0.2500000
                       0.0000000  0.0000000  0.0000000     0.2500000  0.2500000  0.2500000
                       0.0000000  0.0000000  0.0000000     0.2500000  0.2500000  0.2500000
                       0.0000000  0.0000000  0.0000000     0.2500000  0.2500000  0.2500000
                       0.0000000  0.0000000  0.0000000     0.2500000  0.2500000  0.2500000
                       0.0000000  0.0000000  0.0000000     0.2500000  0.2500000  0.2500000
                       0.0000000  0.0000000  0.0000000     0.2500000  0.2500000  0.2500000
                       0.0000000  0.0000000  0.0000000     0.2500000  0.2500000  0.2500000
                       0.0000000  0.0000000  0.0000000     0.2500000  0.2500000  0.2500000
                       0.0000000  0.0000000  0.0000000     0.2500000  0.2500000  0.2500000
                       0.0000000  0.0000000  0.0000000     0.2500000  0.2500000  0.2500000
                       0.0000000  0.0000000  0.0000000     0.2500000  0.2500000  0.2500000
                       0.0000000  0.0000000  0.0000000     0.2500000  0.2500000  0.2500000
                       0.0000000  0.0000000  0.0000000     0.2500000  0.2500000  0.2500000
                       0.0000000  0.0000000  0.0000000     0.2500000  0.2500000  0.2500000
                       0.0000000  0.0000000  0.0000000     0.2500000  0.2500000  0.2500000
            typat      1  1
              wtk        0.01563    0.01563    0.01563    0.01563    0.01563    0.01563
                         0.01563    0.01563    0.01563    0.01563    0.01563    0.01563
                         0.01563    0.01563    0.01563    0.01563    0.01563    0.01563
                         0.01563    0.01563    0.01563    0.01563    0.01563    0.01563
                         0.01563    0.01563    0.01563    0.01563    0.01563    0.01563
                         0.01563    0.01563    0.01563    0.01563    0.01563    0.01563
                         0.01563    0.01563    0.01563    0.01563    0.01563    0.01563
                         0.01563    0.01563    0.01563    0.01563    0.01563    0.01563
                         0.01563    0.01563
                       outvars : Printing only first  50 k-points.
           xangst      0.0000000000E+00  0.0000000000E+00  0.0000000000E+00
                       1.3516508850E+00  1.3516508850E+00  1.3516508850E+00
            xcart      0.0000000000E+00  0.0000000000E+00  0.0000000000E+00
                       2.5542500000E+00  2.5542500000E+00  2.5542500000E+00
             xred      0.0000000000E+00  0.0000000000E+00  0.0000000000E+00
                       2.5000000000E-01  2.5000000000E-01  2.5000000000E-01
             zcut      5.51239881E-03 Hartree
            znucl       14.00000

================================================================================

 chkinp: Checking input parameters for consistency.

================================================================================
== DATASET  1 ==================================================================
-   nproc =    1

 Exchange-correlation functional for the present dataset will be:
  LDA: new Teter (4/93) with spin-polarized option - ixc=1
 Citation for XC functional:
  S. Goedecker, M. Teter, J. Huetter, PRB 54, 1703 (1996)

 Exciton: Calculation of dielectric properties by solving the Bethe-Salpeter equation 
 in frequency domain and reciprocal space on a transitions basis set. 
 Based on a program developed by L. Reining, V. Olevano, F. Sottile, 
 S. Albrecht, and G. Onida. Incorporated in ABINIT by M. Giantomassi. 

.Using double precision arithmetic ; gwpc =  8

 Real(R)+Recip(G) space primitive vectors, cartesian coordinates (Bohr,Bohr^-1):
 R(1)=  0.0000000  5.1085000  5.1085000  G(1)= -0.0978761  0.0978761  0.0978761
 R(2)=  5.1085000  0.0000000  5.1085000  G(2)=  0.0978761 -0.0978761  0.0978761
 R(3)=  5.1085000  5.1085000  0.0000000  G(3)=  0.0978761  0.0978761 -0.0978761
 Unit cell volume ucvol=  2.6663072E+02 bohr^3
 Angles (23,13,12)=  6.00000000E+01  6.00000000E+01  6.00000000E+01 degrees

--- Pseudopotential description ------------------------------------------------
- pspini: atom type   1  psp file is /home/gonze/ABINIT/ABINITv7.9.3/trunk/7.9.3-private/tests/Psps_for_tests/14si.pspnc
- pspatm: opening atomic psp file    /home/gonze/ABINIT/ABINITv7.9.3/trunk/7.9.3-private/tests/Psps_for_tests/14si.pspnc
-  Troullier-Martins psp for element  Si        Thu Oct 27 17:31:21 EDT 1994
- 14.00000   4.00000    940714                znucl, zion, pspdat
    1    1    2    2      2001   0.00000      pspcod,pspxc,lmax,lloc,mmax,r2well
    0   5.907  14.692    1   2.0872718        l,e99.0,e99.9,nproj,rcpsp
   0.00000000   0.00000000   0.00000000   0.00000000     rms, ekb1, ekb2, epsatm
    1   2.617   4.181    1   2.0872718        l,e99.0,e99.9,nproj,rcpsp
   0.00000000   0.00000000   0.00000000   0.00000000     rms, ekb1, ekb2, epsatm
    2   0.000   0.000    0   2.0872718        l,e99.0,e99.9,nproj,rcpsp
   0.00000000   0.00000000   0.00000000   0.00000000     rms, ekb1, ekb2, epsatm
    1.80626423934776    0.22824404341771    1.17378968127746   rchrg,fchrg,qchrg
 pspatm: epsatm=    1.43386982
         --- l  ekb(1:nproj) -->
             0    3.287949
             1    1.849886
 pspatm: atomic psp has been read  and splines computed

   2.29419171E+01                                ecore*ucvol(ha*bohr**3)
--------------------------------------------------------------------------------

 ==== K-mesh for the wavefunctions ====
 Number of points in the irreducible wedge :    64
 Reduced coordinates and weights : 

     1)     2.75000000E-02  5.25000000E-02  7.75000000E-02       0.01563
     2)     2.77500000E-01  5.25000000E-02  7.75000000E-02       0.01563
     3)    -4.72500000E-01  5.25000000E-02  7.75000000E-02       0.01563
     4)    -2.22500000E-01  5.25000000E-02  7.75000000E-02       0.01563
     5)     2.75000000E-02  3.02500000E-01  7.75000000E-02       0.01563
     6)     2.77500000E-01  3.02500000E-01  7.75000000E-02       0.01563
     7)    -4.72500000E-01  3.02500000E-01  7.75000000E-02       0.01563
     8)    -2.22500000E-01  3.02500000E-01  7.75000000E-02       0.01563
     9)     2.75000000E-02 -4.47500000E-01  7.75000000E-02       0.01563
    10)     2.77500000E-01 -4.47500000E-01  7.75000000E-02       0.01563
    11)    -4.72500000E-01 -4.47500000E-01  7.75000000E-02       0.01563
    12)    -2.22500000E-01 -4.47500000E-01  7.75000000E-02       0.01563
    13)     2.75000000E-02 -1.97500000E-01  7.75000000E-02       0.01563
    14)     2.77500000E-01 -1.97500000E-01  7.75000000E-02       0.01563
    15)    -4.72500000E-01 -1.97500000E-01  7.75000000E-02       0.01563
    16)    -2.22500000E-01 -1.97500000E-01  7.75000000E-02       0.01563
    17)     2.75000000E-02  5.25000000E-02  3.27500000E-01       0.01563
    18)     2.77500000E-01  5.25000000E-02  3.27500000E-01       0.01563
    19)    -4.72500000E-01  5.25000000E-02  3.27500000E-01       0.01563
    20)    -2.22500000E-01  5.25000000E-02  3.27500000E-01       0.01563
    21)     2.75000000E-02  3.02500000E-01  3.27500000E-01       0.01563
    22)     2.77500000E-01  3.02500000E-01  3.27500000E-01       0.01563
    23)    -4.72500000E-01  3.02500000E-01  3.27500000E-01       0.01563
    24)    -2.22500000E-01  3.02500000E-01  3.27500000E-01       0.01563
    25)     2.75000000E-02 -4.47500000E-01  3.27500000E-01       0.01563
    26)     2.77500000E-01 -4.47500000E-01  3.27500000E-01       0.01563
    27)    -4.72500000E-01 -4.47500000E-01  3.27500000E-01       0.01563
    28)    -2.22500000E-01 -4.47500000E-01  3.27500000E-01       0.01563
    29)     2.75000000E-02 -1.97500000E-01  3.27500000E-01       0.01563
    30)     2.77500000E-01 -1.97500000E-01  3.27500000E-01       0.01563
    31)    -4.72500000E-01 -1.97500000E-01  3.27500000E-01       0.01563
    32)    -2.22500000E-01 -1.97500000E-01  3.27500000E-01       0.01563
    33)     2.75000000E-02  5.25000000E-02 -4.22500000E-01       0.01563
    34)     2.77500000E-01  5.25000000E-02 -4.22500000E-01       0.01563
    35)    -4.72500000E-01  5.25000000E-02 -4.22500000E-01       0.01563
    36)    -2.22500000E-01  5.25000000E-02 -4.22500000E-01       0.01563
    37)     2.75000000E-02  3.02500000E-01 -4.22500000E-01       0.01563
    38)     2.77500000E-01  3.02500000E-01 -4.22500000E-01       0.01563
    39)    -4.72500000E-01  3.02500000E-01 -4.22500000E-01       0.01563
    40)    -2.22500000E-01  3.02500000E-01 -4.22500000E-01       0.01563
    41)     2.75000000E-02 -4.47500000E-01 -4.22500000E-01       0.01563
    42)     2.77500000E-01 -4.47500000E-01 -4.22500000E-01       0.01563
    43)    -4.72500000E-01 -4.47500000E-01 -4.22500000E-01       0.01563
    44)    -2.22500000E-01 -4.47500000E-01 -4.22500000E-01       0.01563
    45)     2.75000000E-02 -1.97500000E-01 -4.22500000E-01       0.01563
    46)     2.77500000E-01 -1.97500000E-01 -4.22500000E-01       0.01563
    47)    -4.72500000E-01 -1.97500000E-01 -4.22500000E-01       0.01563
    48)    -2.22500000E-01 -1.97500000E-01 -4.22500000E-01       0.01563
    49)     2.75000000E-02  5.25000000E-02 -1.72500000E-01       0.01563
    50)     2.77500000E-01  5.25000000E-02 -1.72500000E-01       0.01563
    51)    -4.72500000E-01  5.25000000E-02 -1.72500000E-01       0.01563
    52)    -2.22500000E-01  5.25000000E-02 -1.72500000E-01       0.01563
    53)     2.75000000E-02  3.02500000E-01 -1.72500000E-01       0.01563
    54)     2.77500000E-01  3.02500000E-01 -1.72500000E-01       0.01563
    55)    -4.72500000E-01  3.02500000E-01 -1.72500000E-01       0.01563
    56)    -2.22500000E-01  3.02500000E-01 -1.72500000E-01       0.01563
    57)     2.75000000E-02 -4.47500000E-01 -1.72500000E-01       0.01563
    58)     2.77500000E-01 -4.47500000E-01 -1.72500000E-01       0.01563
    59)    -4.72500000E-01 -4.47500000E-01 -1.72500000E-01       0.01563
    60)    -2.22500000E-01 -4.47500000E-01 -1.72500000E-01       0.01563
    61)     2.75000000E-02 -1.97500000E-01 -1.72500000E-01       0.01563
    62)     2.77500000E-01 -1.97500000E-01 -1.72500000E-01       0.01563
    63)    -4.72500000E-01 -1.97500000E-01 -1.72500000E-01       0.01563
    64)    -2.22500000E-01 -1.97500000E-01 -1.72500000E-01       0.01563

 Together with 48 symmetry operations and time-reversal symmetry 
 yields    64 points in the full Brillouin Zone.


 ==== Q-mesh for the screening function ====
 Number of points in the irreducible wedge :     8
 Reduced coordinates and weights : 

     1)     0.00000000E+00  0.00000000E+00  0.00000000E+00       0.01563
     2)     2.50000000E-01  0.00000000E+00  0.00000000E+00       0.12500
     3)     5.00000000E-01  0.00000000E+00  0.00000000E+00       0.06250
     4)     2.50000000E-01  2.50000000E-01  0.00000000E+00       0.09375
     5)     5.00000000E-01  2.50000000E-01  0.00000000E+00       0.37500
     6)    -2.50000000E-01  2.50000000E-01  0.00000000E+00       0.18750
     7)     5.00000000E-01  5.00000000E-01  0.00000000E+00       0.04688
     8)    -2.50000000E-01  5.00000000E-01  2.50000000E-01       0.09375

 Together with 48 symmetry operations and time-reversal symmetry 
 yields    64 points in the full Brillouin Zone.


 setmesh: FFT mesh size selected  =  20x 20x 20
          total number of points  =     8000

 ==== Fundamental parameters for the solution of the Bethe-Salpeter equation: ====
 Algorithm: Haydock technique.
 Dimension of the v, W matrices,  npweps  = 27
 Cutoff for the wavefunctions,    npwwfn  = 259
 Number of k-points in the IBZ,   nkibz   = 64
 Highest empty band included,     nband   = 8
 === Spin UP ===
 Number of resonant transitions          768
 Lowest occupied state                   2
 Highest occupied state                  4
 Lowest unoccupied state                 5
 Highest unoccupied state                8
 Minimum frequency [eV]           Emin    =   0.00
 Maximum frequency [eV]           Emax    =   6.00
 Frequency step [eV]              dE      =   0.02
 Lorentzian broadening [eV]       eta     =   0.15
 RPA L0 with KS energies and KS wavefunctions
 Scissors operator energy [eV] =          0.80
 Local fields effects (v term) included
 Excitonic effects (W term) included
 Full W_GG' included
 W is read from an external SCR file
 Resonant-only calculation (Hermitian case)


 Calculating epsilon_Macro(q-->0,w), along the following directions:
 q = (  0.938821  0.000000  0.000000) [r.l.u.]
 q = (  0.000000  0.938821  0.000000) [r.l.u.]
 q = (  0.000000  0.000000  0.938821) [r.l.u.]
 q = (  0.000000  0.813043  0.813043) [r.l.u.]
 q = (  0.813043  0.000000  0.813043) [r.l.u.]
 q = (  0.813043  0.813043  0.000000) [r.l.u.]

 k       eigenvalues [eV]
  1         -6.08   5.46   5.71   5.88   8.42   8.69   8.70   9.61
  2         -5.37   2.26   4.60   5.37   8.33   9.17   9.69  11.91
  3         -3.71  -1.08   4.26   4.64   7.81   9.17   9.47  13.70
  4         -5.17   1.69   4.66   5.07   8.21   9.17   9.87  11.89
  5         -5.16   1.66   4.64   5.08   8.20   9.17   9.86  11.93
  6         -4.98   2.16   3.85   4.09   7.29   9.17  11.25  11.60
  7         -3.36  -0.37   2.26   3.41   7.72   9.89  11.11  12.93
  8         -3.81   0.17   1.98   4.16   8.65  10.07  11.09  12.16
  9         -3.72  -1.08   4.27   4.64   7.81   9.17   9.47  13.70
 10         -3.27  -0.63   2.26   3.56   7.92  10.45  11.00  12.40
 11         -1.95  -1.87   2.71   3.04   6.63   7.04  15.44  15.58
 12         -3.39  -0.35   2.28   3.42   7.73   9.90  11.08  12.89
 13         -5.38   2.29   4.62   5.37   8.33   9.16   9.70  11.87
 14         -4.19   0.64   2.31   4.41   8.92   9.63  10.83  11.70
 15         -3.30  -0.61   2.28   3.58   7.93  10.43  11.00  12.36
 16         -5.00   2.20   3.87   4.12   7.30   9.21  11.21  11.55
 17         -4.96   1.08   4.71   5.08   7.92   9.30   9.65  12.74
 18         -4.76   1.81   3.63   3.90   7.10   8.76  11.69  12.14
 19         -3.14  -0.54   2.15   3.34   7.28   9.27  12.10  13.38
 20         -3.65  -0.09   1.90   4.19   8.27  10.48  11.74  12.01
 21         -4.54   1.46   3.61   3.67   6.76   8.28  12.48  12.62
 22         -4.95   1.05   4.73   5.07   7.90   9.30   9.64  12.78
 23         -3.83  -0.06   2.24   4.44   8.24  10.36  11.01  12.50
 24         -2.84  -0.88   1.89   3.43   7.10   9.59  12.60  13.24
 25         -2.83  -0.88   1.89   3.43   7.12   9.64  12.54  13.24
 26         -3.63  -0.11   1.88   4.20   8.24  10.53  11.77  12.03
 27         -3.27  -0.86   2.45   3.94   7.72  10.60  11.28  12.02
 28         -2.31  -1.23   1.78   2.40   9.77   9.84  10.57  12.18
 29         -3.84  -0.04   2.25   4.44   8.26  10.31  11.02  12.44
 30         -3.15  -0.53   2.16   3.34   7.25   9.22  12.16  13.38
 31         -2.08  -1.47   1.96   2.22   9.24   9.35  11.43  12.34
 32         -3.29  -0.86   2.48   3.95   7.74  10.56  11.25  12.03
 33         -3.87  -0.91   4.52   4.71   7.63   9.21   9.39  13.58
 34         -3.06  -0.86   2.05   3.66   7.67  10.85  11.40  12.30
 35         -2.31  -1.50   2.89   2.93   6.71   6.88  15.14  15.66
 36         -3.74   0.06   2.60   3.59   7.53   9.58  11.27  12.46
 37         -2.84  -0.94   1.79   3.60   7.31  10.64  11.98  12.68
 38         -3.46  -0.24   1.66   4.17   7.93  11.25  12.00  12.27
 39         -3.06  -0.87   2.06   3.68   7.66  10.87  11.44  12.24
 40         -2.30  -1.25   1.70   2.49   9.62  10.10  11.02  11.64
 41         -2.70  -1.10   3.03   3.05   6.48   6.84  15.17  15.37
 42         -2.85  -0.95   1.79   3.61   7.31  10.69  11.98  12.62
 43         -3.88  -0.90   4.54   4.72   7.62   9.22   9.38  13.58
 44         -3.97   0.16   2.94   3.83   7.60  10.17  10.90  11.59
 45         -3.96   0.14   2.93   3.83   7.62  10.21  10.85  11.58
 46         -2.29  -1.26   1.70   2.49   9.58  10.14  11.06  11.60
 47         -3.75   0.07   2.61   3.59   7.50   9.54  11.32  12.46
 48         -4.61   1.19   2.68   4.95   8.74   9.87  10.60  11.43
 49         -5.59   2.91   5.04   5.45   8.27   9.06   9.53  11.71
 50         -4.39   0.81   2.57   4.69   8.79   9.66  10.99  11.30
 51         -3.51  -0.61   2.70   3.88   7.91  10.17  11.42  11.58
 52         -5.21   2.67   4.02   4.39   7.42   9.52  10.86  11.19
 53         -4.21   0.38   2.61   4.69   8.50   9.94  10.63  12.11
 54         -3.50  -0.13   2.46   3.45   7.12   8.90  12.34  12.94
 55         -1.95  -1.60   1.85   2.33   8.88   9.71  11.83  11.94
 56         -3.51  -0.62   2.71   3.90   7.90  10.17  11.37  11.63
 57         -3.82  -0.27   3.03   3.98   7.81  10.31  11.09  11.20
 58         -2.18  -1.36   1.68   2.50   9.06  10.56  11.35  11.40
 59         -3.53  -0.10   2.48   3.46   7.13   8.91  12.30  12.90
 60         -4.41   0.84   2.59   4.72   8.78   9.67  10.95  11.32
 61         -5.43   3.26   4.38   4.50   7.40   9.79  10.73  10.80
 62         -3.81  -0.29   3.04   3.99   7.81  10.30  11.05  11.25
 63         -4.23   0.41   2.62   4.71   8.50   9.95  10.59  12.13
 64         -5.60   2.94   5.06   5.46   8.26   9.06   9.50  11.71
 Number of electrons calculated from density =    7.9999; Expected =    8.0000
 average of density, n =  0.030004
 r_s =    1.9964
 omega_plasma =   16.7087 [eV]

. Writing resonant excitonic Hamiltonian on file tbs_2o_BSR; file size=   0.00 [Gb].
 Writing KS-RPA macroscopic dielectric function without local fields to file: tbs_2o_RPA_NLF_MDF
 Writing GW-RPA macroscopic dielectric function without local fields to file: tbs_2o_GW_NLF_MDF
 >>> Haydock algorithm converged twice within haydock_tol=   5.00E-02 after 53 iterations.
 >>> Haydock algorithm converged twice within haydock_tol=   5.00E-02 after 53 iterations.
 >>> Haydock algorithm converged twice within haydock_tol=   5.00E-02 after 66 iterations.
 >>> Haydock algorithm converged twice within haydock_tol=   5.00E-02 after 53 iterations.
 >>> Haydock algorithm converged twice within haydock_tol=   5.00E-02 after 49 iterations.
 >>> Haydock algorithm converged twice within haydock_tol=   5.00E-02 after 52 iterations.
 Writing EXC Macroscopic dielectric function to file: tbs_2o_EXC_MDF
  
 Macroscopic dielectric function:
 omega [eV] <KS_RPA_nlf>  <GW_RPA_nlf>  <BSE> 
   0.0000  17.5812   0.0000  14.5696   0.0000  16.4069   0.0000
   0.0200  17.5817   0.0081  14.5699   0.0043  16.4074   0.0063
   0.0400  17.5833   0.0162  14.5707   0.0086  16.4086   0.0126
   0.0600  17.5860   0.0243  14.5722   0.0129  16.4107   0.0189
   0.0800  17.5898   0.0325  14.5742   0.0171  16.4136   0.0253
   0.1000  17.5946   0.0406  14.5767   0.0214  16.4174   0.0316
   0.1200  17.6005   0.0488  14.5798   0.0257  16.4220   0.0380
   0.1400  17.6075   0.0569  14.5835   0.0300  16.4274   0.0443
   0.1600  17.6156   0.0651  14.5878   0.0344  16.4337   0.0507
   0.1800  17.6247   0.0734  14.5927   0.0387  16.4409   0.0571
  

== END DATASET(S) ==============================================================
================================================================================
  
 -outvars: echo values of variables after computation  --------
            acell      1.0217000000E+01  1.0217000000E+01  1.0217000000E+01 Bohr
              amu      2.80855000E+01
     bs_algorithm           2
      bs_coupling           0
     bs_freq_mesh      0.00000000E+00  2.20495952E-01  7.34986508E-04 Hartree
 bs_haydock_niter         200
   bs_haydock_tol      5.00000000E-02  0.00000000E+00
        bs_loband           2
      chksymbreak           0
           diemac      1.20000000E+01
             ecut      7.56385066E+00 Hartree
          ecuteps      1.51277013E+00 Hartree
          ecutwfn      7.56385066E+00 Hartree
           etotal      0.0000000000E+00
            fcart      0.0000000000E+00  0.0000000000E+00  0.0000000000E+00
                       0.0000000000E+00  0.0000000000E+00  0.0000000000E+00
-          fftalg         112
         icutcoul           3
          inclvkb           2
           irdkss           1
           irdscr           1
              kpt      2.75000000E-02  5.25000000E-02  7.75000000E-02
                       2.77500000E-01  5.25000000E-02  7.75000000E-02
                      -4.72500000E-01  5.25000000E-02  7.75000000E-02
                      -2.22500000E-01  5.25000000E-02  7.75000000E-02
                       2.75000000E-02  3.02500000E-01  7.75000000E-02
                       2.77500000E-01  3.02500000E-01  7.75000000E-02
                      -4.72500000E-01  3.02500000E-01  7.75000000E-02
                      -2.22500000E-01  3.02500000E-01  7.75000000E-02
                       2.75000000E-02 -4.47500000E-01  7.75000000E-02
                       2.77500000E-01 -4.47500000E-01  7.75000000E-02
                      -4.72500000E-01 -4.47500000E-01  7.75000000E-02
                      -2.22500000E-01 -4.47500000E-01  7.75000000E-02
                       2.75000000E-02 -1.97500000E-01  7.75000000E-02
                       2.77500000E-01 -1.97500000E-01  7.75000000E-02
                      -4.72500000E-01 -1.97500000E-01  7.75000000E-02
                      -2.22500000E-01 -1.97500000E-01  7.75000000E-02
                       2.75000000E-02  5.25000000E-02  3.27500000E-01
                       2.77500000E-01  5.25000000E-02  3.27500000E-01
                      -4.72500000E-01  5.25000000E-02  3.27500000E-01
                      -2.22500000E-01  5.25000000E-02  3.27500000E-01
                       2.75000000E-02  3.02500000E-01  3.27500000E-01
                       2.77500000E-01  3.02500000E-01  3.27500000E-01
                      -4.72500000E-01  3.02500000E-01  3.27500000E-01
                      -2.22500000E-01  3.02500000E-01  3.27500000E-01
                       2.75000000E-02 -4.47500000E-01  3.27500000E-01
                       2.77500000E-01 -4.47500000E-01  3.27500000E-01
                      -4.72500000E-01 -4.47500000E-01  3.27500000E-01
                      -2.22500000E-01 -4.47500000E-01  3.27500000E-01
                       2.75000000E-02 -1.97500000E-01  3.27500000E-01
                       2.77500000E-01 -1.97500000E-01  3.27500000E-01
                      -4.72500000E-01 -1.97500000E-01  3.27500000E-01
                      -2.22500000E-01 -1.97500000E-01  3.27500000E-01
                       2.75000000E-02  5.25000000E-02 -4.22500000E-01
                       2.77500000E-01  5.25000000E-02 -4.22500000E-01
                      -4.72500000E-01  5.25000000E-02 -4.22500000E-01
                      -2.22500000E-01  5.25000000E-02 -4.22500000E-01
                       2.75000000E-02  3.02500000E-01 -4.22500000E-01
                       2.77500000E-01  3.02500000E-01 -4.22500000E-01
                      -4.72500000E-01  3.02500000E-01 -4.22500000E-01
                      -2.22500000E-01  3.02500000E-01 -4.22500000E-01
                       2.75000000E-02 -4.47500000E-01 -4.22500000E-01
                       2.77500000E-01 -4.47500000E-01 -4.22500000E-01
                      -4.72500000E-01 -4.47500000E-01 -4.22500000E-01
                      -2.22500000E-01 -4.47500000E-01 -4.22500000E-01
                       2.75000000E-02 -1.97500000E-01 -4.22500000E-01
                       2.77500000E-01 -1.97500000E-01 -4.22500000E-01
                      -4.72500000E-01 -1.97500000E-01 -4.22500000E-01
                      -2.22500000E-01 -1.97500000E-01 -4.22500000E-01
                       2.75000000E-02  5.25000000E-02 -1.72500000E-01
                       2.77500000E-01  5.25000000E-02 -1.72500000E-01
                       outvar_i_n : Printing only first  50 k-points.
         kptrlatt        4    0    0      0    4    0      0    0    4
          kptrlen      2.88980399E+01
P           mkmem          64
            natom           2
            nband           8
            ngfft          18      18      18
             nkpt          64
           npweps          27
           npwwfn         283
           nsheps           4
            nstep          50
             nsym          48
           ntypat           1
              occ      2.000000  2.000000  2.000000  2.000000  0.000000  0.000000
                       0.000000  0.000000
        optdriver          99
            rprim      0.0000000000E+00  5.0000000000E-01  5.0000000000E-01
                       5.0000000000E-01  0.0000000000E+00  5.0000000000E-01
                       5.0000000000E-01  5.0000000000E-01  0.0000000000E+00
           shiftk      1.10000000E-01  2.10000000E-01  3.10000000E-01
         soenergy      2.93994603E-02 Hartree
          spgroup         227
           strten      0.0000000000E+00  0.0000000000E+00  0.0000000000E+00
                       0.0000000000E+00  0.0000000000E+00  0.0000000000E+00
           symrel      1  0  0   0  1  0   0  0  1      -1  0  0   0 -1  0   0  0 -1
                       0 -1  1   0 -1  0   1 -1  0       0  1 -1   0  1  0  -1  1  0
                      -1  0  0  -1  0  1  -1  1  0       1  0  0   1  0 -1   1 -1  0
                       0  1 -1   1  0 -1   0  0 -1       0 -1  1  -1  0  1   0  0  1
                      -1  0  0  -1  1  0  -1  0  1       1  0  0   1 -1  0   1  0 -1
                       0 -1  1   1 -1  0   0 -1  0       0  1 -1  -1  1  0   0  1  0
                       1  0  0   0  0  1   0  1  0      -1  0  0   0  0 -1   0 -1  0
                       0  1 -1   0  0 -1   1  0 -1       0 -1  1   0  0  1  -1  0  1
                      -1  0  1  -1  1  0  -1  0  0       1  0 -1   1 -1  0   1  0  0
                       0 -1  0   1 -1  0   0 -1  1       0  1  0  -1  1  0   0  1 -1
                       1  0 -1   0  0 -1   0  1 -1      -1  0  1   0  0  1   0 -1  1
                       0  1  0   0  0  1   1  0  0       0 -1  0   0  0 -1  -1  0  0
                       1  0 -1   0  1 -1   0  0 -1      -1  0  1   0 -1  1   0  0  1
                       0 -1  0   0 -1  1   1 -1  0       0  1  0   0  1 -1  -1  1  0
                      -1  0  1  -1  0  0  -1  1  0       1  0 -1   1  0  0   1 -1  0
                       0  1  0   1  0  0   0  0  1       0 -1  0  -1  0  0   0  0 -1
                       0  0 -1   0  1 -1   1  0 -1       0  0  1   0 -1  1  -1  0  1
                       1 -1  0   0 -1  1   0 -1  0      -1  1  0   0  1 -1   0  1  0
                       0  0  1   1  0  0   0  1  0       0  0 -1  -1  0  0   0 -1  0
                      -1  1  0  -1  0  0  -1  0  1       1 -1  0   1  0  0   1  0 -1
                       0  0  1   0  1  0   1  0  0       0  0 -1   0 -1  0  -1  0  0
                       1 -1  0   0 -1  0   0 -1  1      -1  1  0   0  1  0   0  1 -1
                       0  0 -1   1  0 -1   0  1 -1       0  0  1  -1  0  1   0 -1  1
                      -1  1  0  -1  0  1  -1  0  0       1 -1  0   1  0 -1   1  0  0
            tnons      0.0000000  0.0000000  0.0000000     0.2500000  0.2500000  0.2500000
                       0.0000000  0.0000000  0.0000000     0.2500000  0.2500000  0.2500000
                       0.0000000  0.0000000  0.0000000     0.2500000  0.2500000  0.2500000
                       0.0000000  0.0000000  0.0000000     0.2500000  0.2500000  0.2500000
                       0.0000000  0.0000000  0.0000000     0.2500000  0.2500000  0.2500000
                       0.0000000  0.0000000  0.0000000     0.2500000  0.2500000  0.2500000
                       0.0000000  0.0000000  0.0000000     0.2500000  0.2500000  0.2500000
                       0.0000000  0.0000000  0.0000000     0.2500000  0.2500000  0.2500000
                       0.0000000  0.0000000  0.0000000     0.2500000  0.2500000  0.2500000
                       0.0000000  0.0000000  0.0000000     0.2500000  0.2500000  0.2500000
                       0.0000000  0.0000000  0.0000000     0.2500000  0.2500000  0.2500000
                       0.0000000  0.0000000  0.0000000     0.2500000  0.2500000  0.2500000
                       0.0000000  0.0000000  0.0000000     0.2500000  0.2500000  0.2500000
                       0.0000000  0.0000000  0.0000000     0.2500000  0.2500000  0.2500000
                       0.0000000  0.0000000  0.0000000     0.2500000  0.2500000  0.2500000
                       0.0000000  0.0000000  0.0000000     0.2500000  0.2500000  0.2500000
                       0.0000000  0.0000000  0.0000000     0.2500000  0.2500000  0.2500000
                       0.0000000  0.0000000  0.0000000     0.2500000  0.2500000  0.2500000
                       0.0000000  0.0000000  0.0000000     0.2500000  0.2500000  0.2500000
                       0.0000000  0.0000000  0.0000000     0.2500000  0.2500000  0.2500000
                       0.0000000  0.0000000  0.0000000     0.2500000  0.2500000  0.2500000
                       0.0000000  0.0000000  0.0000000     0.2500000  0.2500000  0.2500000
                       0.0000000  0.0000000  0.0000000     0.2500000  0.2500000  0.2500000
                       0.0000000  0.0000000  0.0000000     0.2500000  0.2500000  0.2500000
            typat      1  1
              wtk        0.01563    0.01563    0.01563    0.01563    0.01563    0.01563
                         0.01563    0.01563    0.01563    0.01563    0.01563    0.01563
                         0.01563    0.01563    0.01563    0.01563    0.01563    0.01563
                         0.01563    0.01563    0.01563    0.01563    0.01563    0.01563
                         0.01563    0.01563    0.01563    0.01563    0.01563    0.01563
                         0.01563    0.01563    0.01563    0.01563    0.01563    0.01563
                         0.01563    0.01563    0.01563    0.01563    0.01563    0.01563
                         0.01563    0.01563    0.01563    0.01563    0.01563    0.01563
                         0.01563    0.01563
                       outvars : Printing only first  50 k-points.
           xangst      0.0000000000E+00  0.0000000000E+00  0.0000000000E+00
                       1.3516508850E+00  1.3516508850E+00  1.3516508850E+00
            xcart      0.0000000000E+00  0.0000000000E+00  0.0000000000E+00
                       2.5542500000E+00  2.5542500000E+00  2.5542500000E+00
             xred      0.0000000000E+00  0.0000000000E+00  0.0000000000E+00
                       2.5000000000E-01  2.5000000000E-01  2.5000000000E-01
             zcut      5.51239881E-03 Hartree
            znucl       14.00000

================================================================================


- Timing analysis has been suppressed with timopt=0



================================================================================

 Suggested references for the acknowledgment of ABINIT usage.

 The users of ABINIT have little formal obligations with respect to the ABINIT group
 (those specified in the GNU General Public License, http://www.gnu.org/copyleft/gpl.txt).
 However, it is common practice in the scientific literature,
 to acknowledge the efforts of people that have made the research possible.
 In this spirit, please find below suggested citations of work written by ABINIT developers,
 corresponding to implementations inside of ABINIT that you have used in the present run.
 Note also that it will be of great value to readers of publications presenting these results,
 to read papers enabling them to understand the theoretical formalism and details
 of the ABINIT implementation.
 For information on why they are suggested, see also http://www.abinit.org/about/?text=acknowledgments.

 [1] ABINIT : First-principles approach of materials and nanosystem properties.
 X. Gonze, B. Amadon, P.-M. Anglade, J.-M. Beuken, F. Bottin, P. Boulanger, F. Bruneval,
 D. Caliste, R. Caracas, M. Cote, T. Deutsch, L. Genovese, Ph. Ghosez, M. Giantomassi
 S. Goedecker, D.R. Hamann, P. Hermet, F. Jollet, G. Jomard, S. Leroux, M. Mancini, S. Mazevet,
 M.J.T. Oliveira, G. Onida, Y. Pouillon, T. Rangel, G.-M. Rignanese, D. Sangalli, R. Shaltaf,
 M. Torrent, M.J. Verstraete, G. Zerah, J.W. Zwanziger
 Computer Phys. Comm. 180, 2582-2615 (2009).
 Comment : the third generic paper describing the ABINIT project.
 Note that a version of this paper, that is not formatted for Computer Phys. Comm. 
 is available at http://www.abinit.org/about/ABINIT_CPC_v10.pdf .
 The licence allows the authors to put it on the Web.

 [2] A brief introduction to the ABINIT software package.
 X. Gonze, G.-M. Rignanese, M. Verstraete, J.-M. Beuken, Y. Pouillon, R. Caracas, F. Jollet,
 M. Torrent, G. Zerah, M. Mikami, Ph. Ghosez, M. Veithen, J.-Y. Raty, V. Olevano, F. Bruneval,
 L. Reining, R. Godby, G. Onida, D.R. Hamann, and D.C. Allan.
 Z. Kristallogr. 220, 558-562 (2005).
 Comment : the second generic paper describing the ABINIT project. Note that this paper
 should be cited especially if you are using the GW part of ABINIT, as several authors
 of this part are not in the list of authors of the first or third paper.
 The .pdf of the latter paper is available at http://www.abinit.org/about/zfk_0505-06_558-562.pdf.
 Note that it should not redistributed (Copyright by Oldenburg Wissenshaftverlag,
 the licence allows the authors to put it on the Web).


 And optionally :

 [3] First-principles computation of material properties : the ABINIT software project. 
 X. Gonze, J.-M. Beuken, R. Caracas, F. Detraux, M. Fuchs, G.-M. Rignanese, L. Sindic,
 M. Verstraete, G. Zerah, F. Jollet, M. Torrent, A. Roy, M. Mikami, Ph. Ghosez, J.-Y. Raty, D.C. Allan.
 Computational Materials Science 25, 478-492 (2002). http://dx.doi.org/10.1016/S0927-0256(02)00325-7
 Comment : the original paper describing the ABINIT project.

 [4] Fast radix 2, 3, 4 and 5 kernels for Fast Fourier Transformations
 on computers with overlapping multiply-add instructions.
 S. Goedecker, SIAM J. on Scientific Computing 18, 1605 (1997).
-
- Proc.   0 individual time (sec): cpu=         78.9  wall=         79.6

================================================================================

 Calculation completed.
.Delivered    8 WARNINGs and  13 COMMENTs to log file.
+Overall time at end (sec) : cpu=         78.9  wall=         79.6
