
.Version 7.9.3 of ABINIT 
.(MPI version, prepared for a x86_64_linux_gnu4.7 computer) 

.Copyright (C) 1998-2014 ABINIT group . 
 ABINIT comes with ABSOLUTELY NO WARRANTY.
 It is free software, and you are welcome to redistribute it
 under certain conditions (GNU General Public License,
 see ~abinit/COPYING or http://www.gnu.org/copyleft/gpl.txt).

 ABINIT is a project of the Universite Catholique de Louvain,
 Corning Inc. and other collaborators, see ~abinit/doc/developers/contributors.txt .
 Please read ~abinit/doc/users/acknowledgments.html for suggested
 acknowledgments of the ABINIT effort.
 For more information, see http://www.abinit.org .

.Starting date : Sat 30 Aug 2014.
- ( at 22h27 )
  
- input  file    -> tgw2_3.in
- output file    -> tgw2_3.out
- root for input  files -> tgw2_3i
- root for output files -> tgw2_3o


 Symmetries : space group Fm -3 m (#225); Bravais cF (face-center cubic)
================================================================================
 Values of the parameters that define the memory need of the present run
   intxc =         0  ionmov =         0    iscf =         7 xclevel =         1
  lmnmax =         3   lnmax =         3   mband =        30  mffmem =         1
P  mgfft =        15   mkmem =         8 mpssoang=         3     mpw =        92
  mqgrid =      3001   natom =         1    nfft =      3375    nkpt =         8
  nloalg =         4  nspden =         1 nspinor =         1  nsppol =         1
    nsym =        48  n1xccc =         0  ntypat =         1  occopt =         3
================================================================================
P This job should need less than                       2.532 Mbytes of memory.
  Rough estimation (10% accuracy) of disk space for files :
_ WF disk file :      0.339 Mbytes ; DEN or POT disk file :      0.028 Mbytes.
================================================================================

--------------------------------------------------------------------------------
------------- Echo of variables that govern the present computation ------------
--------------------------------------------------------------------------------
-
- outvars: echo of selected default values                                      
-   accesswff0 =  0 , fftalg0 =112 , wfoptalg0 =  0
-
- outvars: echo of global parameters not present in the input file              
-  max_nthreads =    0
-
 -outvars: echo values of preprocessed input variables --------
            acell      7.6520000000E+00  7.6520000000E+00  7.6520000000E+00 Bohr
              amu      2.69815390E+01
             bdgw           1       1       2       2       1       2       1       1
                            1       3       1       3       1       5       1       4
             ecut      6.40521068E+00 Hartree
         ecutsigx      6.40521068E+00 Hartree
          ecutwfn      6.40521068E+00 Hartree
           enunit           1
-          fftalg         112
        gwcalctyp          12
         icutcoul           3
           istwfk        1    0    1    0    0    0    1    0
              ixc           7
              kpt      0.00000000E+00  0.00000000E+00  0.00000000E+00
                       2.50000000E-01  0.00000000E+00  0.00000000E+00
                       5.00000000E-01  0.00000000E+00  0.00000000E+00
                       2.50000000E-01  2.50000000E-01  0.00000000E+00
                       5.00000000E-01  2.50000000E-01  0.00000000E+00
                      -2.50000000E-01  2.50000000E-01  0.00000000E+00
                       5.00000000E-01  5.00000000E-01  0.00000000E+00
                      -2.50000000E-01  5.00000000E-01  2.50000000E-01
            kptgw      0.00000000E+00  0.00000000E+00  0.00000000E+00
                       2.50000000E-01  0.00000000E+00  0.00000000E+00
                       5.00000000E-01  0.00000000E+00  0.00000000E+00
                       2.50000000E-01  2.50000000E-01  0.00000000E+00
                       5.00000000E-01  2.50000000E-01  0.00000000E+00
                      -2.50000000E-01  2.50000000E-01  0.00000000E+00
                       5.00000000E-01  5.00000000E-01  0.00000000E+00
                      -2.50000000E-01  5.00000000E-01  2.50000000E-01
         kptrlatt        4    0    0      0    4    0      0    0    4
          kptrlen      2.16431244E+01
P           mkmem           8
            natom           1
            nband          30
            ngfft          15      15      15
             nkpt           8
           nkptgw           8
          npwsigx          89
           npwwfn          89
          nshsigx           8
            nstep          50
             nsym          48
           ntypat           1
              occ      2.000000  1.000000  0.000000  0.000000  0.000000  0.000000
                       0.000000  0.000000  0.000000  0.000000  0.000000  0.000000
                       0.000000  0.000000  0.000000  0.000000  0.000000  0.000000
                       0.000000  0.000000  0.000000  0.000000  0.000000  0.000000
                       0.000000  0.000000  0.000000  0.000000  0.000000  0.000000
                       2.000000  1.000000  0.000000  0.000000  0.000000  0.000000
                       0.000000  0.000000  0.000000  0.000000  0.000000  0.000000
                       0.000000  0.000000  0.000000  0.000000  0.000000  0.000000
                       0.000000  0.000000  0.000000  0.000000  0.000000  0.000000
                       0.000000  0.000000  0.000000  0.000000  0.000000  0.000000
                       2.000000  1.000000  0.000000  0.000000  0.000000  0.000000
                       0.000000  0.000000  0.000000  0.000000  0.000000  0.000000
                       0.000000  0.000000  0.000000  0.000000  0.000000  0.000000
                       0.000000  0.000000  0.000000  0.000000  0.000000  0.000000
                       0.000000  0.000000  0.000000  0.000000  0.000000  0.000000
                       2.000000  1.000000  0.000000  0.000000  0.000000  0.000000
                       0.000000  0.000000  0.000000  0.000000  0.000000  0.000000
                       0.000000  0.000000  0.000000  0.000000  0.000000  0.000000
                       0.000000  0.000000  0.000000  0.000000  0.000000  0.000000
                       0.000000  0.000000  0.000000  0.000000  0.000000  0.000000
                       2.000000  1.000000  0.000000  0.000000  0.000000  0.000000
                       0.000000  0.000000  0.000000  0.000000  0.000000  0.000000
                       0.000000  0.000000  0.000000  0.000000  0.000000  0.000000
                       0.000000  0.000000  0.000000  0.000000  0.000000  0.000000
                       0.000000  0.000000  0.000000  0.000000  0.000000  0.000000
                       2.000000  1.000000  0.000000  0.000000  0.000000  0.000000
                       0.000000  0.000000  0.000000  0.000000  0.000000  0.000000
                       0.000000  0.000000  0.000000  0.000000  0.000000  0.000000
                       0.000000  0.000000  0.000000  0.000000  0.000000  0.000000
                       0.000000  0.000000  0.000000  0.000000  0.000000  0.000000
                       2.000000  1.000000  0.000000  0.000000  0.000000  0.000000
                       0.000000  0.000000  0.000000  0.000000  0.000000  0.000000
                       0.000000  0.000000  0.000000  0.000000  0.000000  0.000000
                       0.000000  0.000000  0.000000  0.000000  0.000000  0.000000
                       0.000000  0.000000  0.000000  0.000000  0.000000  0.000000
                       2.000000  1.000000  0.000000  0.000000  0.000000  0.000000
                       0.000000  0.000000  0.000000  0.000000  0.000000  0.000000
                       0.000000  0.000000  0.000000  0.000000  0.000000  0.000000
                       0.000000  0.000000  0.000000  0.000000  0.000000  0.000000
                       0.000000  0.000000  0.000000  0.000000  0.000000  0.000000
           occopt           3
        optdriver           4
           prtvol           5
            rprim      0.0000000000E+00  5.0000000000E-01  5.0000000000E-01
                       5.0000000000E-01  0.0000000000E+00  5.0000000000E-01
                       5.0000000000E-01  5.0000000000E-01  0.0000000000E+00
          spgroup         225
           symrel      1  0  0   0  1  0   0  0  1      -1  0  0   0 -1  0   0  0 -1
                       0 -1  1   0 -1  0   1 -1  0       0  1 -1   0  1  0  -1  1  0
                      -1  0  0  -1  0  1  -1  1  0       1  0  0   1  0 -1   1 -1  0
                       0  1 -1   1  0 -1   0  0 -1       0 -1  1  -1  0  1   0  0  1
                      -1  0  0  -1  1  0  -1  0  1       1  0  0   1 -1  0   1  0 -1
                       0 -1  1   1 -1  0   0 -1  0       0  1 -1  -1  1  0   0  1  0
                       1  0  0   0  0  1   0  1  0      -1  0  0   0  0 -1   0 -1  0
                       0  1 -1   0  0 -1   1  0 -1       0 -1  1   0  0  1  -1  0  1
                      -1  0  1  -1  1  0  -1  0  0       1  0 -1   1 -1  0   1  0  0
                       0 -1  0   1 -1  0   0 -1  1       0  1  0  -1  1  0   0  1 -1
                       1  0 -1   0  0 -1   0  1 -1      -1  0  1   0  0  1   0 -1  1
                       0  1  0   0  0  1   1  0  0       0 -1  0   0  0 -1  -1  0  0
                       1  0 -1   0  1 -1   0  0 -1      -1  0  1   0 -1  1   0  0  1
                       0 -1  0   0 -1  1   1 -1  0       0  1  0   0  1 -1  -1  1  0
                      -1  0  1  -1  0  0  -1  1  0       1  0 -1   1  0  0   1 -1  0
                       0  1  0   1  0  0   0  0  1       0 -1  0  -1  0  0   0  0 -1
                       0  0 -1   0  1 -1   1  0 -1       0  0  1   0 -1  1  -1  0  1
                       1 -1  0   0 -1  1   0 -1  0      -1  1  0   0  1 -1   0  1  0
                       0  0  1   1  0  0   0  1  0       0  0 -1  -1  0  0   0 -1  0
                      -1  1  0  -1  0  0  -1  0  1       1 -1  0   1  0  0   1  0 -1
                       0  0  1   0  1  0   1  0  0       0  0 -1   0 -1  0  -1  0  0
                       1 -1  0   0 -1  0   0 -1  1      -1  1  0   0  1  0   0  1 -1
                       0  0 -1   1  0 -1   0  1 -1       0  0  1  -1  0  1   0 -1  1
                      -1  1  0  -1  0  1  -1  0  0       1 -1  0   1  0 -1   1  0  0
           toldfe      1.00000000E-08 Hartree
           tsmear      5.00000000E-02 Hartree
            typat      1
              wtk        0.01563    0.12500    0.06250    0.09375    0.37500    0.18750
                         0.04688    0.09375
            znucl       13.00000

================================================================================

 chkinp: Checking input parameters for consistency.

================================================================================
== DATASET  1 ==================================================================
-   nproc =    1

 Exchange-correlation functional for the present dataset will be:
  LDA: Perdew-Wang 92 LSD fit to Ceperley-Alder data - ixc=7
 Citation for XC functional:
  J.P.Perdew and Y.Wang, PRB 45, 13244 (1992)

 SIGMA: Calculation of the GW corrections 

 Based on a program developped by R.W. Godby, V. Olevano, G. Onida, and L. Reining.
 Incorporated in ABINIT by V. Olevano, G.-M. Rignanese, and M. Torrent.
.Using double precision arithmetic ; gwpc =  8

 Real(R)+Recip(G) space primitive vectors, cartesian coordinates (Bohr,Bohr^-1):
 R(1)=  0.0000000  3.8260000  3.8260000  G(1)= -0.1306848  0.1306848  0.1306848
 R(2)=  3.8260000  0.0000000  3.8260000  G(2)=  0.1306848 -0.1306848  0.1306848
 R(3)=  3.8260000  3.8260000  0.0000000  G(3)=  0.1306848  0.1306848 -0.1306848
 Unit cell volume ucvol=  1.1201209E+02 bohr^3
 Angles (23,13,12)=  6.00000000E+01  6.00000000E+01  6.00000000E+01 degrees

--- Pseudopotential description ------------------------------------------------
- pspini: atom type   1  psp file is /home/gonze/ABINIT/ABINITv7.9.3/trunk/7.9.3-private/tests/Psps_for_tests/13al.981214.fhi
- pspatm: opening atomic psp file    /home/gonze/ABINIT/ABINITv7.9.3/trunk/7.9.3-private/tests/Psps_for_tests/13al.981214.fhi
- Aluminum, fhi98PP : Hamann-type, LDA CA PerdewWang, l=2 local
- 13.00000   3.00000    981214                znucl, zion, pspdat
    6    7    2    2       493   0.00000      pspcod,pspxc,lmax,lloc,mmax,r2well
  No XC core correction.
  1.024700          amesh (Hamman grid)
 pspatm: epsatm=    1.36305739
         --- l  ekb(1:nproj) -->
             0    1.768744
             1    0.900554
 pspatm: atomic psp has been read  and splines computed

   4.08917216E+00                                ecore*ucvol(ha*bohr**3)
--------------------------------------------------------------------------------

 ==== K-mesh for the wavefunctions ====
 Number of points in the irreducible wedge :     8
 Reduced coordinates and weights : 

     1)     0.00000000E+00  0.00000000E+00  0.00000000E+00       0.01563
     2)     2.50000000E-01  0.00000000E+00  0.00000000E+00       0.12500
     3)     5.00000000E-01  0.00000000E+00  0.00000000E+00       0.06250
     4)     2.50000000E-01  2.50000000E-01  0.00000000E+00       0.09375
     5)     5.00000000E-01  2.50000000E-01  0.00000000E+00       0.37500
     6)    -2.50000000E-01  2.50000000E-01  0.00000000E+00       0.18750
     7)     5.00000000E-01  5.00000000E-01  0.00000000E+00       0.04688
     8)    -2.50000000E-01  5.00000000E-01  2.50000000E-01       0.09375

 Together with 48 symmetry operations and time-reversal symmetry 
 yields    64 points in the full Brillouin Zone.


 ==== Q-mesh for screening function ====
 Number of points in the irreducible wedge :     8
 Reduced coordinates and weights : 

     1)     0.00000000E+00  0.00000000E+00  0.00000000E+00       0.01563
     2)     2.50000000E-01  0.00000000E+00  0.00000000E+00       0.12500
     3)     5.00000000E-01  0.00000000E+00  0.00000000E+00       0.06250
     4)     2.50000000E-01  2.50000000E-01  0.00000000E+00       0.09375
     5)     5.00000000E-01  2.50000000E-01  0.00000000E+00       0.37500
     6)    -2.50000000E-01  2.50000000E-01  0.00000000E+00       0.18750
     7)     5.00000000E-01  5.00000000E-01  0.00000000E+00       0.04688
     8)    -2.50000000E-01  5.00000000E-01  2.50000000E-01       0.09375

 Together with 48 symmetry operations and time-reversal symmetry 
 yields    64 points in the full Brillouin Zone.


 setmesh: FFT mesh size selected  =  15x 15x 15
          total number of points  =     3375


 k       eigenvalues [eV]
  1         -3.76  19.92  19.92  19.92  21.00  21.00  21.00  23.88  26.71  26.71
            29.15  31.73  31.73  31.73  38.00  60.59  60.59  60.59  63.51  63.51
            63.77  63.77  63.77  67.11  67.28  67.28  67.28  85.89  85.89  88.52

  2         -2.08  10.72  18.06  18.06  21.49  21.89  21.89  25.91  26.04  26.04
            31.63  37.67  39.40  39.40  44.61  47.79  47.79  51.58  63.24  63.24
            64.85  65.15  67.48  67.48  70.14  70.55  70.55  77.41  79.47  79.47

  3          2.78   2.92  18.41  18.41  18.77  18.77  22.18  22.53  32.20  32.20
            37.69  37.69  38.17  43.26  50.07  51.81  51.81  53.80  54.39  54.39
            58.45  59.03  65.67  65.67  67.47  68.68  71.46  71.46  73.76  73.76

  4         -1.52  14.71  14.71  14.83  15.49  18.03  28.77  28.93  28.93  33.47
            33.82  34.93  34.93  37.89  48.21  48.33  48.33  50.33  53.54  62.09
            63.95  66.65  66.65  68.09  68.17  68.17  69.76  80.67  80.72  80.72

  5          2.30   6.56  10.92  14.24  15.94  23.16  25.83  28.59  31.85  32.72
            38.44  39.65  41.91  44.66  45.38  48.18  50.49  51.18  53.26  55.40
            58.00  58.87  61.97  63.24  65.78  66.38  68.49  69.54  70.87  76.43

  6          0.68   8.56  10.00  16.64  18.62  24.28  24.64  25.80  28.18  32.64
            34.98  37.39  43.03  43.59  48.28  48.73  52.32  52.75  53.42  55.60
            58.41  60.23  61.72  63.08  65.18  69.51  70.14  70.23  77.94  78.27

  7          4.42   5.70  12.62  12.80  12.80  16.13  32.83  34.41  34.41  39.71
            39.79  39.79  40.39  42.30  47.98  47.98  48.33  48.33  48.84  49.36
            49.48  49.78  65.66  69.57  72.12  72.12  73.85  74.87  75.16  75.39

  8          6.49   6.49   7.54   8.26  23.04  23.04  23.32  25.45  34.65  39.48
            41.10  41.10  42.22  42.53  42.53  44.38  52.85  52.85  56.17  57.67
            59.27  59.57  59.83  60.28  60.38  60.38  62.85  62.85  75.52  76.87

 Number of electrons calculated from density =    2.9999; Expected =    3.0000
 average of density, n =  0.026782
 r_s =    2.0734
 omega_plasma =   15.7863 [eV]


 rdqps: reading QP wavefunctions of the previous step 
        looking for file tgw2_3i_QPS
 file not found, 1st iteration initialized with KS eigenelements 

 Number of electrons calculated from density =    2.9999; Expected =    3.0000
 average of density, n =  0.026782
 r_s =    2.0734
 omega_plasma =   15.7863 [eV]


--------------------------------------------------------------------------------

 QP results after the unitary transformation in the KS subspace: 

  Number of electrons    =    2.9999

  QP Band energy    [Ha] =  3.72160123532734E-01
  QP Hartree energy [Ha] =  3.57747806182207E-03

--------------------------------------------------------------------------------
 SIGMA fundamental parameters:
 CONTOUR DEFORMATION
 number of plane-waves for SigmaX                   89
 number of plane-waves for SigmaC and W             51
 number of plane-waves for wavefunctions            89
 number of bands                                    30
 number of independent spin polarizations            1
 number of spinorial components                      1
 number of k-points in IBZ                           8
 number of q-points in IBZ                           8
 number of symmetry operations                      48
 number of k-points in BZ                           64
 number of q-points in BZ                           64
 number of frequencies for dSigma/dE                 9
 frequency step for dSigma/dE [eV]                0.25
 number of omega for Sigma on real axis              0
 max omega for Sigma on real axis  [eV]           0.00
 zcut for avoiding poles [eV]                     0.10

 EPSILON^-1 parameters (SCR file):
 dimension of the eps^-1 matrix on file             51
 dimension of the eps^-1 matrix used                51
 number of plane-waves for wavefunctions            51
 number of bands                                    30
 number of q-points in IBZ                           8
 number of frequencies                              14
 number of real frequencies                         10
 number of imag frequencies                          4

 matrix elements of self-energy operator (all in [eV])

 Self-Consistent on Energies only

 k =    0.000   0.000   0.000
 Band     E_lda   <Vxclda>   E(N-1)  <Hhartree>   SigX  SigC[E(N-1)]    Z     dSigC/dE  Sig[E(N)]  DeltaE  E(N)_pert E(N)_diago
    1    -3.762    -9.451    -3.762     5.689   -15.045     5.664     0.777    -0.287    -9.397     0.054    -3.708    -3.692

 k =    0.250   0.000   0.000
 Band     E_lda   <Vxclda>   E(N-1)  <Hhartree>   SigX  SigC[E(N-1)]    Z     dSigC/dE  Sig[E(N)]  DeltaE  E(N)_pert E(N)_diago
    2    10.716    -9.474    10.716    20.190    -5.087    -4.292     0.705    -0.419    -9.408     0.067    10.783    10.811

 k =    0.500   0.000   0.000
 Band     E_lda   <Vxclda>   E(N-1)  <Hhartree>   SigX  SigC[E(N-1)]    Z     dSigC/dE  Sig[E(N)]  DeltaE  E(N)_pert E(N)_diago
    1     2.778    -9.407     2.778    12.185   -11.350     2.007     0.706    -0.416    -9.362     0.046     2.824     2.843
    2     2.924    -9.503     2.924    12.427   -11.218     1.851     0.706    -0.416    -9.407     0.096     3.020     3.060

 k =    0.250   0.250   0.000
 Band     E_lda   <Vxclda>   E(N-1)  <Hhartree>   SigX  SigC[E(N-1)]    Z     dSigC/dE  Sig[E(N)]  DeltaE  E(N)_pert E(N)_diago
    1    -1.525    -9.451    -1.525     7.926   -13.920     4.495     0.701    -0.426    -9.432     0.019    -1.506    -1.498

 k =    0.500   0.250   0.000
 Band     E_lda   <Vxclda>   E(N-1)  <Hhartree>   SigX  SigC[E(N-1)]    Z     dSigC/dE  Sig[E(N)]  DeltaE  E(N)_pert E(N)_diago
    1     2.300    -9.454     2.300    11.754   -11.661     2.316     0.691    -0.447    -9.378     0.076     2.376     2.410
    2     6.559    -9.465     6.559    16.023    -8.357    -1.014     0.705    -0.418    -9.399     0.066     6.624     6.652
    3    10.919    -9.434    10.919    20.353    -4.947    -4.359     0.716    -0.396    -9.343     0.091    11.010    11.046

 E^0_gap          4.360
 E^GW_gap         4.386
 DeltaE^GW_gap    0.026


 k =   -0.250   0.250   0.000
 Band     E_lda   <Vxclda>   E(N-1)  <Hhartree>   SigX  SigC[E(N-1)]    Z     dSigC/dE  Sig[E(N)]  DeltaE  E(N)_pert E(N)_diago
    1     0.678    -9.451     0.678    10.129   -12.660     3.347     0.677    -0.477    -9.358     0.094     0.771     0.816
    2     8.557    -9.517     8.557    18.074    -6.616    -2.813     0.711    -0.407    -9.454     0.063     8.620     8.646
    3     9.995    -9.387     9.995    19.382    -5.309    -3.960     0.715    -0.398    -9.302     0.084    10.080    10.113

 E^0_gap          7.879
 E^GW_gap         7.849
 DeltaE^GW_gap   -0.031


 k =    0.500   0.500   0.000
 Band     E_lda   <Vxclda>   E(N-1)  <Hhartree>   SigX  SigC[E(N-1)]    Z     dSigC/dE  Sig[E(N)]  DeltaE  E(N)_pert E(N)_diago
    1     4.420    -9.515     4.420    13.935   -10.479     0.967     0.711    -0.406    -9.513     0.002     4.422     4.423
    2     5.700    -9.363     5.700    15.063    -8.765    -0.453     0.714    -0.401    -9.260     0.103     5.804     5.845
    3    12.621    -9.563    12.621    22.184    -4.566    -4.802     0.707    -0.415    -9.425     0.138    12.759    12.811
    4    12.803    -9.478    12.803    22.281    -4.307    -5.163     0.694    -0.441    -9.472     0.005    12.809    12.812
    5    12.803    -9.478    12.803    22.281    -4.307    -5.162     0.694    -0.441    -9.472     0.006    12.809    12.816

 E^0_gap          6.920
 E^GW_gap         6.955
 DeltaE^GW_gap    0.035


 k =   -0.250   0.500   0.250
 Band     E_lda   <Vxclda>   E(N-1)  <Hhartree>   SigX  SigC[E(N-1)]    Z     dSigC/dE  Sig[E(N)]  DeltaE  E(N)_pert E(N)_diago
    1     6.487    -9.516     6.487    16.003    -8.624    -0.838     0.703    -0.423    -9.478     0.038     6.525     6.542
    2     6.487    -9.516     6.487    16.003    -8.624    -0.838     0.703    -0.423    -9.478     0.038     6.525     6.542
    3     7.537    -9.292     7.537    16.829    -7.094    -2.045     0.710    -0.408    -9.183     0.109     7.646     7.690
    4     8.261    -9.468     8.261    17.728    -6.547    -2.816     0.706    -0.417    -9.394     0.074     8.335     8.366

 E^0_gap          1.050
 E^GW_gap         1.120
 DeltaE^GW_gap    0.070


 New Fermi energy :        2.661900E-01 Ha ,    7.243398E+00 eV

 writing QP data on file : tgw2_3o_QPS

 Convergence of QP corrections
 >>>>> For spin  1 <<<<<
.  kptgw no:  1; Maximum DeltaE = (   0.054   1.170) for band index:  1
.  kptgw no:  2; Maximum DeltaE = (   0.000   0.000) for band index:  1
.  kptgw no:  3; Maximum DeltaE = (   0.096   0.085) for band index:  2
.  kptgw no:  4; Maximum DeltaE = (   0.019   0.450) for band index:  1
.  kptgw no:  5; Maximum DeltaE = (   0.076   0.124) for band index:  1
.  kptgw no:  6; Maximum DeltaE = (   0.094   0.245) for band index:  1
.  kptgw no:  7; Maximum DeltaE = (   0.138  -0.108) for band index:  3
.  kptgw no:  8; Maximum DeltaE = (   0.109   0.000) for band index:  3

== END DATASET(S) ==============================================================
================================================================================
  
 -outvars: echo values of variables after computation  --------
            acell      7.6520000000E+00  7.6520000000E+00  7.6520000000E+00 Bohr
              amu      2.69815390E+01
             bdgw           1       1       2       2       1       2       1       1
                            1       3       1       3       1       5       1       4
             ecut      6.40521068E+00 Hartree
         ecutsigx      6.40521068E+00 Hartree
          ecutwfn      6.40521068E+00 Hartree
           enunit           1
           etotal      0.0000000000E+00
            fcart      0.0000000000E+00  0.0000000000E+00  0.0000000000E+00
-          fftalg         112
        gwcalctyp          12
         icutcoul           3
           istwfk        1    0    1    0    0    0    1    0
              ixc           7
              kpt      0.00000000E+00  0.00000000E+00  0.00000000E+00
                       2.50000000E-01  0.00000000E+00  0.00000000E+00
                       5.00000000E-01  0.00000000E+00  0.00000000E+00
                       2.50000000E-01  2.50000000E-01  0.00000000E+00
                       5.00000000E-01  2.50000000E-01  0.00000000E+00
                      -2.50000000E-01  2.50000000E-01  0.00000000E+00
                       5.00000000E-01  5.00000000E-01  0.00000000E+00
                      -2.50000000E-01  5.00000000E-01  2.50000000E-01
            kptgw      0.00000000E+00  0.00000000E+00  0.00000000E+00
                       2.50000000E-01  0.00000000E+00  0.00000000E+00
                       5.00000000E-01  0.00000000E+00  0.00000000E+00
                       2.50000000E-01  2.50000000E-01  0.00000000E+00
                       5.00000000E-01  2.50000000E-01  0.00000000E+00
                      -2.50000000E-01  2.50000000E-01  0.00000000E+00
                       5.00000000E-01  5.00000000E-01  0.00000000E+00
                      -2.50000000E-01  5.00000000E-01  2.50000000E-01
         kptrlatt        4    0    0      0    4    0      0    0    4
          kptrlen      2.16431244E+01
P           mkmem           8
            natom           1
            nband          30
            ngfft          15      15      15
             nkpt           8
           nkptgw           8
          npwsigx          89
           npwwfn          89
          nshsigx           8
            nstep          50
             nsym          48
           ntypat           1
              occ      2.000000  1.000000  0.000000  0.000000  0.000000  0.000000
                       0.000000  0.000000  0.000000  0.000000  0.000000  0.000000
                       0.000000  0.000000  0.000000  0.000000  0.000000  0.000000
                       0.000000  0.000000  0.000000  0.000000  0.000000  0.000000
                       0.000000  0.000000  0.000000  0.000000  0.000000  0.000000
                       2.000000  1.000000  0.000000  0.000000  0.000000  0.000000
                       0.000000  0.000000  0.000000  0.000000  0.000000  0.000000
                       0.000000  0.000000  0.000000  0.000000  0.000000  0.000000
                       0.000000  0.000000  0.000000  0.000000  0.000000  0.000000
                       0.000000  0.000000  0.000000  0.000000  0.000000  0.000000
                       2.000000  1.000000  0.000000  0.000000  0.000000  0.000000
                       0.000000  0.000000  0.000000  0.000000  0.000000  0.000000
                       0.000000  0.000000  0.000000  0.000000  0.000000  0.000000
                       0.000000  0.000000  0.000000  0.000000  0.000000  0.000000
                       0.000000  0.000000  0.000000  0.000000  0.000000  0.000000
                       2.000000  1.000000  0.000000  0.000000  0.000000  0.000000
                       0.000000  0.000000  0.000000  0.000000  0.000000  0.000000
                       0.000000  0.000000  0.000000  0.000000  0.000000  0.000000
                       0.000000  0.000000  0.000000  0.000000  0.000000  0.000000
                       0.000000  0.000000  0.000000  0.000000  0.000000  0.000000
                       2.000000  1.000000  0.000000  0.000000  0.000000  0.000000
                       0.000000  0.000000  0.000000  0.000000  0.000000  0.000000
                       0.000000  0.000000  0.000000  0.000000  0.000000  0.000000
                       0.000000  0.000000  0.000000  0.000000  0.000000  0.000000
                       0.000000  0.000000  0.000000  0.000000  0.000000  0.000000
                       2.000000  1.000000  0.000000  0.000000  0.000000  0.000000
                       0.000000  0.000000  0.000000  0.000000  0.000000  0.000000
                       0.000000  0.000000  0.000000  0.000000  0.000000  0.000000
                       0.000000  0.000000  0.000000  0.000000  0.000000  0.000000
                       0.000000  0.000000  0.000000  0.000000  0.000000  0.000000
                       2.000000  1.000000  0.000000  0.000000  0.000000  0.000000
                       0.000000  0.000000  0.000000  0.000000  0.000000  0.000000
                       0.000000  0.000000  0.000000  0.000000  0.000000  0.000000
                       0.000000  0.000000  0.000000  0.000000  0.000000  0.000000
                       0.000000  0.000000  0.000000  0.000000  0.000000  0.000000
                       2.000000  1.000000  0.000000  0.000000  0.000000  0.000000
                       0.000000  0.000000  0.000000  0.000000  0.000000  0.000000
                       0.000000  0.000000  0.000000  0.000000  0.000000  0.000000
                       0.000000  0.000000  0.000000  0.000000  0.000000  0.000000
                       0.000000  0.000000  0.000000  0.000000  0.000000  0.000000
           occopt           3
        optdriver           4
           prtvol           5
            rprim      0.0000000000E+00  5.0000000000E-01  5.0000000000E-01
                       5.0000000000E-01  0.0000000000E+00  5.0000000000E-01
                       5.0000000000E-01  5.0000000000E-01  0.0000000000E+00
          spgroup         225
           strten      0.0000000000E+00  0.0000000000E+00  0.0000000000E+00
                       0.0000000000E+00  0.0000000000E+00  0.0000000000E+00
           symrel      1  0  0   0  1  0   0  0  1      -1  0  0   0 -1  0   0  0 -1
                       0 -1  1   0 -1  0   1 -1  0       0  1 -1   0  1  0  -1  1  0
                      -1  0  0  -1  0  1  -1  1  0       1  0  0   1  0 -1   1 -1  0
                       0  1 -1   1  0 -1   0  0 -1       0 -1  1  -1  0  1   0  0  1
                      -1  0  0  -1  1  0  -1  0  1       1  0  0   1 -1  0   1  0 -1
                       0 -1  1   1 -1  0   0 -1  0       0  1 -1  -1  1  0   0  1  0
                       1  0  0   0  0  1   0  1  0      -1  0  0   0  0 -1   0 -1  0
                       0  1 -1   0  0 -1   1  0 -1       0 -1  1   0  0  1  -1  0  1
                      -1  0  1  -1  1  0  -1  0  0       1  0 -1   1 -1  0   1  0  0
                       0 -1  0   1 -1  0   0 -1  1       0  1  0  -1  1  0   0  1 -1
                       1  0 -1   0  0 -1   0  1 -1      -1  0  1   0  0  1   0 -1  1
                       0  1  0   0  0  1   1  0  0       0 -1  0   0  0 -1  -1  0  0
                       1  0 -1   0  1 -1   0  0 -1      -1  0  1   0 -1  1   0  0  1
                       0 -1  0   0 -1  1   1 -1  0       0  1  0   0  1 -1  -1  1  0
                      -1  0  1  -1  0  0  -1  1  0       1  0 -1   1  0  0   1 -1  0
                       0  1  0   1  0  0   0  0  1       0 -1  0  -1  0  0   0  0 -1
                       0  0 -1   0  1 -1   1  0 -1       0  0  1   0 -1  1  -1  0  1
                       1 -1  0   0 -1  1   0 -1  0      -1  1  0   0  1 -1   0  1  0
                       0  0  1   1  0  0   0  1  0       0  0 -1  -1  0  0   0 -1  0
                      -1  1  0  -1  0  0  -1  0  1       1 -1  0   1  0  0   1  0 -1
                       0  0  1   0  1  0   1  0  0       0  0 -1   0 -1  0  -1  0  0
                       1 -1  0   0 -1  0   0 -1  1      -1  1  0   0  1  0   0  1 -1
                       0  0 -1   1  0 -1   0  1 -1       0  0  1  -1  0  1   0 -1  1
                      -1  1  0  -1  0  1  -1  0  0       1 -1  0   1  0 -1   1  0  0
           toldfe      1.00000000E-08 Hartree
           tsmear      5.00000000E-02 Hartree
            typat      1
              wtk        0.01563    0.12500    0.06250    0.09375    0.37500    0.18750
                         0.04688    0.09375
            znucl       13.00000

================================================================================


- Timing analysis has been suppressed with timopt=0



================================================================================

 Suggested references for the acknowledgment of ABINIT usage.

 The users of ABINIT have little formal obligations with respect to the ABINIT group
 (those specified in the GNU General Public License, http://www.gnu.org/copyleft/gpl.txt).
 However, it is common practice in the scientific literature,
 to acknowledge the efforts of people that have made the research possible.
 In this spirit, please find below suggested citations of work written by ABINIT developers,
 corresponding to implementations inside of ABINIT that you have used in the present run.
 Note also that it will be of great value to readers of publications presenting these results,
 to read papers enabling them to understand the theoretical formalism and details
 of the ABINIT implementation.
 For information on why they are suggested, see also http://www.abinit.org/about/?text=acknowledgments.

 [1] Effect of self-consistency on quasiparticles in solids
 F. Bruneval, N. Vast, L. Reining, Phys. Rev. B 74, 045102 (2006).
 Comment : in case gwcalctyp >= 10.

 [2] Ab initio pseudopotentials for electronic structure calculations of poly-atomic systems, 
 using density-functional theory.
 M. Fuchs, M. Scheffler, Comput. Phys. Commun. 119, 67 (1999).
 Comment : Some pseudopotential generated using the FHI code were used.

 [3] ABINIT : First-principles approach of materials and nanosystem properties.
 X. Gonze, B. Amadon, P.-M. Anglade, J.-M. Beuken, F. Bottin, P. Boulanger, F. Bruneval,
 D. Caliste, R. Caracas, M. Cote, T. Deutsch, L. Genovese, Ph. Ghosez, M. Giantomassi
 S. Goedecker, D.R. Hamann, P. Hermet, F. Jollet, G. Jomard, S. Leroux, M. Mancini, S. Mazevet,
 M.J.T. Oliveira, G. Onida, Y. Pouillon, T. Rangel, G.-M. Rignanese, D. Sangalli, R. Shaltaf,
 M. Torrent, M.J. Verstraete, G. Zerah, J.W. Zwanziger
 Computer Phys. Comm. 180, 2582-2615 (2009).
 Comment : the third generic paper describing the ABINIT project.
 Note that a version of this paper, that is not formatted for Computer Phys. Comm. 
 is available at http://www.abinit.org/about/ABINIT_CPC_v10.pdf .
 The licence allows the authors to put it on the Web.

 [4] A brief introduction to the ABINIT software package.
 X. Gonze, G.-M. Rignanese, M. Verstraete, J.-M. Beuken, Y. Pouillon, R. Caracas, F. Jollet,
 M. Torrent, G. Zerah, M. Mikami, Ph. Ghosez, M. Veithen, J.-Y. Raty, V. Olevano, F. Bruneval,
 L. Reining, R. Godby, G. Onida, D.R. Hamann, and D.C. Allan.
 Z. Kristallogr. 220, 558-562 (2005).
 Comment : the second generic paper describing the ABINIT project. Note that this paper
 should be cited especially if you are using the GW part of ABINIT, as several authors
 of this part are not in the list of authors of the first or third paper.
 The .pdf of the latter paper is available at http://www.abinit.org/about/zfk_0505-06_558-562.pdf.
 Note that it should not redistributed (Copyright by Oldenburg Wissenshaftverlag,
 the licence allows the authors to put it on the Web).


 And optionally :

 [5] First-principles computation of material properties : the ABINIT software project. 
 X. Gonze, J.-M. Beuken, R. Caracas, F. Detraux, M. Fuchs, G.-M. Rignanese, L. Sindic,
 M. Verstraete, G. Zerah, F. Jollet, M. Torrent, A. Roy, M. Mikami, Ph. Ghosez, J.-Y. Raty, D.C. Allan.
 Computational Materials Science 25, 478-492 (2002). http://dx.doi.org/10.1016/S0927-0256(02)00325-7
 Comment : the original paper describing the ABINIT project.
-
- Proc.   0 individual time (sec): cpu=          9.5  wall=          9.5

================================================================================

 Calculation completed.
.Delivered    9 WARNINGs and   6 COMMENTs to log file.
+Overall time at end (sec) : cpu=          9.5  wall=          9.5
