
.Version 7.10.4 of ABINIT 
.(MPI version, prepared for a x86_64_linux_gnu4.7 computer) 

.Copyright (C) 1998-2014 ABINIT group . 
 ABINIT comes with ABSOLUTELY NO WARRANTY.
 It is free software, and you are welcome to redistribute it
 under certain conditions (GNU General Public License,
 see ~abinit/COPYING or http://www.gnu.org/copyleft/gpl.txt).

 ABINIT is a project of the Universite Catholique de Louvain,
 Corning Inc. and other collaborators, see ~abinit/doc/developers/contributors.txt .
 Please read ~abinit/doc/users/acknowledgments.html for suggested
 acknowledgments of the ABINIT effort.
 For more information, see http://www.abinit.org .

.Starting date : Wed 11 Mar 2015.
- ( at 10h23 )
  
- input  file    -> tudet_2.in
- output file    -> tudet_2.out
- root for input  files -> tudet_1o
- root for output files -> tudet_2o


 Symmetries : space group Pm -3 m (#221); Bravais cP (primitive cubic)
================================================================================
 Values of the parameters that define the memory need of the present run
   intxc =         0  ionmov =         0    iscf =        17 xclevel =         2
  lmnmax =        18   lnmax =         6   mband =        25  mffmem =         1
P  mgfft =        15   mkmem =         4 mpssoang=         3     mpw =       178
  mqgrid =      3001   natom =         2    nfft =      3375    nkpt =         4
  nloalg =         4  nspden =         2 nspinor =         1  nsppol =         2
    nsym =        48  n1xccc =         1  ntypat =         1  occopt =         4
 PAW method is used; the additional fine FFT grid is defined by:
   mgfftf=        32    nfftf =     32768
================================================================================
P This job should need less than                      18.785 Mbytes of memory.
  Rough estimation (10% accuracy) of disk space for files :
_ WF disk file :      0.545 Mbytes ; DEN or POT disk file :      0.502 Mbytes.
================================================================================

--------------------------------------------------------------------------------
------------- Echo of variables that govern the present computation ------------
--------------------------------------------------------------------------------
-
- outvars: echo of selected default values                                      
-   accesswff0 =  0 , fftalg0 =112 , wfoptalg0 = 10
-
- outvars: echo of global parameters not present in the input file              
-  max_nthreads =    0
-
 -outvars: echo values of preprocessed input variables --------
            acell      5.4200000000E+00  5.4200000000E+00  5.4200000000E+00 Bohr
              amu      5.58470000E+01
         atvshift        0.00367    0.00367    0.00367    0.00367    0.00367
                         0.00367    0.00367    0.00367    0.00367    0.00367
                         0.00000    0.00000    0.00000    0.00000    0.00000
                         0.00000    0.00000    0.00000    0.00000    0.00000
           diemix      4.50000000E-01
        dmatpuopt           3
             ecut      8.00000000E+00 Hartree
-          fftalg         112
           irdwfk           1
           istwfk        0    0    0    9
              ixc          11
              kpt      1.66666667E-01  1.66666667E-01  1.66666667E-01
                       5.00000000E-01  1.66666667E-01  1.66666667E-01
                       5.00000000E-01  5.00000000E-01  1.66666667E-01
                       5.00000000E-01  5.00000000E-01  5.00000000E-01
         kptrlatt        3    0    0      0    3    0      0    0    3
          kptrlen      1.62600000E+01
            lpawu           2
         macro_uj        1
P           mkmem           4
            natom           2
            nband          25
        natvshift        5
            ngfft          15      15      15
          ngfftdg          32      32      32
             nkpt           4
           nspden           2
           nsppol           2
             nsym          48
           ntypat           1
              occ      1.000000  1.000000  1.000000  1.000000  1.000000  1.000000
                       1.000000  1.000000  1.000000  1.000000  1.000000  1.000000
                       1.000000  1.000000  1.000000  1.000000  0.000000  0.000000
                       0.000000  0.000000  0.000000  0.000000  0.000000  0.000000
                       0.000000
                       1.000000  1.000000  1.000000  1.000000  1.000000  1.000000
                       1.000000  1.000000  1.000000  1.000000  1.000000  1.000000
                       1.000000  1.000000  1.000000  1.000000  0.000000  0.000000
                       0.000000  0.000000  0.000000  0.000000  0.000000  0.000000
                       0.000000
                       1.000000  1.000000  1.000000  1.000000  1.000000  1.000000
                       1.000000  1.000000  1.000000  1.000000  1.000000  1.000000
                       1.000000  1.000000  1.000000  1.000000  0.000000  0.000000
                       0.000000  0.000000  0.000000  0.000000  0.000000  0.000000
                       0.000000
                       1.000000  1.000000  1.000000  1.000000  1.000000  1.000000
                       1.000000  1.000000  1.000000  1.000000  1.000000  1.000000
                       1.000000  1.000000  1.000000  1.000000  0.000000  0.000000
                       0.000000  0.000000  0.000000  0.000000  0.000000  0.000000
                       0.000000
                       1.000000  1.000000  1.000000  1.000000  1.000000  1.000000
                       1.000000  1.000000  1.000000  1.000000  1.000000  1.000000
                       1.000000  1.000000  1.000000  1.000000  0.000000  0.000000
                       0.000000  0.000000  0.000000  0.000000  0.000000  0.000000
                       0.000000
                       1.000000  1.000000  1.000000  1.000000  1.000000  1.000000
                       1.000000  1.000000  1.000000  1.000000  1.000000  1.000000
                       1.000000  1.000000  1.000000  1.000000  0.000000  0.000000
                       0.000000  0.000000  0.000000  0.000000  0.000000  0.000000
                       0.000000
                       1.000000  1.000000  1.000000  1.000000  1.000000  1.000000
                       1.000000  1.000000  1.000000  1.000000  1.000000  1.000000
                       1.000000  1.000000  1.000000  1.000000  0.000000  0.000000
                       0.000000  0.000000  0.000000  0.000000  0.000000  0.000000
                       0.000000
                       1.000000  1.000000  1.000000  1.000000  1.000000  1.000000
                       1.000000  1.000000  1.000000  1.000000  1.000000  1.000000
                       1.000000  1.000000  1.000000  1.000000  0.000000  0.000000
                       0.000000  0.000000  0.000000  0.000000  0.000000  0.000000
                       0.000000
           occopt           4
        pawecutdg      4.00000000E+01 Hartree
         pawujrad      2.6686600000E+00 Bohr
           prtden           0
           prteig           0
            prtwf           0
           shiftk      5.00000000E-01  5.00000000E-01  5.00000000E-01
          spgroup         221
           symrel      1  0  0   0  1  0   0  0  1      -1  0  0   0 -1  0   0  0 -1
                      -1  0  0   0  1  0   0  0 -1       1  0  0   0 -1  0   0  0  1
                      -1  0  0   0 -1  0   0  0  1       1  0  0   0  1  0   0  0 -1
                       1  0  0   0 -1  0   0  0 -1      -1  0  0   0  1  0   0  0  1
                       0  1  0   1  0  0   0  0  1       0 -1  0  -1  0  0   0  0 -1
                       0 -1  0   1  0  0   0  0 -1       0  1  0  -1  0  0   0  0  1
                       0 -1  0  -1  0  0   0  0  1       0  1  0   1  0  0   0  0 -1
                       0  1  0  -1  0  0   0  0 -1       0 -1  0   1  0  0   0  0  1
                       0  0  1   1  0  0   0  1  0       0  0 -1  -1  0  0   0 -1  0
                       0  0 -1   1  0  0   0 -1  0       0  0  1  -1  0  0   0  1  0
                       0  0 -1  -1  0  0   0  1  0       0  0  1   1  0  0   0 -1  0
                       0  0  1  -1  0  0   0 -1  0       0  0 -1   1  0  0   0  1  0
                       1  0  0   0  0  1   0  1  0      -1  0  0   0  0 -1   0 -1  0
                      -1  0  0   0  0  1   0 -1  0       1  0  0   0  0 -1   0  1  0
                      -1  0  0   0  0 -1   0  1  0       1  0  0   0  0  1   0 -1  0
                       1  0  0   0  0 -1   0 -1  0      -1  0  0   0  0  1   0  1  0
                       0  1  0   0  0  1   1  0  0       0 -1  0   0  0 -1  -1  0  0
                       0 -1  0   0  0  1  -1  0  0       0  1  0   0  0 -1   1  0  0
                       0 -1  0   0  0 -1   1  0  0       0  1  0   0  0  1  -1  0  0
                       0  1  0   0  0 -1  -1  0  0       0 -1  0   0  0  1   1  0  0
                       0  0  1   0  1  0   1  0  0       0  0 -1   0 -1  0  -1  0  0
                       0  0 -1   0  1  0  -1  0  0       0  0  1   0 -1  0   1  0  0
                       0  0 -1   0 -1  0   1  0  0       0  0  1   0  1  0  -1  0  0
                       0  0  1   0 -1  0  -1  0  0       0  0 -1   0  1  0   1  0  0
           tolvrs      1.00000000E-08
           tsmear      1.83746627E-03 Hartree
            typat      1  1
          usepawu           1
           useylm           1
              wtk        0.29630    0.44444    0.22222    0.03704
           xangst      0.0000000000E+00  0.0000000000E+00  0.0000000000E+00
                       1.4340702353E+00  1.4340702353E+00  1.4340702353E+00
            xcart      0.0000000000E+00  0.0000000000E+00  0.0000000000E+00
                       2.7100000000E+00  2.7100000000E+00  2.7100000000E+00
             xred      0.0000000000E+00  0.0000000000E+00  0.0000000000E+00
                       5.0000000000E-01  5.0000000000E-01  5.0000000000E-01
            znucl       26.00000

================================================================================

 chkinp: Checking input parameters for consistency.

================================================================================
== DATASET  1 ==================================================================
-   nproc =    1

 Exchange-correlation functional for the present dataset will be:
  GGA: Perdew-Burke-Ernzerhof functional - ixc=11
 Citation for XC functional:
  J.P.Perdew, K.Burke, M.Ernzerhof, PRL 77, 3865 (1996)

 Real(R)+Recip(G) space primitive vectors, cartesian coordinates (Bohr,Bohr^-1):
 R(1)=  5.4200000  0.0000000  0.0000000  G(1)=  0.1845018  0.0000000  0.0000000
 R(2)=  0.0000000  5.4200000  0.0000000  G(2)=  0.0000000  0.1845018  0.0000000
 R(3)=  0.0000000  0.0000000  5.4200000  G(3)=  0.0000000  0.0000000  0.1845018
 Unit cell volume ucvol=  1.5922009E+02 bohr^3
 Angles (23,13,12)=  9.00000000E+01  9.00000000E+01  9.00000000E+01 degrees

 Coarse grid specifications (used for wave-functions):

 getcut: wavevector=  0.0000  0.0000  0.0000  ngfft=  15  15  15
         ecut(hartree)=      8.000   => boxcut(ratio)=   2.02870

 Fine grid specifications (used for densities):

 getcut: wavevector=  0.0000  0.0000  0.0000  ngfft=  32  32  32
         ecut(hartree)=     40.000   => boxcut(ratio)=   2.07375

--- Pseudopotential description ------------------------------------------------
- pspini: atom type   1  psp file is /home/gonze/ABINIT/ABINITv7.10.4/trunk/7.10.4-private/tests/Psps_for_tests/26fe.paw
- pspatm: opening atomic psp file    /home/gonze/ABINIT/ABINITv7.10.4/trunk/7.10.4-private/tests/Psps_for_tests/26fe.paw
- iron - PAW data extracted from US-psp (D.Vanderbilt) - generated by USpp2Abinit v2.2.1
- 26.00000  16.00000  20070813                znucl, zion, pspdat
    7   11    2    0       594   0.00000      pspcod,pspxc,lmax,lloc,mmax,r2well
 Pseudopotential format is: paw3
 basis_size (lnmax)=  6 (lmn_size= 18), orbitals=   0   0   1   1   2   2
 Spheres core radius: rc_sph= 2.02984247
 3 radial meshes are used:
  - mesh 1: r(i)=AA*[exp(BB*(i-1))-1], size= 594 , AA= 0.95337E-04 BB= 0.16949E-01
  - mesh 2: r(i)=AA*[exp(BB*(i-1))-1], size= 590 , AA= 0.95337E-04 BB= 0.16949E-01
  - mesh 3: r(i)=AA*[exp(BB*(i-1))-1], size= 683 , AA= 0.95337E-04 BB= 0.16949E-01
 Shapefunction is BESSEL type: shapef(r,l)=aa(1,l)*jl(q(1,l)*r)+aa(2,l)*jl(q(2,l)*r)
 Radius for shape functions = sphere core radius
 Radial grid used for partial waves is grid 1
 Radial grid used for projectors is grid  2
 Radial grid used for (t)core density is grid 1
 Radial grid used for Vloc is grid 3
 Compensation charge density is taken into account in XC energy/potential
 pspatm: atomic psp has been read  and splines computed

   2.32160999E+03                                ecore*ucvol(ha*bohr**3)
--------------------------------------------------------------------------------

-inwffil : will read wavefunctions from disk file tudet_1o_WFK
- newkpt: read input wf with ikpt,npw=   1     172, make ikpt,npw=   1     172
- newkpt: read input wf with ikpt,npw=   2     178, make ikpt,npw=   2     178
- newkpt: read input wf with ikpt,npw=   3     168, make ikpt,npw=   3     168
- newkpt: read input wf with ikpt,npw=   4      80, make ikpt,npw=   4      80
- newkpt: read input wf with ikpt,npw=   1     172, make ikpt,npw=   1     172
- newkpt: read input wf with ikpt,npw=   2     178, make ikpt,npw=   2     178
- newkpt: read input wf with ikpt,npw=   3     168, make ikpt,npw=   3     168
- newkpt: read input wf with ikpt,npw=   4      80, make ikpt,npw=   4      80

_setup2: Arith. and geom. avg. npw (full set) are     173.333     173.266


 ******************************************
 LDA+U Method used: FLL
 ******************************************

================================================================================

     iter   Etot(hartree)     deltaE(h) residm    nres2    magn
 ETOT  1  -248.64724996139    -2.49E+02 7.59E-07 1.03E-01 4.593
 ETOT  2  -248.64938112169    -2.13E-03 8.53E-05 2.26E+00 4.593
 ETOT  3  -248.64713317662     2.25E-03 5.34E-04 2.83E-03 4.593
 ETOT  4  -248.64714453025    -1.14E-05 6.89E-06 3.38E-03 4.593
 ETOT  5  -248.64714116498     3.37E-06 1.94E-06 1.33E-04 4.593
 ETOT  6  -248.64714123649    -7.15E-08 8.99E-07 2.44E-05 4.593
 ETOT  7  -248.64714126498    -2.85E-08 4.12E-07 6.68E-06 4.593
 ETOT  8  -248.64714125817     6.81E-09 3.73E-07 4.38E-07 4.593
 ETOT  9  -248.64714125836    -1.91E-10 4.08E-07 2.79E-07 4.593
 ETOT 10  -248.64714125880    -4.38E-10 3.63E-07 1.68E-08 4.593
 ETOT 11  -248.64714125874     5.37E-11 3.99E-07 2.26E-09 4.593

 At SCF step   11       nres2   =  2.26E-09 < tolvrs=  1.00E-08 =>converged.

 Cartesian components of stress tensor (hartree/bohr^3)
  sigma(1 1)=  7.34577247E-03  sigma(3 2)=  0.00000000E+00
  sigma(2 2)=  7.34577247E-03  sigma(3 1)=  0.00000000E+00
  sigma(3 3)=  7.34577247E-03  sigma(2 1)=  0.00000000E+00


 PAW TEST:
 ==== Compensation charge inside spheres ============
 The following values must be close to each other ...
 Compensation charge over spherical meshes =     19.149958927388678
 Compensation charge over fine fft grid    =     19.149947956393234

 ==== Results concerning PAW augmentation regions ====

 Total pseudopotential strength Dij (hartree):
 Atom #  1 - Spin component 1
  -2.53989   0.26375   0.00000   0.00000   0.00000   0.00000   0.00000   0.00000   0.00000   0.00000   0.00000   0.00000 ...
   0.26375   0.06294   0.00000   0.00000   0.00000   0.00000   0.00000   0.00000   0.00000   0.00000   0.00000   0.00000 ...
   0.00000   0.00000  -1.81920   0.00000   0.00000   0.07965   0.00000   0.00000   0.00000   0.00000   0.00000   0.00000 ...
   0.00000   0.00000   0.00000  -1.81920   0.00000   0.00000   0.07965   0.00000   0.00000   0.00000   0.00000   0.00000 ...
   0.00000   0.00000   0.00000   0.00000  -1.81920   0.00000   0.00000   0.07965   0.00000   0.00000   0.00000   0.00000 ...
   0.00000   0.00000   0.07965   0.00000   0.00000   0.01689   0.00000   0.00000   0.00000   0.00000   0.00000   0.00000 ...
   0.00000   0.00000   0.00000   0.07965   0.00000   0.00000   0.01689   0.00000   0.00000   0.00000   0.00000   0.00000 ...
   0.00000   0.00000   0.00000   0.00000   0.07965   0.00000   0.00000   0.01689   0.00000   0.00000   0.00000   0.00000 ...
   0.00000   0.00000   0.00000   0.00000   0.00000   0.00000   0.00000   0.00000  -0.22124   0.00000   0.00000   0.00000 ...
   0.00000   0.00000   0.00000   0.00000   0.00000   0.00000   0.00000   0.00000   0.00000  -0.22124   0.00000   0.00000 ...
   0.00000   0.00000   0.00000   0.00000   0.00000   0.00000   0.00000   0.00000   0.00000   0.00000  -0.22613   0.00000 ...
   0.00000   0.00000   0.00000   0.00000   0.00000   0.00000   0.00000   0.00000   0.00000   0.00000   0.00000  -0.22124 ...
   ...  only 12  components have been written...
 Atom #  1 - Spin component 2
  -2.47870   0.24934   0.00000   0.00000   0.00000   0.00000   0.00000   0.00000   0.00000   0.00000   0.00000   0.00000 ...
   0.24934   0.06373   0.00000   0.00000   0.00000   0.00000   0.00000   0.00000   0.00000   0.00000   0.00000   0.00000 ...
   0.00000   0.00000  -1.74068   0.00000   0.00000   0.07016   0.00000   0.00000   0.00000   0.00000   0.00000   0.00000 ...
   0.00000   0.00000   0.00000  -1.74068   0.00000   0.00000   0.07016   0.00000   0.00000   0.00000   0.00000   0.00000 ...
   0.00000   0.00000   0.00000   0.00000  -1.74068   0.00000   0.00000   0.07016   0.00000   0.00000   0.00000   0.00000 ...
   0.00000   0.00000   0.07016   0.00000   0.00000   0.01751   0.00000   0.00000   0.00000   0.00000   0.00000   0.00000 ...
   0.00000   0.00000   0.00000   0.07016   0.00000   0.00000   0.01751   0.00000   0.00000   0.00000   0.00000   0.00000 ...
   0.00000   0.00000   0.00000   0.00000   0.07016   0.00000   0.00000   0.01751   0.00000   0.00000   0.00000   0.00000 ...
   0.00000   0.00000   0.00000   0.00000   0.00000   0.00000   0.00000   0.00000  -0.16379   0.00000   0.00000   0.00000 ...
   0.00000   0.00000   0.00000   0.00000   0.00000   0.00000   0.00000   0.00000   0.00000  -0.16379   0.00000   0.00000 ...
   0.00000   0.00000   0.00000   0.00000   0.00000   0.00000   0.00000   0.00000   0.00000   0.00000  -0.15969   0.00000 ...
   0.00000   0.00000   0.00000   0.00000   0.00000   0.00000   0.00000   0.00000   0.00000   0.00000   0.00000  -0.16379 ...
   ...  only 12  components have been written...
 Atom #  2 - Spin component 1
  -2.53717   0.26311   0.00000   0.00000   0.00000   0.00000   0.00000   0.00000   0.00000   0.00000   0.00000   0.00000 ...
   0.26311   0.06302   0.00000   0.00000   0.00000   0.00000   0.00000   0.00000   0.00000   0.00000   0.00000   0.00000 ...
   0.00000   0.00000  -1.81575   0.00000   0.00000   0.07923   0.00000   0.00000   0.00000   0.00000   0.00000   0.00000 ...
   0.00000   0.00000   0.00000  -1.81575   0.00000   0.00000   0.07923   0.00000   0.00000   0.00000   0.00000   0.00000 ...
   0.00000   0.00000   0.00000   0.00000  -1.81575   0.00000   0.00000   0.07923   0.00000   0.00000   0.00000   0.00000 ...
   0.00000   0.00000   0.07923   0.00000   0.00000   0.01693   0.00000   0.00000   0.00000   0.00000   0.00000   0.00000 ...
   0.00000   0.00000   0.00000   0.07923   0.00000   0.00000   0.01693   0.00000   0.00000   0.00000   0.00000   0.00000 ...
   0.00000   0.00000   0.00000   0.00000   0.07923   0.00000   0.00000   0.01693   0.00000   0.00000   0.00000   0.00000 ...
   0.00000   0.00000   0.00000   0.00000   0.00000   0.00000   0.00000   0.00000  -0.22175   0.00000   0.00000   0.00000 ...
   0.00000   0.00000   0.00000   0.00000   0.00000   0.00000   0.00000   0.00000   0.00000  -0.22175   0.00000   0.00000 ...
   0.00000   0.00000   0.00000   0.00000   0.00000   0.00000   0.00000   0.00000   0.00000   0.00000  -0.22666   0.00000 ...
   0.00000   0.00000   0.00000   0.00000   0.00000   0.00000   0.00000   0.00000   0.00000   0.00000   0.00000  -0.22175 ...
   ...  only 12  components have been written...
 Atom #  2 - Spin component 2
  -2.47647   0.24881   0.00000   0.00000   0.00000   0.00000   0.00000   0.00000   0.00000   0.00000   0.00000   0.00000 ...
   0.24881   0.06380   0.00000   0.00000   0.00000   0.00000   0.00000   0.00000   0.00000   0.00000   0.00000   0.00000 ...
   0.00000   0.00000  -1.73787   0.00000   0.00000   0.06981   0.00000   0.00000   0.00000   0.00000   0.00000   0.00000 ...
   0.00000   0.00000   0.00000  -1.73787   0.00000   0.00000   0.06981   0.00000   0.00000   0.00000   0.00000   0.00000 ...
   0.00000   0.00000   0.00000   0.00000  -1.73787   0.00000   0.00000   0.06981   0.00000   0.00000   0.00000   0.00000 ...
   0.00000   0.00000   0.06981   0.00000   0.00000   0.01755   0.00000   0.00000   0.00000   0.00000   0.00000   0.00000 ...
   0.00000   0.00000   0.00000   0.06981   0.00000   0.00000   0.01755   0.00000   0.00000   0.00000   0.00000   0.00000 ...
   0.00000   0.00000   0.00000   0.00000   0.06981   0.00000   0.00000   0.01755   0.00000   0.00000   0.00000   0.00000 ...
   0.00000   0.00000   0.00000   0.00000   0.00000   0.00000   0.00000   0.00000  -0.16481   0.00000   0.00000   0.00000 ...
   0.00000   0.00000   0.00000   0.00000   0.00000   0.00000   0.00000   0.00000   0.00000  -0.16481   0.00000   0.00000 ...
   0.00000   0.00000   0.00000   0.00000   0.00000   0.00000   0.00000   0.00000   0.00000   0.00000  -0.16070   0.00000 ...
   0.00000   0.00000   0.00000   0.00000   0.00000   0.00000   0.00000   0.00000   0.00000   0.00000   0.00000  -0.16481 ...
   ...  only 12  components have been written...


 Augmentation waves occupancies Rhoij:
 Atom #  1 - Spin component 1
   0.99912  -0.02101   0.00000   0.00000   0.00000   0.00000   0.00000   0.00000   0.00000   0.00000   0.00000   0.00000 ...
  -0.02101   0.64325   0.00000   0.00000   0.00000   0.00000   0.00000   0.00000   0.00000   0.00000   0.00000   0.00000 ...
   0.00000   0.00000   1.00525   0.00000   0.00000   0.01757   0.00000   0.00000   0.00000   0.00000   0.00000   0.00000 ...
   0.00000   0.00000   0.00000   1.00525   0.00000   0.00000   0.01757   0.00000   0.00000   0.00000   0.00000   0.00000 ...
   0.00000   0.00000   0.00000   0.00000   1.00525   0.00000   0.00000   0.01757   0.00000   0.00000   0.00000   0.00000 ...
   0.00000   0.00000   0.01757   0.00000   0.00000   0.73788   0.00000   0.00000   0.00000   0.00000   0.00000   0.00000 ...
   0.00000   0.00000   0.00000   0.01757   0.00000   0.00000   0.73788   0.00000   0.00000   0.00000   0.00000   0.00000 ...
   0.00000   0.00000   0.00000   0.00000   0.01757   0.00000   0.00000   0.73788   0.00000   0.00000   0.00000   0.00000 ...
   0.00000   0.00000   0.00000   0.00000   0.00000   0.00000   0.00000   0.00000   0.99415   0.00000   0.00000   0.00000 ...
   0.00000   0.00000   0.00000   0.00000   0.00000   0.00000   0.00000   0.00000   0.00000   0.99415   0.00000   0.00000 ...
   0.00000   0.00000   0.00000   0.00000   0.00000   0.00000   0.00000   0.00000   0.00000   0.00000   0.98612   0.00000 ...
   0.00000   0.00000   0.00000   0.00000   0.00000   0.00000   0.00000   0.00000   0.00000   0.00000   0.00000   0.99415 ...
   ...  only 12  components have been written...
 Atom #  1 - Spin component 2
   0.99964  -0.01454   0.00000   0.00000   0.00000   0.00000   0.00000   0.00000   0.00000   0.00000   0.00000   0.00000 ...
  -0.01454   0.67800   0.00000   0.00000   0.00000   0.00000   0.00000   0.00000   0.00000   0.00000   0.00000   0.00000 ...
   0.00000   0.00000   1.00643   0.00000   0.00000   0.03888   0.00000   0.00000   0.00000   0.00000   0.00000   0.00000 ...
   0.00000   0.00000   0.00000   1.00643   0.00000   0.00000   0.03888   0.00000   0.00000   0.00000   0.00000   0.00000 ...
   0.00000   0.00000   0.00000   0.00000   1.00643   0.00000   0.00000   0.03888   0.00000   0.00000   0.00000   0.00000 ...
   0.00000   0.00000   0.03888   0.00000   0.00000   0.99416   0.00000   0.00000   0.00000   0.00000   0.00000   0.00000 ...
   0.00000   0.00000   0.00000   0.03888   0.00000   0.00000   0.99416   0.00000   0.00000   0.00000   0.00000   0.00000 ...
   0.00000   0.00000   0.00000   0.00000   0.03888   0.00000   0.00000   0.99416   0.00000   0.00000   0.00000   0.00000 ...
   0.00000   0.00000   0.00000   0.00000   0.00000   0.00000   0.00000   0.00000   0.62887   0.00000   0.00000   0.00000 ...
   0.00000   0.00000   0.00000   0.00000   0.00000   0.00000   0.00000   0.00000   0.00000   0.62887   0.00000   0.00000 ...
   0.00000   0.00000   0.00000   0.00000   0.00000   0.00000   0.00000   0.00000   0.00000   0.00000   0.37861   0.00000 ...
   0.00000   0.00000   0.00000   0.00000   0.00000   0.00000   0.00000   0.00000   0.00000   0.00000   0.00000   0.62887 ...
   ...  only 12  components have been written...
 Atom #  2 - Spin component 1
   0.99916  -0.02060   0.00000   0.00000   0.00000   0.00000   0.00000   0.00000   0.00000   0.00000   0.00000   0.00000 ...
  -0.02060   0.63930   0.00000   0.00000   0.00000   0.00000   0.00000   0.00000   0.00000   0.00000   0.00000   0.00000 ...
   0.00000   0.00000   1.00533   0.00000   0.00000   0.01888   0.00000   0.00000   0.00000   0.00000   0.00000   0.00000 ...
   0.00000   0.00000   0.00000   1.00533   0.00000   0.00000   0.01888   0.00000   0.00000   0.00000   0.00000   0.00000 ...
   0.00000   0.00000   0.00000   0.00000   1.00533   0.00000   0.00000   0.01888   0.00000   0.00000   0.00000   0.00000 ...
   0.00000   0.00000   0.01888   0.00000   0.00000   0.73440   0.00000   0.00000   0.00000   0.00000   0.00000   0.00000 ...
   0.00000   0.00000   0.00000   0.01888   0.00000   0.00000   0.73440   0.00000   0.00000   0.00000   0.00000   0.00000 ...
   0.00000   0.00000   0.00000   0.00000   0.01888   0.00000   0.00000   0.73440   0.00000   0.00000   0.00000   0.00000 ...
   0.00000   0.00000   0.00000   0.00000   0.00000   0.00000   0.00000   0.00000   0.99464   0.00000   0.00000   0.00000 ...
   0.00000   0.00000   0.00000   0.00000   0.00000   0.00000   0.00000   0.00000   0.00000   0.99464   0.00000   0.00000 ...
   0.00000   0.00000   0.00000   0.00000   0.00000   0.00000   0.00000   0.00000   0.00000   0.00000   0.98662   0.00000 ...
   0.00000   0.00000   0.00000   0.00000   0.00000   0.00000   0.00000   0.00000   0.00000   0.00000   0.00000   0.99464 ...
   ...  only 12  components have been written...
 Atom #  2 - Spin component 2
   0.99967  -0.01416   0.00000   0.00000   0.00000   0.00000   0.00000   0.00000   0.00000   0.00000   0.00000   0.00000 ...
  -0.01416   0.67500   0.00000   0.00000   0.00000   0.00000   0.00000   0.00000   0.00000   0.00000   0.00000   0.00000 ...
   0.00000   0.00000   1.00650   0.00000   0.00000   0.04003   0.00000   0.00000   0.00000   0.00000   0.00000   0.00000 ...
   0.00000   0.00000   0.00000   1.00650   0.00000   0.00000   0.04003   0.00000   0.00000   0.00000   0.00000   0.00000 ...
   0.00000   0.00000   0.00000   0.00000   1.00650   0.00000   0.00000   0.04003   0.00000   0.00000   0.00000   0.00000 ...
   0.00000   0.00000   0.04003   0.00000   0.00000   0.99110   0.00000   0.00000   0.00000   0.00000   0.00000   0.00000 ...
   0.00000   0.00000   0.00000   0.04003   0.00000   0.00000   0.99110   0.00000   0.00000   0.00000   0.00000   0.00000 ...
   0.00000   0.00000   0.00000   0.00000   0.04003   0.00000   0.00000   0.99110   0.00000   0.00000   0.00000   0.00000 ...
   0.00000   0.00000   0.00000   0.00000   0.00000   0.00000   0.00000   0.00000   0.63326   0.00000   0.00000   0.00000 ...
   0.00000   0.00000   0.00000   0.00000   0.00000   0.00000   0.00000   0.00000   0.00000   0.63326   0.00000   0.00000 ...
   0.00000   0.00000   0.00000   0.00000   0.00000   0.00000   0.00000   0.00000   0.00000   0.00000   0.38202   0.00000 ...
   0.00000   0.00000   0.00000   0.00000   0.00000   0.00000   0.00000   0.00000   0.00000   0.00000   0.00000   0.63326 ...
   ...  only 12  components have been written...

 "PAW+U" part of augmentation waves occupancies Rhoij:
 Atom #  1 - L=2 ONLY - Spin component 1
   0.99415   0.00000   0.00000   0.00000   0.00000   0.01295   0.00000   0.00000   0.00000   0.00000
   0.00000   0.99415   0.00000   0.00000   0.00000   0.00000   0.01295   0.00000   0.00000   0.00000
   0.00000   0.00000   0.98612   0.00000   0.00000   0.00000   0.00000   0.00393   0.00000   0.00000
   0.00000   0.00000   0.00000   0.99415   0.00000   0.00000   0.00000   0.00000   0.01295   0.00000
   0.00000   0.00000   0.00000   0.00000   0.98612   0.00000   0.00000   0.00000   0.00000   0.00393
   0.01295   0.00000   0.00000   0.00000   0.00000   0.00248   0.00000   0.00000   0.00000   0.00000
   0.00000   0.01295   0.00000   0.00000   0.00000   0.00000   0.00248   0.00000   0.00000   0.00000
   0.00000   0.00000   0.00393   0.00000   0.00000   0.00000   0.00000   0.00230   0.00000   0.00000
   0.00000   0.00000   0.00000   0.01295   0.00000   0.00000   0.00000   0.00000   0.00248   0.00000
   0.00000   0.00000   0.00000   0.00000   0.00393   0.00000   0.00000   0.00000   0.00000   0.00230
 Atom #  1 - L=2 ONLY - Spin component 2
   0.62887   0.00000   0.00000   0.00000   0.00000   0.04358   0.00000   0.00000   0.00000   0.00000
   0.00000   0.62887   0.00000   0.00000   0.00000   0.00000   0.04358   0.00000   0.00000   0.00000
   0.00000   0.00000   0.37861   0.00000   0.00000   0.00000   0.00000   0.03511   0.00000   0.00000
   0.00000   0.00000   0.00000   0.62887   0.00000   0.00000   0.00000   0.00000   0.04358   0.00000
   0.00000   0.00000   0.00000   0.00000   0.37861   0.00000   0.00000   0.00000   0.00000   0.03511
   0.04358   0.00000   0.00000   0.00000   0.00000   0.00339   0.00000   0.00000   0.00000   0.00000
   0.00000   0.04358   0.00000   0.00000   0.00000   0.00000   0.00339   0.00000   0.00000   0.00000
   0.00000   0.00000   0.03511   0.00000   0.00000   0.00000   0.00000   0.00342   0.00000   0.00000
   0.00000   0.00000   0.00000   0.04358   0.00000   0.00000   0.00000   0.00000   0.00339   0.00000
   0.00000   0.00000   0.00000   0.00000   0.03511   0.00000   0.00000   0.00000   0.00000   0.00342
 Atom #  2 - L=2 ONLY - Spin component 1
   0.99464   0.00000   0.00000   0.00000   0.00000   0.01337   0.00000   0.00000   0.00000   0.00000
   0.00000   0.99464   0.00000   0.00000   0.00000   0.00000   0.01337   0.00000   0.00000   0.00000
   0.00000   0.00000   0.98662   0.00000   0.00000   0.00000   0.00000   0.00429   0.00000   0.00000
   0.00000   0.00000   0.00000   0.99464   0.00000   0.00000   0.00000   0.00000   0.01337   0.00000
   0.00000   0.00000   0.00000   0.00000   0.98662   0.00000   0.00000   0.00000   0.00000   0.00429
   0.01337   0.00000   0.00000   0.00000   0.00000   0.00248   0.00000   0.00000   0.00000   0.00000
   0.00000   0.01337   0.00000   0.00000   0.00000   0.00000   0.00248   0.00000   0.00000   0.00000
   0.00000   0.00000   0.00429   0.00000   0.00000   0.00000   0.00000   0.00229   0.00000   0.00000
   0.00000   0.00000   0.00000   0.01337   0.00000   0.00000   0.00000   0.00000   0.00248   0.00000
   0.00000   0.00000   0.00000   0.00000   0.00429   0.00000   0.00000   0.00000   0.00000   0.00229
 Atom #  2 - L=2 ONLY - Spin component 2
   0.63326   0.00000   0.00000   0.00000   0.00000   0.04372   0.00000   0.00000   0.00000   0.00000
   0.00000   0.63326   0.00000   0.00000   0.00000   0.00000   0.04372   0.00000   0.00000   0.00000
   0.00000   0.00000   0.38202   0.00000   0.00000   0.00000   0.00000   0.03527   0.00000   0.00000
   0.00000   0.00000   0.00000   0.63326   0.00000   0.00000   0.00000   0.00000   0.04372   0.00000
   0.00000   0.00000   0.00000   0.00000   0.38202   0.00000   0.00000   0.00000   0.00000   0.03527
   0.04372   0.00000   0.00000   0.00000   0.00000   0.00339   0.00000   0.00000   0.00000   0.00000
   0.00000   0.04372   0.00000   0.00000   0.00000   0.00000   0.00339   0.00000   0.00000   0.00000
   0.00000   0.00000   0.03527   0.00000   0.00000   0.00000   0.00000   0.00342   0.00000   0.00000
   0.00000   0.00000   0.00000   0.04372   0.00000   0.00000   0.00000   0.00000   0.00339   0.00000
   0.00000   0.00000   0.00000   0.00000   0.03527   0.00000   0.00000   0.00000   0.00000   0.00342

 ---------- LDA+U DATA --------------------------------------------------- 

 ====== For Atom     1, occupations for correlated orbitals. lpawu =   2

 Atom   1. Occ. for lpawu and for spin  1 =   4.12205
 Atom   1. Occ. for lpawu and for spin  2 =   1.68394
 => On atom   1,  local Mag. for lpawu is       -2.438105

 == Occupation matrix for correlated orbitals:

 Occupation matrix for spin  1
     0.81617    0.00000    0.00000    0.00000    0.00000
     0.00000    0.81617    0.00000    0.00000    0.00000
     0.00000    0.00000    0.83677    0.00000    0.00000
     0.00000    0.00000    0.00000    0.81617    0.00000
     0.00000    0.00000    0.00000    0.00000    0.83677


 Occupation matrix for spin  2
     0.41178    0.00000    0.00000    0.00000    0.00000
     0.00000    0.41178    0.00000    0.00000    0.00000
     0.00000    0.00000    0.22430    0.00000    0.00000
     0.00000    0.00000    0.00000    0.41178    0.00000
     0.00000    0.00000    0.00000    0.00000    0.22430


 ====== For Atom     2, occupations for correlated orbitals. lpawu =   2

 Atom   2. Occ. for lpawu and for spin  1 =   4.11799
 Atom   2. Occ. for lpawu and for spin  2 =   1.69874
 => On atom   2,  local Mag. for lpawu is       -2.419251

 == Occupation matrix for correlated orbitals:

 Occupation matrix for spin  1
     0.81531    0.00000    0.00000    0.00000    0.00000
     0.00000    0.81531    0.00000    0.00000    0.00000
     0.00000    0.00000    0.83604    0.00000    0.00000
     0.00000    0.00000    0.00000    0.81531    0.00000
     0.00000    0.00000    0.00000    0.00000    0.83604


 Occupation matrix for spin  2
     0.41509    0.00000    0.00000    0.00000    0.00000
     0.00000    0.41509    0.00000    0.00000    0.00000
     0.00000    0.00000    0.22674    0.00000    0.00000
     0.00000    0.00000    0.00000    0.41509    0.00000
     0.00000    0.00000    0.00000    0.00000    0.22674




     iter   Etot(hartree)     deltaE(h) residm    nres2    magn
 ETOT  1  -248.69031835419    -2.49E+02 3.23E-04 4.12E-01 4.593
 ETOT  2  -248.69873046045    -8.41E-03 9.43E-03 8.68E+00 4.593
 ETOT  3  -248.68985808272     8.87E-03 2.06E-03 1.23E-02 4.593
 ETOT  4  -248.68989627860    -3.82E-05 1.78E-04 1.20E-02 4.593
 ETOT  5  -248.68988393199     1.23E-05 6.22E-06 2.11E-04 4.593
 ETOT  6  -248.68988465672    -7.25E-07 4.02E-07 3.01E-04 4.593
 ETOT  7  -248.68988457977     7.70E-08 3.46E-06 4.35E-05 4.593
 ETOT  8  -248.68988458882    -9.05E-09 3.68E-07 1.53E-06 4.593
 ETOT  9  -248.68988459376    -4.94E-09 3.02E-06 4.46E-07 4.593
 ETOT 10  -248.68988459356     1.91E-10 3.46E-07 1.76E-08 4.593
 ETOT 11  -248.68988459371    -1.49E-10 2.57E-06 2.33E-08 4.593
 ETOT 12  -248.68988459373    -1.96E-11 2.98E-07 2.39E-10 4.593

 At SCF step   12       nres2   =  2.39E-10 < tolvrs=  1.00E-08 =>converged.

 Cartesian components of stress tensor (hartree/bohr^3)
  sigma(1 1)=  7.33852163E-03  sigma(3 2)=  0.00000000E+00
  sigma(2 2)=  7.33852163E-03  sigma(3 1)=  0.00000000E+00
  sigma(3 3)=  7.33852163E-03  sigma(2 1)=  0.00000000E+00


 PAW TEST:
 ==== Compensation charge inside spheres ============
 The following values must be close to each other ...
 Compensation charge over spherical meshes =     19.158009283547507
 Compensation charge over fine fft grid    =     19.158001031086133

 ==== Results concerning PAW augmentation regions ====

 Total pseudopotential strength Dij (hartree):
 Atom #  1 - Spin component 1
  -2.53561   0.26273   0.00000   0.00000   0.00000   0.00000   0.00000   0.00000   0.00000   0.00000   0.00000   0.00000 ...
   0.26273   0.06308   0.00000   0.00000   0.00000   0.00000   0.00000   0.00000   0.00000   0.00000   0.00000   0.00000 ...
   0.00000   0.00000  -1.81381   0.00000   0.00000   0.07899   0.00000   0.00000   0.00000   0.00000   0.00000   0.00000 ...
   0.00000   0.00000   0.00000  -1.81381   0.00000   0.00000   0.07899   0.00000   0.00000   0.00000   0.00000   0.00000 ...
   0.00000   0.00000   0.00000   0.00000  -1.81381   0.00000   0.00000   0.07899   0.00000   0.00000   0.00000   0.00000 ...
   0.00000   0.00000   0.07899   0.00000   0.00000   0.01695   0.00000   0.00000   0.00000   0.00000   0.00000   0.00000 ...
   0.00000   0.00000   0.00000   0.07899   0.00000   0.00000   0.01695   0.00000   0.00000   0.00000   0.00000   0.00000 ...
   0.00000   0.00000   0.00000   0.00000   0.07899   0.00000   0.00000   0.01695   0.00000   0.00000   0.00000   0.00000 ...
   0.00000   0.00000   0.00000   0.00000   0.00000   0.00000   0.00000   0.00000  -0.22344   0.00000   0.00000   0.00000 ...
   0.00000   0.00000   0.00000   0.00000   0.00000   0.00000   0.00000   0.00000   0.00000  -0.22344   0.00000   0.00000 ...
   0.00000   0.00000   0.00000   0.00000   0.00000   0.00000   0.00000   0.00000   0.00000   0.00000  -0.22835   0.00000 ...
   0.00000   0.00000   0.00000   0.00000   0.00000   0.00000   0.00000   0.00000   0.00000   0.00000   0.00000  -0.22344 ...
   ...  only 12  components have been written...
 Atom #  1 - Spin component 2
  -2.47493   0.24844   0.00000   0.00000   0.00000   0.00000   0.00000   0.00000   0.00000   0.00000   0.00000   0.00000 ...
   0.24844   0.06387   0.00000   0.00000   0.00000   0.00000   0.00000   0.00000   0.00000   0.00000   0.00000   0.00000 ...
   0.00000   0.00000  -1.73595   0.00000   0.00000   0.06958   0.00000   0.00000   0.00000   0.00000   0.00000   0.00000 ...
   0.00000   0.00000   0.00000  -1.73595   0.00000   0.00000   0.06958   0.00000   0.00000   0.00000   0.00000   0.00000 ...
   0.00000   0.00000   0.00000   0.00000  -1.73595   0.00000   0.00000   0.06958   0.00000   0.00000   0.00000   0.00000 ...
   0.00000   0.00000   0.06958   0.00000   0.00000   0.01757   0.00000   0.00000   0.00000   0.00000   0.00000   0.00000 ...
   0.00000   0.00000   0.00000   0.06958   0.00000   0.00000   0.01757   0.00000   0.00000   0.00000   0.00000   0.00000 ...
   0.00000   0.00000   0.00000   0.00000   0.06958   0.00000   0.00000   0.01757   0.00000   0.00000   0.00000   0.00000 ...
   0.00000   0.00000   0.00000   0.00000   0.00000   0.00000   0.00000   0.00000  -0.16650   0.00000   0.00000   0.00000 ...
   0.00000   0.00000   0.00000   0.00000   0.00000   0.00000   0.00000   0.00000   0.00000  -0.16650   0.00000   0.00000 ...
   0.00000   0.00000   0.00000   0.00000   0.00000   0.00000   0.00000   0.00000   0.00000   0.00000  -0.16242   0.00000 ...
   0.00000   0.00000   0.00000   0.00000   0.00000   0.00000   0.00000   0.00000   0.00000   0.00000   0.00000  -0.16650 ...
   ...  only 12  components have been written...
 Atom #  2 - Spin component 1
  -2.53833   0.26338   0.00000   0.00000   0.00000   0.00000   0.00000   0.00000   0.00000   0.00000   0.00000   0.00000 ...
   0.26338   0.06300   0.00000   0.00000   0.00000   0.00000   0.00000   0.00000   0.00000   0.00000   0.00000   0.00000 ...
   0.00000   0.00000  -1.81726   0.00000   0.00000   0.07941   0.00000   0.00000   0.00000   0.00000   0.00000   0.00000 ...
   0.00000   0.00000   0.00000  -1.81726   0.00000   0.00000   0.07941   0.00000   0.00000   0.00000   0.00000   0.00000 ...
   0.00000   0.00000   0.00000   0.00000  -1.81726   0.00000   0.00000   0.07941   0.00000   0.00000   0.00000   0.00000 ...
   0.00000   0.00000   0.07941   0.00000   0.00000   0.01691   0.00000   0.00000   0.00000   0.00000   0.00000   0.00000 ...
   0.00000   0.00000   0.00000   0.07941   0.00000   0.00000   0.01691   0.00000   0.00000   0.00000   0.00000   0.00000 ...
   0.00000   0.00000   0.00000   0.00000   0.07941   0.00000   0.00000   0.01691   0.00000   0.00000   0.00000   0.00000 ...
   0.00000   0.00000   0.00000   0.00000   0.00000   0.00000   0.00000   0.00000  -0.22294   0.00000   0.00000   0.00000 ...
   0.00000   0.00000   0.00000   0.00000   0.00000   0.00000   0.00000   0.00000   0.00000  -0.22294   0.00000   0.00000 ...
   0.00000   0.00000   0.00000   0.00000   0.00000   0.00000   0.00000   0.00000   0.00000   0.00000  -0.22782   0.00000 ...
   0.00000   0.00000   0.00000   0.00000   0.00000   0.00000   0.00000   0.00000   0.00000   0.00000   0.00000  -0.22294 ...
   ...  only 12  components have been written...
 Atom #  2 - Spin component 2
  -2.47715   0.24897   0.00000   0.00000   0.00000   0.00000   0.00000   0.00000   0.00000   0.00000   0.00000   0.00000 ...
   0.24897   0.06379   0.00000   0.00000   0.00000   0.00000   0.00000   0.00000   0.00000   0.00000   0.00000   0.00000 ...
   0.00000   0.00000  -1.73877   0.00000   0.00000   0.06992   0.00000   0.00000   0.00000   0.00000   0.00000   0.00000 ...
   0.00000   0.00000   0.00000  -1.73877   0.00000   0.00000   0.06992   0.00000   0.00000   0.00000   0.00000   0.00000 ...
   0.00000   0.00000   0.00000   0.00000  -1.73877   0.00000   0.00000   0.06992   0.00000   0.00000   0.00000   0.00000 ...
   0.00000   0.00000   0.06992   0.00000   0.00000   0.01754   0.00000   0.00000   0.00000   0.00000   0.00000   0.00000 ...
   0.00000   0.00000   0.00000   0.06992   0.00000   0.00000   0.01754   0.00000   0.00000   0.00000   0.00000   0.00000 ...
   0.00000   0.00000   0.00000   0.00000   0.06992   0.00000   0.00000   0.01754   0.00000   0.00000   0.00000   0.00000 ...
   0.00000   0.00000   0.00000   0.00000   0.00000   0.00000   0.00000   0.00000  -0.16548   0.00000   0.00000   0.00000 ...
   0.00000   0.00000   0.00000   0.00000   0.00000   0.00000   0.00000   0.00000   0.00000  -0.16548   0.00000   0.00000 ...
   0.00000   0.00000   0.00000   0.00000   0.00000   0.00000   0.00000   0.00000   0.00000   0.00000  -0.16141   0.00000 ...
   0.00000   0.00000   0.00000   0.00000   0.00000   0.00000   0.00000   0.00000   0.00000   0.00000   0.00000  -0.16548 ...
   ...  only 12  components have been written...


 Augmentation waves occupancies Rhoij:
 Atom #  1 - Spin component 1
   0.99919  -0.02020   0.00000   0.00000   0.00000   0.00000   0.00000   0.00000   0.00000   0.00000   0.00000   0.00000 ...
  -0.02020   0.63541   0.00000   0.00000   0.00000   0.00000   0.00000   0.00000   0.00000   0.00000   0.00000   0.00000 ...
   0.00000   0.00000   1.00540   0.00000   0.00000   0.02002   0.00000   0.00000   0.00000   0.00000   0.00000   0.00000 ...
   0.00000   0.00000   0.00000   1.00540   0.00000   0.00000   0.02002   0.00000   0.00000   0.00000   0.00000   0.00000 ...
   0.00000   0.00000   0.00000   0.00000   1.00540   0.00000   0.00000   0.02002   0.00000   0.00000   0.00000   0.00000 ...
   0.00000   0.00000   0.02002   0.00000   0.00000   0.72702   0.00000   0.00000   0.00000   0.00000   0.00000   0.00000 ...
   0.00000   0.00000   0.00000   0.02002   0.00000   0.00000   0.72702   0.00000   0.00000   0.00000   0.00000   0.00000 ...
   0.00000   0.00000   0.00000   0.00000   0.02002   0.00000   0.00000   0.72702   0.00000   0.00000   0.00000   0.00000 ...
   0.00000   0.00000   0.00000   0.00000   0.00000   0.00000   0.00000   0.00000   0.99597   0.00000   0.00000   0.00000 ...
   0.00000   0.00000   0.00000   0.00000   0.00000   0.00000   0.00000   0.00000   0.00000   0.99597   0.00000   0.00000 ...
   0.00000   0.00000   0.00000   0.00000   0.00000   0.00000   0.00000   0.00000   0.00000   0.00000   0.98777   0.00000 ...
   0.00000   0.00000   0.00000   0.00000   0.00000   0.00000   0.00000   0.00000   0.00000   0.00000   0.00000   0.99597 ...
   ...  only 12  components have been written...
 Atom #  1 - Spin component 2
   0.99970  -0.01375   0.00000   0.00000   0.00000   0.00000   0.00000   0.00000   0.00000   0.00000   0.00000   0.00000 ...
  -0.01375   0.67222   0.00000   0.00000   0.00000   0.00000   0.00000   0.00000   0.00000   0.00000   0.00000   0.00000 ...
   0.00000   0.00000   1.00657   0.00000   0.00000   0.04118   0.00000   0.00000   0.00000   0.00000   0.00000   0.00000 ...
   0.00000   0.00000   0.00000   1.00657   0.00000   0.00000   0.04118   0.00000   0.00000   0.00000   0.00000   0.00000 ...
   0.00000   0.00000   0.00000   0.00000   1.00657   0.00000   0.00000   0.04118   0.00000   0.00000   0.00000   0.00000 ...
   0.00000   0.00000   0.04118   0.00000   0.00000   0.98415   0.00000   0.00000   0.00000   0.00000   0.00000   0.00000 ...
   0.00000   0.00000   0.00000   0.04118   0.00000   0.00000   0.98415   0.00000   0.00000   0.00000   0.00000   0.00000 ...
   0.00000   0.00000   0.00000   0.00000   0.04118   0.00000   0.00000   0.98415   0.00000   0.00000   0.00000   0.00000 ...
   0.00000   0.00000   0.00000   0.00000   0.00000   0.00000   0.00000   0.00000   0.63394   0.00000   0.00000   0.00000 ...
   0.00000   0.00000   0.00000   0.00000   0.00000   0.00000   0.00000   0.00000   0.00000   0.63394   0.00000   0.00000 ...
   0.00000   0.00000   0.00000   0.00000   0.00000   0.00000   0.00000   0.00000   0.00000   0.00000   0.38302   0.00000 ...
   0.00000   0.00000   0.00000   0.00000   0.00000   0.00000   0.00000   0.00000   0.00000   0.00000   0.00000   0.63394 ...
   ...  only 12  components have been written...
 Atom #  2 - Spin component 1
   0.99916  -0.02062   0.00000   0.00000   0.00000   0.00000   0.00000   0.00000   0.00000   0.00000   0.00000   0.00000 ...
  -0.02062   0.63933   0.00000   0.00000   0.00000   0.00000   0.00000   0.00000   0.00000   0.00000   0.00000   0.00000 ...
   0.00000   0.00000   1.00532   0.00000   0.00000   0.01872   0.00000   0.00000   0.00000   0.00000   0.00000   0.00000 ...
   0.00000   0.00000   0.00000   1.00532   0.00000   0.00000   0.01872   0.00000   0.00000   0.00000   0.00000   0.00000 ...
   0.00000   0.00000   0.00000   0.00000   1.00532   0.00000   0.00000   0.01872   0.00000   0.00000   0.00000   0.00000 ...
   0.00000   0.00000   0.01872   0.00000   0.00000   0.73045   0.00000   0.00000   0.00000   0.00000   0.00000   0.00000 ...
   0.00000   0.00000   0.00000   0.01872   0.00000   0.00000   0.73045   0.00000   0.00000   0.00000   0.00000   0.00000 ...
   0.00000   0.00000   0.00000   0.00000   0.01872   0.00000   0.00000   0.73045   0.00000   0.00000   0.00000   0.00000 ...
   0.00000   0.00000   0.00000   0.00000   0.00000   0.00000   0.00000   0.00000   0.99547   0.00000   0.00000   0.00000 ...
   0.00000   0.00000   0.00000   0.00000   0.00000   0.00000   0.00000   0.00000   0.00000   0.99547   0.00000   0.00000 ...
   0.00000   0.00000   0.00000   0.00000   0.00000   0.00000   0.00000   0.00000   0.00000   0.00000   0.98726   0.00000 ...
   0.00000   0.00000   0.00000   0.00000   0.00000   0.00000   0.00000   0.00000   0.00000   0.00000   0.00000   0.99547 ...
   ...  only 12  components have been written...
 Atom #  2 - Spin component 2
   0.99967  -0.01414   0.00000   0.00000   0.00000   0.00000   0.00000   0.00000   0.00000   0.00000   0.00000   0.00000 ...
  -0.01414   0.67522   0.00000   0.00000   0.00000   0.00000   0.00000   0.00000   0.00000   0.00000   0.00000   0.00000 ...
   0.00000   0.00000   1.00650   0.00000   0.00000   0.04003   0.00000   0.00000   0.00000   0.00000   0.00000   0.00000 ...
   0.00000   0.00000   0.00000   1.00650   0.00000   0.00000   0.04003   0.00000   0.00000   0.00000   0.00000   0.00000 ...
   0.00000   0.00000   0.00000   0.00000   1.00650   0.00000   0.00000   0.04003   0.00000   0.00000   0.00000   0.00000 ...
   0.00000   0.00000   0.04003   0.00000   0.00000   0.98718   0.00000   0.00000   0.00000   0.00000   0.00000   0.00000 ...
   0.00000   0.00000   0.00000   0.04003   0.00000   0.00000   0.98718   0.00000   0.00000   0.00000   0.00000   0.00000 ...
   0.00000   0.00000   0.00000   0.00000   0.04003   0.00000   0.00000   0.98718   0.00000   0.00000   0.00000   0.00000 ...
   0.00000   0.00000   0.00000   0.00000   0.00000   0.00000   0.00000   0.00000   0.62958   0.00000   0.00000   0.00000 ...
   0.00000   0.00000   0.00000   0.00000   0.00000   0.00000   0.00000   0.00000   0.00000   0.62958   0.00000   0.00000 ...
   0.00000   0.00000   0.00000   0.00000   0.00000   0.00000   0.00000   0.00000   0.00000   0.00000   0.37961   0.00000 ...
   0.00000   0.00000   0.00000   0.00000   0.00000   0.00000   0.00000   0.00000   0.00000   0.00000   0.00000   0.62958 ...
   ...  only 12  components have been written...

 "PAW+U" part of augmentation waves occupancies Rhoij:
 Atom #  1 - L=2 ONLY - Spin component 1
   0.99597   0.00000   0.00000   0.00000   0.00000   0.01337   0.00000   0.00000   0.00000   0.00000
   0.00000   0.99597   0.00000   0.00000   0.00000   0.00000   0.01337   0.00000   0.00000   0.00000
   0.00000   0.00000   0.98777   0.00000   0.00000   0.00000   0.00000   0.00442   0.00000   0.00000
   0.00000   0.00000   0.00000   0.99597   0.00000   0.00000   0.00000   0.00000   0.01337   0.00000
   0.00000   0.00000   0.00000   0.00000   0.98777   0.00000   0.00000   0.00000   0.00000   0.00442
   0.01337   0.00000   0.00000   0.00000   0.00000   0.00247   0.00000   0.00000   0.00000   0.00000
   0.00000   0.01337   0.00000   0.00000   0.00000   0.00000   0.00247   0.00000   0.00000   0.00000
   0.00000   0.00000   0.00442   0.00000   0.00000   0.00000   0.00000   0.00228   0.00000   0.00000
   0.00000   0.00000   0.00000   0.01337   0.00000   0.00000   0.00000   0.00000   0.00247   0.00000
   0.00000   0.00000   0.00000   0.00000   0.00442   0.00000   0.00000   0.00000   0.00000   0.00228
 Atom #  1 - L=2 ONLY - Spin component 2
   0.63394   0.00000   0.00000   0.00000   0.00000   0.04367   0.00000   0.00000   0.00000   0.00000
   0.00000   0.63394   0.00000   0.00000   0.00000   0.00000   0.04367   0.00000   0.00000   0.00000
   0.00000   0.00000   0.38302   0.00000   0.00000   0.00000   0.00000   0.03526   0.00000   0.00000
   0.00000   0.00000   0.00000   0.63394   0.00000   0.00000   0.00000   0.00000   0.04367   0.00000
   0.00000   0.00000   0.00000   0.00000   0.38302   0.00000   0.00000   0.00000   0.00000   0.03526
   0.04367   0.00000   0.00000   0.00000   0.00000   0.00338   0.00000   0.00000   0.00000   0.00000
   0.00000   0.04367   0.00000   0.00000   0.00000   0.00000   0.00338   0.00000   0.00000   0.00000
   0.00000   0.00000   0.03526   0.00000   0.00000   0.00000   0.00000   0.00341   0.00000   0.00000
   0.00000   0.00000   0.00000   0.04367   0.00000   0.00000   0.00000   0.00000   0.00338   0.00000
   0.00000   0.00000   0.00000   0.00000   0.03526   0.00000   0.00000   0.00000   0.00000   0.00341
 Atom #  2 - L=2 ONLY - Spin component 1
   0.99547   0.00000   0.00000   0.00000   0.00000   0.01295   0.00000   0.00000   0.00000   0.00000
   0.00000   0.99547   0.00000   0.00000   0.00000   0.00000   0.01295   0.00000   0.00000   0.00000
   0.00000   0.00000   0.98726   0.00000   0.00000   0.00000   0.00000   0.00406   0.00000   0.00000
   0.00000   0.00000   0.00000   0.99547   0.00000   0.00000   0.00000   0.00000   0.01295   0.00000
   0.00000   0.00000   0.00000   0.00000   0.98726   0.00000   0.00000   0.00000   0.00000   0.00406
   0.01295   0.00000   0.00000   0.00000   0.00000   0.00247   0.00000   0.00000   0.00000   0.00000
   0.00000   0.01295   0.00000   0.00000   0.00000   0.00000   0.00247   0.00000   0.00000   0.00000
   0.00000   0.00000   0.00406   0.00000   0.00000   0.00000   0.00000   0.00229   0.00000   0.00000
   0.00000   0.00000   0.00000   0.01295   0.00000   0.00000   0.00000   0.00000   0.00247   0.00000
   0.00000   0.00000   0.00000   0.00000   0.00406   0.00000   0.00000   0.00000   0.00000   0.00229
 Atom #  2 - L=2 ONLY - Spin component 2
   0.62958   0.00000   0.00000   0.00000   0.00000   0.04352   0.00000   0.00000   0.00000   0.00000
   0.00000   0.62958   0.00000   0.00000   0.00000   0.00000   0.04352   0.00000   0.00000   0.00000
   0.00000   0.00000   0.37961   0.00000   0.00000   0.00000   0.00000   0.03510   0.00000   0.00000
   0.00000   0.00000   0.00000   0.62958   0.00000   0.00000   0.00000   0.00000   0.04352   0.00000
   0.00000   0.00000   0.00000   0.00000   0.37961   0.00000   0.00000   0.00000   0.00000   0.03510
   0.04352   0.00000   0.00000   0.00000   0.00000   0.00338   0.00000   0.00000   0.00000   0.00000
   0.00000   0.04352   0.00000   0.00000   0.00000   0.00000   0.00338   0.00000   0.00000   0.00000
   0.00000   0.00000   0.03510   0.00000   0.00000   0.00000   0.00000   0.00341   0.00000   0.00000
   0.00000   0.00000   0.00000   0.04352   0.00000   0.00000   0.00000   0.00000   0.00338   0.00000
   0.00000   0.00000   0.00000   0.00000   0.03510   0.00000   0.00000   0.00000   0.00000   0.00341

 ---------- LDA+U DATA --------------------------------------------------- 

 ====== For Atom     1, occupations for correlated orbitals. lpawu =   2

 Atom   1. Occ. for lpawu and for spin  1 =   4.12241
 Atom   1. Occ. for lpawu and for spin  2 =   1.70263
 => On atom   1,  local Mag. for lpawu is       -2.419783

 == Occupation matrix for correlated orbitals:

 Occupation matrix for spin  1
     0.81642    0.00000    0.00000    0.00000    0.00000
     0.00000    0.81642    0.00000    0.00000    0.00000
     0.00000    0.00000    0.83658    0.00000    0.00000
     0.00000    0.00000    0.00000    0.81642    0.00000
     0.00000    0.00000    0.00000    0.00000    0.83658


 Occupation matrix for spin  2
     0.41582    0.00000    0.00000    0.00000    0.00000
     0.00000    0.41582    0.00000    0.00000    0.00000
     0.00000    0.00000    0.22759    0.00000    0.00000
     0.00000    0.00000    0.00000    0.41582    0.00000
     0.00000    0.00000    0.00000    0.00000    0.22759


 ====== For Atom     2, occupations for correlated orbitals. lpawu =   2

 Atom   2. Occ. for lpawu and for spin  1 =   4.12642
 Atom   2. Occ. for lpawu and for spin  2 =   1.68789
 => On atom   2,  local Mag. for lpawu is       -2.438529

 == Occupation matrix for correlated orbitals:

 Occupation matrix for spin  1
     0.81727    0.00000    0.00000    0.00000    0.00000
     0.00000    0.81727    0.00000    0.00000    0.00000
     0.00000    0.00000    0.83730    0.00000    0.00000
     0.00000    0.00000    0.00000    0.81727    0.00000
     0.00000    0.00000    0.00000    0.00000    0.83730


 Occupation matrix for spin  2
     0.41253    0.00000    0.00000    0.00000    0.00000
     0.00000    0.41253    0.00000    0.00000    0.00000
     0.00000    0.00000    0.22515    0.00000    0.00000
     0.00000    0.00000    0.00000    0.41253    0.00000
     0.00000    0.00000    0.00000    0.00000    0.22515




 # input for ujdet, cut it using 'sed -n "/MARK/,/MARK/p" abi.out > ujdet.in '------- 

           ndtset        4
              nat        2
           nspden        2
         macro_uj        1
           pawrad      2.02984247E+00
        ph0phiint      8.54332879E-01
        pawprtvol        0
              vsh1     3.6749325398E-03  3.6749325398E-03  0.0000000000E+00
                       0.0000000000E+00
              vsh2     3.6749325398E-03  3.6749325398E-03  0.0000000000E+00
                       0.0000000000E+00
              vsh3    -3.6749325398E-03 -3.6749325398E-03 -0.0000000000E+00
                      -0.0000000000E+00
              vsh4    -3.6749325398E-03 -3.6749325398E-03 -0.0000000000E+00
                      -0.0000000000E+00
              occ1     4.1143258220E+00  1.6703524817E+00  4.1251256652E+00
                       1.7123048052E+00
              occ2     4.1220490764E+00  1.6839286431E+00  4.1179968738E+00
                       1.6987556738E+00
              occ3     4.1372361610E+00  1.7304565794E+00  4.1122386769E+00
                       1.6606834109E+00
              occ4     4.1224155429E+00  1.7026241382E+00  4.1264239337E+00
                       1.6878975905E+00
             xred      0.0000000000E+00  0.0000000000E+00  0.0000000000E+00
                       5.0000000000E-01  5.0000000000E-01  5.0000000000E-01
           rprimd      5.4200000000E+00  0.0000000000E+00  0.0000000000E+00
                       0.0000000000E+00  5.4200000000E+00  0.0000000000E+00
                       0.0000000000E+00  0.0000000000E+00  5.4200000000E+00
            wfchr      4.3772661697E+00  3.0000000000E+00  2.0000000000E+00
                       1.4530610236E+00 -7.4483924347E-01  1.1680994649E-01

 # further possible options: 
 #    scdim    2 2 2 
 #    mdist    10.0  
 #  pawujga    2 
 # pawujopt    2 
 # pawujrad    3.0
 # ------- end input for ujdet: end-MARK  -------- 


 ---------- calculate U, (J) start ---------- 

 All pawujat  ok and equal to   1
 All macro_uj ok and equal to   1
 URES      ii    nat       r_max    U(J)[eV]   U_ASA[eV]   U_inf[eV]
 URES       1      2     4.69390     4.74556     3.67984     3.20151
 URES       2     16     9.38770     8.77696     6.80589     5.92123
 URES       3     54    14.08160     9.17084     7.11131     6.18695
 URES       4    128    18.77540     9.25649     7.17773     6.24474
 URES       5    250    23.46930     9.28511     7.19992     6.26404

 ---------- calculate U, (J) end -------------- 

================================================================================

 ----iterations are completed or convergence reached----

 Mean square residual over all n,k,spin=   2.3448E-09; max=  2.9796E-07
   0.1667  0.1667  0.1667    1  2.21587E-11 kpt; spin; max resid(k); each band:
  6.77E-13 4.15E-13 1.93E-12 1.94E-12 9.58E-13 9.62E-13 2.30E-12 2.28E-12
  8.41E-13 1.21E-12 8.98E-13 9.09E-13 9.71E-13 6.72E-13 1.17E-12 7.90E-13
  6.73E-13 8.85E-13 9.12E-13 1.99E-12 1.93E-12 1.45E-12 1.55E-12 2.22E-11
  2.05E-12
   0.5000  0.1667  0.1667    1  1.70029E-07 kpt; spin; max resid(k); each band:
  4.79E-13 2.67E-15 2.50E-12 2.01E-12 4.87E-13 1.41E-15 2.67E-12 2.83E-12
  1.27E-12 8.41E-13 1.26E-12 6.21E-13 8.14E-13 9.00E-13 1.22E-12 8.00E-13
  3.74E-13 7.09E-13 1.51E-12 1.38E-12 3.89E-12 1.18E-12 1.37E-12 1.74E-12
  1.70E-07
   0.5000  0.5000  0.1667    1  3.02663E-10 kpt; spin; max resid(k); each band:
  5.23E-13 2.31E-15 2.38E-12 2.38E-12 6.51E-13 3.16E-16 2.60E-12 2.60E-12
  1.12E-12 6.86E-13 9.00E-13 9.00E-13 1.16E-12 1.16E-12 5.94E-13 7.83E-13
  1.94E-15 1.36E-18 2.35E-12 2.35E-12 2.03E-12 1.01E-12 1.68E-12 1.68E-12
  3.03E-10
   0.5000  0.5000  0.5000    1  2.15166E-12 kpt; spin; max resid(k); each band:
  1.30E-16 3.91E-15 5.20E-13 5.20E-13 5.20E-13 8.78E-16 8.78E-16 8.78E-16
  6.19E-13 6.19E-13 6.19E-13 9.89E-13 9.89E-13 9.89E-13 1.47E-15 1.47E-15
  5.36E-19 5.36E-19 2.15E-12 2.15E-12 2.15E-12 1.18E-12 1.18E-12 1.18E-12
  1.14E-13
   0.1667  0.1667  0.1667    2  1.18977E-11 kpt; spin; max resid(k); each band:
  1.10E-12 1.06E-12 4.69E-12 4.68E-12 2.62E-12 2.81E-12 5.09E-12 5.07E-12
  6.22E-13 3.08E-12 3.26E-12 3.31E-12 3.30E-12 2.36E-12 2.93E-12 3.39E-12
  3.53E-12 3.10E-12 3.07E-12 1.58E-12 1.61E-12 1.33E-12 2.57E-12 1.19E-11
  1.36E-12
   0.5000  0.1667  0.1667    2  2.97960E-07 kpt; spin; max resid(k); each band:
  1.71E-13 4.28E-14 4.97E-12 5.02E-12 1.65E-13 4.57E-14 5.59E-12 5.20E-12
  1.66E-12 2.45E-12 2.58E-12 3.73E-12 2.55E-12 2.99E-12 3.82E-12 3.25E-12
  2.64E-12 2.34E-12 1.43E-12 1.59E-12 1.00E-12 1.93E-12 1.20E-12 1.68E-12
  2.98E-07
   0.5000  0.5000  0.1667    2  3.16346E-10 kpt; spin; max resid(k); each band:
  2.00E-13 4.23E-14 4.86E-12 4.86E-12 2.26E-13 4.75E-15 5.18E-12 5.18E-12
  1.71E-12 3.70E-12 3.18E-12 3.18E-12 2.85E-12 2.85E-12 2.40E-12 2.65E-12
  2.58E-16 2.90E-17 1.71E-12 1.71E-12 1.07E-12 2.83E-12 1.42E-12 1.42E-12
  3.16E-10
   0.5000  0.5000  0.5000    2  3.30361E-12 kpt; spin; max resid(k); each band:
  8.50E-17 5.14E-14 1.44E-13 1.44E-13 1.44E-13 5.43E-14 5.43E-14 5.43E-14
  6.01E-13 6.01E-13 6.01E-13 3.10E-12 3.10E-12 3.10E-12 2.73E-16 2.73E-16
  1.28E-15 1.28E-15 7.44E-13 7.44E-13 7.44E-13 3.30E-12 3.30E-12 3.30E-12
  1.32E-13
 reduced coordinates (array xred) for    2 atoms
       0.000000000000      0.000000000000      0.000000000000
       0.500000000000      0.500000000000      0.500000000000
 rms dE/dt=  0.0000E+00; max dE/dt=  0.0000E+00; dE/dt below (all hartree)
    1       0.000000000000      0.000000000000      0.000000000000
    2       0.000000000000      0.000000000000      0.000000000000

 cartesian coordinates (angstrom) at end:
    1      0.00000000000000     0.00000000000000     0.00000000000000
    2      1.43407023527890     1.43407023527890     1.43407023527890

 cartesian forces (hartree/bohr) at end:
    1     -0.00000000000000    -0.00000000000000    -0.00000000000000
    2     -0.00000000000000    -0.00000000000000    -0.00000000000000
 frms,max,avg= 0.0000000E+00 0.0000000E+00   0.000E+00  0.000E+00  0.000E+00 h/b

 cartesian forces (eV/Angstrom) at end:
    1     -0.00000000000000    -0.00000000000000    -0.00000000000000
    2     -0.00000000000000    -0.00000000000000    -0.00000000000000
 frms,max,avg= 0.0000000E+00 0.0000000E+00   0.000E+00  0.000E+00  0.000E+00 e/A
 length scales=  5.420000000000  5.420000000000  5.420000000000 bohr
              =  2.868140470558  2.868140470558  2.868140470558 angstroms
 Fermi (or HOMO) energy (hartree) =   0.25061   Average Vxc (hartree)=  -0.50492
 Magnetization (Bohr magneton)=  4.59259259E+00
 Total spin up =  1.82962963E+01   Total spin down =  1.37037037E+01
 Eigenvalues (hartree) for nkpt=   4  k points, SPIN UP:
 kpt#   1, nband= 25, wtk=  0.29630, kpt=  0.1667  0.1667  0.1667 (reduced coord)
  -2.99981  -2.99467  -1.74655  -1.74655  -1.74381  -1.73822  -1.73677  -1.73677
   0.02001   0.11389   0.11389   0.16490   0.16490   0.18715   0.20973   0.20973
   0.21310   0.23892   0.23892   0.54730   0.54730   0.60305   0.96823   0.96823
   0.98051
      occupation numbers for kpt#   1
   1.00000   1.00000   1.00000   1.00000   1.00000   1.00000   1.00000   1.00000
   1.00000   1.00000   1.00000   1.00000   1.00000   1.00000   1.00000   1.00000
   1.00000   1.00000   1.00000   0.00000   0.00000   0.00000   0.00000   0.00000
   0.00000
 kpt#   2, nband= 25, wtk=  0.44444, kpt=  0.5000  0.1667  0.1667 (reduced coord)
  -2.99954  -2.99510  -1.74876  -1.74865  -1.74523  -1.74093  -1.73774  -1.73764
   0.10759   0.10778   0.13942   0.13951   0.16883   0.16888   0.19953   0.19955
   0.22855   0.22874   0.29057   0.29078   0.71657   0.71709   0.74279   0.74310
   1.08205
      occupation numbers for kpt#   2
   1.00000   1.00000   1.00000   1.00000   1.00000   1.00000   1.00000   1.00000
   1.00000   1.00000   1.00000   1.00000   1.00000   1.00000   1.00000   1.00000
   1.00000   1.00000   0.00000   0.00000   0.00000   0.00000   0.00000   0.00000
   0.00000
 kpt#   3, nband= 25, wtk=  0.22222, kpt=  0.5000  0.5000  0.1667 (reduced coord)
  -2.99928  -2.99483  -1.74884  -1.74884  -1.74415  -1.73985  -1.73594  -1.73594
   0.10027   0.10046   0.13644   0.13644   0.20512   0.20512   0.22023   0.22037
   0.22707   0.22736   0.35434   0.35434   0.51965   0.52013   0.83105   0.83105
   0.87271
      occupation numbers for kpt#   3
   1.00000   1.00000   1.00000   1.00000   1.00000   1.00000   1.00000   1.00000
   1.00000   1.00000   1.00000   1.00000   1.00000   1.00000   1.00000   1.00000
   1.00000   1.00000   0.00000   0.00000   0.00000   0.00000   0.00000   0.00000
   0.00000
 kpt#   4, nband= 25, wtk=  0.03704, kpt=  0.5000  0.5000  0.5000 (reduced coord)
  -2.99910  -2.99465  -1.74402  -1.74402  -1.74402  -1.73974  -1.73974  -1.73974
   0.14234   0.14234   0.14234   0.14238   0.14238   0.14238   0.23065   0.23065
   0.23093   0.23093   0.56892   0.56892   0.56892   0.56913   0.56913   0.56913
   0.64047
      occupation numbers for kpt#   4
   1.00000   1.00000   1.00000   1.00000   1.00000   1.00000   1.00000   1.00000
   1.00000   1.00000   1.00000   1.00000   1.00000   1.00000   1.00000   1.00000
   1.00000   1.00000   0.00000   0.00000   0.00000   0.00000   0.00000   0.00000
   0.00000
 Eigenvalues (hartree) for nkpt=   4  k points, SPIN DOWN:
 kpt#   1, nband= 25, wtk=  0.29630, kpt=  0.1667  0.1667  0.1667 (reduced coord)
  -2.89775  -2.89318  -1.64758  -1.64758  -1.64426  -1.63935  -1.63727  -1.63727
   0.02430   0.17875   0.17875   0.23937   0.23937   0.26056   0.29373   0.30719
   0.30719   0.32484   0.32484   0.57590   0.57590   0.62880   0.97595   0.97595
   0.99293
      occupation numbers for kpt#   1
   1.00000   1.00000   1.00000   1.00000   1.00000   1.00000   1.00000   1.00000
   1.00000   1.00000   1.00000   1.00000   1.00000   0.00000   0.00000   0.00000
   0.00000   0.00000   0.00000   0.00000   0.00000   0.00000   0.00000   0.00000
   0.00000
 kpt#   2, nband= 25, wtk=  0.44444, kpt=  0.5000  0.1667  0.1667 (reduced coord)
  -2.89733  -2.89372  -1.64980  -1.64978  -1.64551  -1.64204  -1.63833  -1.63830
   0.13684   0.13703   0.20937   0.20945   0.23596   0.23607   0.28688   0.28691
   0.32078   0.32097   0.36290   0.36305   0.74281   0.74321   0.76605   0.76629
   1.09415
      occupation numbers for kpt#   2
   1.00000   1.00000   1.00000   1.00000   1.00000   1.00000   1.00000   1.00000
   1.00000   1.00000   1.00000   1.00000   1.00000   1.00000   0.00000   0.00000
   0.00000   0.00000   0.00000   0.00000   0.00000   0.00000   0.00000   0.00000
   0.00000
 kpt#   3, nband= 25, wtk=  0.22222, kpt=  0.5000  0.5000  0.1667 (reduced coord)
  -2.89707  -2.89346  -1.65031  -1.65031  -1.64442  -1.64095  -1.63651  -1.63651
   0.15080   0.15122   0.20455   0.20455   0.24915   0.24915   0.31565   0.31588
   0.32763   0.32811   0.40076   0.40076   0.56792   0.56837   0.84119   0.84119
   0.89354
      occupation numbers for kpt#   3
   1.00000   1.00000   1.00000   1.00000   1.00000   1.00000   1.00000   1.00000
   1.00000   1.00000   1.00000   1.00000   1.00000   1.00000   0.00000   0.00000
   0.00000   0.00000   0.00000   0.00000   0.00000   0.00000   0.00000   0.00000
   0.00000
 kpt#   4, nband= 25, wtk=  0.03704, kpt=  0.5000  0.5000  0.5000 (reduced coord)
  -2.89689  -2.89328  -1.64461  -1.64461  -1.64461  -1.64116  -1.64116  -1.64116
   0.19906   0.19906   0.19906   0.19968   0.19968   0.19968   0.33129   0.33129
   0.33177   0.33177   0.59990   0.59990   0.59990   0.60020   0.60020   0.60020
   0.66863
      occupation numbers for kpt#   4
   1.00000   1.00000   1.00000   1.00000   1.00000   1.00000   1.00000   1.00000
   1.00000   1.00000   1.00000   1.00000   1.00000   1.00000   0.00000   0.00000
   0.00000   0.00000   0.00000   0.00000   0.00000   0.00000   0.00000   0.00000
   0.00000
 Total charge density [el/Bohr^3]
,     Maximum=    2.6959E+00  at reduced coord.    0.0000    0.0000    0.0000
,Next maximum=    2.6950E+00  at reduced coord.    0.5000    0.5000    0.5000
,     Minimum=    3.1748E-02  at reduced coord.    0.5000    0.0000    0.0000
,Next minimum=    3.1748E-02  at reduced coord.    0.0000    0.5000    0.0000
,  Integrated=    3.2000E+01
 Spin up density      [el/Bohr^3]
,     Maximum=    1.5697E+00  at reduced coord.    0.5000    0.5000    0.5000
,Next maximum=    1.5685E+00  at reduced coord.    0.0000    0.0000    0.0000
,     Minimum=    1.4287E-02  at reduced coord.    0.5000    0.0000    0.0000
,Next minimum=    1.4287E-02  at reduced coord.    0.0000    0.5000    0.0000
,  Integrated=    1.8296E+01
 Spin down density    [el/Bohr^3]
,     Maximum=    1.1274E+00  at reduced coord.    0.0000    0.0000    0.0000
,Next maximum=    1.1252E+00  at reduced coord.    0.5000    0.5000    0.5000
,     Minimum=    1.7458E-02  at reduced coord.    0.5000    0.5000    0.0000
,Next minimum=    1.7458E-02  at reduced coord.    0.5000    0.0000    0.5000
,  Integrated=    1.3704E+01
 Magnetization (spin up - spin down) [el/Bohr^3]
,     Maximum=    4.4452E-01  at reduced coord.    0.5000    0.5000    0.5000
,Next maximum=    4.4105E-01  at reduced coord.    0.0000    0.0000    0.0000
,     Minimum=   -4.5169E-03  at reduced coord.    0.5000    0.2500    0.0000
,Next minimum=   -4.5169E-03  at reduced coord.    0.2500    0.5000    0.0000
,  Integrated=    4.5926E+00
 Relative magnetization (=zeta, between -1 and 1)
,     Maximum=    2.5445E-01  at reduced coord.    0.5000    0.5000    0.8125
,Next maximum=    2.5445E-01  at reduced coord.    0.5000    0.8125    0.5000
,     Minimum=   -1.2493E-01  at reduced coord.    0.5000    0.2500    0.0000
,Next minimum=   -1.2493E-01  at reduced coord.    0.2500    0.5000    0.0000

--------------------------------------------------------------------------------
 Components of total free energy (in Hartree) :

    Kinetic energy  =  1.88435979382453E+01
    Hartree energy  =  4.68600647936219E+01
    XC energy       = -2.34928259965788E+01
    Ewald energy    = -1.71889993187126E+02
    PspCore energy  =  1.45811374803458E+01
    Loc. psp. energy= -1.18745217961765E+02
    Spherical terms = -1.48253006912417E+01
    >>>>> Internal E= -2.48668537624499E+02

    -kT*entropy     =  5.08873107405571E-05
    >>>>>>>>> Etotal= -2.48668486737188E+02

 "Double-counting" decomposition of free energy:
    Band energy     = -2.92462962855469E+01
    Ewald energy    = -1.71889993187126E+02
    PspCore energy  =  1.45811374803458E+01
    Dble-C XC-energy= -3.96820492804068E+01
    Spherical terms = -2.24527342083096E+01
    >>>>> Internal E= -2.48689935481044E+02

    -kT*entropy     =  5.08873107405571E-05
    >>>> Etotal (DC)= -2.48689884593733E+02

  >Total energy in eV           = -6.76661364649095E+03
  >Total DC energy in eV        = -6.76719591177917E+03
--------------------------------------------------------------------------------

 Cartesian components of stress tensor (hartree/bohr^3)
  sigma(1 1)=  7.33852163E-03  sigma(3 2)=  0.00000000E+00
  sigma(2 2)=  7.33852163E-03  sigma(3 1)=  0.00000000E+00
  sigma(3 3)=  7.33852163E-03  sigma(2 1)=  0.00000000E+00

-Cartesian components of stress tensor (GPa)         [Pressure= -2.1591E+02 GPa]
- sigma(1 1)=  2.15906724E+02  sigma(3 2)=  0.00000000E+00
- sigma(2 2)=  2.15906724E+02  sigma(3 1)=  0.00000000E+00
- sigma(3 3)=  2.15906724E+02  sigma(2 1)=  0.00000000E+00

== END DATASET(S) ==============================================================
================================================================================
  
 -outvars: echo values of variables after computation  --------
            acell      5.4200000000E+00  5.4200000000E+00  5.4200000000E+00 Bohr
              amu      5.58470000E+01
         atvshift        0.00367    0.00367    0.00367    0.00367    0.00367
                         0.00367    0.00367    0.00367    0.00367    0.00367
                         0.00000    0.00000    0.00000    0.00000    0.00000
                         0.00000    0.00000    0.00000    0.00000    0.00000
           diemix      4.50000000E-01
        dmatpuopt           3
             ecut      8.00000000E+00 Hartree
           etotal     -2.4868988459E+02
            fcart     -0.0000000000E+00 -0.0000000000E+00 -0.0000000000E+00
                      -0.0000000000E+00 -0.0000000000E+00 -0.0000000000E+00
-          fftalg         112
           irdwfk           1
           istwfk        0    0    0    9
              ixc          11
              kpt      1.66666667E-01  1.66666667E-01  1.66666667E-01
                       5.00000000E-01  1.66666667E-01  1.66666667E-01
                       5.00000000E-01  5.00000000E-01  1.66666667E-01
                       5.00000000E-01  5.00000000E-01  5.00000000E-01
         kptrlatt        3    0    0      0    3    0      0    0    3
          kptrlen      1.62600000E+01
            lpawu           2
         macro_uj        1
P           mkmem           4
            natom           2
            nband          25
        natvshift        5
            ngfft          15      15      15
          ngfftdg          32      32      32
             nkpt           4
           nspden           2
           nsppol           2
             nsym          48
           ntypat           1
              occ      1.000000  1.000000  1.000000  1.000000  1.000000  1.000000
                       1.000000  1.000000  1.000000  1.000000  1.000000  1.000000
                       1.000000  1.000000  1.000000  1.000000  1.000000  1.000000
                       1.000000  0.000000  0.000000  0.000000  0.000000  0.000000
                       0.000000
                       1.000000  1.000000  1.000000  1.000000  1.000000  1.000000
                       1.000000  1.000000  1.000000  1.000000  1.000000  1.000000
                       1.000000  1.000000  1.000000  1.000000  1.000000  1.000000
                       0.000000  0.000000  0.000000  0.000000  0.000000  0.000000
                       0.000000
                       1.000000  1.000000  1.000000  1.000000  1.000000  1.000000
                       1.000000  1.000000  1.000000  1.000000  1.000000  1.000000
                       1.000000  1.000000  1.000000  1.000000  1.000000  1.000000
                       0.000000  0.000000  0.000000  0.000000  0.000000  0.000000
                       0.000000
                       1.000000  1.000000  1.000000  1.000000  1.000000  1.000000
                       1.000000  1.000000  1.000000  1.000000  1.000000  1.000000
                       1.000000  1.000000  1.000000  1.000000  1.000000  1.000000
                       0.000000  0.000000  0.000000  0.000000  0.000000  0.000000
                       0.000000
                       1.000000  1.000000  1.000000  1.000000  1.000000  1.000000
                       1.000000  1.000000  1.000000  1.000000  1.000000  1.000000
                       1.000000  0.000000  0.000000  0.000000  0.000000  0.000000
                       0.000000  0.000000  0.000000  0.000000  0.000000  0.000000
                       0.000000
                       1.000000  1.000000  1.000000  1.000000  1.000000  1.000000
                       1.000000  1.000000  1.000000  1.000000  1.000000  1.000000
                       1.000000  1.000000  0.000000  0.000000  0.000000  0.000000
                       0.000000  0.000000  0.000000  0.000000  0.000000  0.000000
                       0.000000
                       1.000000  1.000000  1.000000  1.000000  1.000000  1.000000
                       1.000000  1.000000  1.000000  1.000000  1.000000  1.000000
                       1.000000  1.000000  0.000000  0.000000  0.000000  0.000000
                       0.000000  0.000000  0.000000  0.000000  0.000000  0.000000
                       0.000000
                       1.000000  1.000000  1.000000  1.000000  1.000000  1.000000
                       1.000000  1.000000  1.000000  1.000000  1.000000  1.000000
                       1.000000  1.000000  0.000000  0.000000  0.000000  0.000000
                       0.000000  0.000000  0.000000  0.000000  0.000000  0.000000
                       0.000000
           occopt           4
        pawecutdg      4.00000000E+01 Hartree
         pawujrad      2.6686600000E+00 Bohr
           prtden           0
           prteig           0
            prtwf           0
           shiftk      5.00000000E-01  5.00000000E-01  5.00000000E-01
          spgroup         221
           strten      7.3385216330E-03  7.3385216330E-03  7.3385216330E-03
                       0.0000000000E+00  0.0000000000E+00  0.0000000000E+00
           symrel      1  0  0   0  1  0   0  0  1      -1  0  0   0 -1  0   0  0 -1
                      -1  0  0   0  1  0   0  0 -1       1  0  0   0 -1  0   0  0  1
                      -1  0  0   0 -1  0   0  0  1       1  0  0   0  1  0   0  0 -1
                       1  0  0   0 -1  0   0  0 -1      -1  0  0   0  1  0   0  0  1
                       0  1  0   1  0  0   0  0  1       0 -1  0  -1  0  0   0  0 -1
                       0 -1  0   1  0  0   0  0 -1       0  1  0  -1  0  0   0  0  1
                       0 -1  0  -1  0  0   0  0  1       0  1  0   1  0  0   0  0 -1
                       0  1  0  -1  0  0   0  0 -1       0 -1  0   1  0  0   0  0  1
                       0  0  1   1  0  0   0  1  0       0  0 -1  -1  0  0   0 -1  0
                       0  0 -1   1  0  0   0 -1  0       0  0  1  -1  0  0   0  1  0
                       0  0 -1  -1  0  0   0  1  0       0  0  1   1  0  0   0 -1  0
                       0  0  1  -1  0  0   0 -1  0       0  0 -1   1  0  0   0  1  0
                       1  0  0   0  0  1   0  1  0      -1  0  0   0  0 -1   0 -1  0
                      -1  0  0   0  0  1   0 -1  0       1  0  0   0  0 -1   0  1  0
                      -1  0  0   0  0 -1   0  1  0       1  0  0   0  0  1   0 -1  0
                       1  0  0   0  0 -1   0 -1  0      -1  0  0   0  0  1   0  1  0
                       0  1  0   0  0  1   1  0  0       0 -1  0   0  0 -1  -1  0  0
                       0 -1  0   0  0  1  -1  0  0       0  1  0   0  0 -1   1  0  0
                       0 -1  0   0  0 -1   1  0  0       0  1  0   0  0  1  -1  0  0
                       0  1  0   0  0 -1  -1  0  0       0 -1  0   0  0  1   1  0  0
                       0  0  1   0  1  0   1  0  0       0  0 -1   0 -1  0  -1  0  0
                       0  0 -1   0  1  0  -1  0  0       0  0  1   0 -1  0   1  0  0
                       0  0 -1   0 -1  0   1  0  0       0  0  1   0  1  0  -1  0  0
                       0  0  1   0 -1  0  -1  0  0       0  0 -1   0  1  0   1  0  0
           tolvrs      1.00000000E-08
           tsmear      1.83746627E-03 Hartree
            typat      1  1
          usepawu           1
           useylm           1
              wtk        0.29630    0.44444    0.22222    0.03704
           xangst      0.0000000000E+00  0.0000000000E+00  0.0000000000E+00
                       1.4340702353E+00  1.4340702353E+00  1.4340702353E+00
            xcart      0.0000000000E+00  0.0000000000E+00  0.0000000000E+00
                       2.7100000000E+00  2.7100000000E+00  2.7100000000E+00
             xred      0.0000000000E+00  0.0000000000E+00  0.0000000000E+00
                       5.0000000000E-01  5.0000000000E-01  5.0000000000E-01
            znucl       26.00000

================================================================================


- Timing analysis has been suppressed with timopt=0



================================================================================

 Suggested references for the acknowledgment of ABINIT usage.

 The users of ABINIT have little formal obligations with respect to the ABINIT group
 (those specified in the GNU General Public License, http://www.gnu.org/copyleft/gpl.txt).
 However, it is common practice in the scientific literature,
 to acknowledge the efforts of people that have made the research possible.
 In this spirit, please find below suggested citations of work written by ABINIT developers,
 corresponding to implementations inside of ABINIT that you have used in the present run.
 Note also that it will be of great value to readers of publications presenting these results,
 to read papers enabling them to understand the theoretical formalism and details
 of the ABINIT implementation.
 For information on why they are suggested, see also http://www.abinit.org/about/?text=acknowledgments.

 [1] Gamma and beta cerium: LDA+U calculations of ground-state parameters.
 B. Amadon, F. Jollet and M. Torrent, Phys. Rev. B 77, 155104 (2008).
 Comment : LDA+U calculations, usepawu/=0. Strong suggestion to cite this paper.

 [2] Implementation of the Projector Augmented-Wave Method in the ABINIT code.
 M. Torrent, F. Jollet, F. Bottin, G. Zerah, and X. Gonze Comput. Mat. Science 42, 337, (2008).
 Comment : PAW calculations. Strong suggestion to cite this paper.

 [3] ABINIT : First-principles approach of materials and nanosystem properties.
 X. Gonze, B. Amadon, P.-M. Anglade, J.-M. Beuken, F. Bottin, P. Boulanger, F. Bruneval,
 D. Caliste, R. Caracas, M. Cote, T. Deutsch, L. Genovese, Ph. Ghosez, M. Giantomassi
 S. Goedecker, D.R. Hamann, P. Hermet, F. Jollet, G. Jomard, S. Leroux, M. Mancini, S. Mazevet,
 M.J.T. Oliveira, G. Onida, Y. Pouillon, T. Rangel, G.-M. Rignanese, D. Sangalli, R. Shaltaf,
 M. Torrent, M.J. Verstraete, G. Zerah, J.W. Zwanziger
 Computer Phys. Comm. 180, 2582-2615 (2009).
 Comment : the third generic paper describing the ABINIT project.
 Note that a version of this paper, that is not formatted for Computer Phys. Comm. 
 is available at http://www.abinit.org/about/ABINIT_CPC_v10.pdf .
 The licence allows the authors to put it on the Web.

 [4] A brief introduction to the ABINIT software package.
 X. Gonze, G.-M. Rignanese, M. Verstraete, J.-M. Beuken, Y. Pouillon, R. Caracas, F. Jollet,
 M. Torrent, G. Zerah, M. Mikami, Ph. Ghosez, M. Veithen, J.-Y. Raty, V. Olevano, F. Bruneval,
 L. Reining, R. Godby, G. Onida, D.R. Hamann, and D.C. Allan.
 Z. Kristallogr. 220, 558-562 (2005).
 Comment : the second generic paper describing the ABINIT project. Note that this paper
 should be cited especially if you are using the GW part of ABINIT, as several authors
 of this part are not in the list of authors of the first or third paper.
 The .pdf of the latter paper is available at http://www.abinit.org/about/zfk_0505-06_558-562.pdf.
 Note that it should not redistributed (Copyright by Oldenburg Wissenshaftverlag,
 the licence allows the authors to put it on the Web).


 And optionally :

 [5] First-principles computation of material properties : the ABINIT software project. 
 X. Gonze, J.-M. Beuken, R. Caracas, F. Detraux, M. Fuchs, G.-M. Rignanese, L. Sindic,
 M. Verstraete, G. Zerah, F. Jollet, M. Torrent, A. Roy, M. Mikami, Ph. Ghosez, J.-Y. Raty, D.C. Allan.
 Computational Materials Science 25, 478-492 (2002). http://dx.doi.org/10.1016/S0927-0256(02)00325-7
 Comment : the original paper describing the ABINIT project.
-
- Proc.   0 individual time (sec): cpu=          8.5  wall=          8.5

================================================================================

 Calculation completed.
.Delivered   10 WARNINGs and   0 COMMENTs to log file.
+Overall time at end (sec) : cpu=          8.5  wall=          8.5
