
.Version 7.9.3 of ABINIT 
.(MPI version, prepared for a x86_64_linux_gnu4.7 computer) 

.Copyright (C) 1998-2014 ABINIT group . 
 ABINIT comes with ABSOLUTELY NO WARRANTY.
 It is free software, and you are welcome to redistribute it
 under certain conditions (GNU General Public License,
 see ~abinit/COPYING or http://www.gnu.org/copyleft/gpl.txt).

 ABINIT is a project of the Universite Catholique de Louvain,
 Corning Inc. and other collaborators, see ~abinit/doc/developers/contributors.txt .
 Please read ~abinit/doc/users/acknowledgments.html for suggested
 acknowledgments of the ABINIT effort.
 For more information, see http://www.abinit.org .

.Starting date : Sat 30 Aug 2014.
- ( at 22h19 )
  
- input  file    -> t30.in
- output file    -> t30.out
- root for input  files -> t30i
- root for output files -> t30o


 Symmetries : space group F-4 3 m (#216); Bravais cF (face-center cubic)
================================================================================
 Values of the parameters that define the memory need of the present run
   intxc =         1  ionmov =         0    iscf =         3 xclevel =         1
  lmnmax =         2   lnmax =         2   mband =         4  mffmem =         1
P  mgfft =        10   mkmem =         2 mpssoang=         3     mpw =        37
  mqgrid =      3001   natom =         2    nfft =      1000    nkpt =         2
  nloalg =         4  nspden =         1 nspinor =         1  nsppol =         1
    nsym =        24  n1xccc =      2501  ntypat =         1  occopt =         0
================================================================================
P This job should need less than                       0.774 Mbytes of memory.
P Max. in main chain + nonlop.f + opernl.f
P            9 blocks of mpw  integer numbers, for      0.001 Mbytes.
P           55 blocks of mpw  real(dp)  numbers, for      0.016 Mbytes.
P            2 blocks of nfft integer numbers, for      0.008 Mbytes.
P           19 blocks of nfft real(dp)  numbers, for      0.145 Mbytes.
P              Additional     real(dp)  numbers, for      0.367 Mbytes.
P              With residue estimated to be             0.237 Mbytes.
P
P Comparison of the memory needs of different chains
P Main chain + fourwf.f                 0.746 Mbytes.
P Main chain + nonlop.f + opernl.f      0.774 Mbytes.
P XC chain                              0.729 Mbytes.
P mkrho chain                           0.695 Mbytes.
P fourdp chain                          0.695 Mbytes.
- parallel k-point chain                0.673 Mbytes.
P newvtr chain                          0.688 Mbytes.
  Rough estimation (10% accuracy) of disk space for files :
_ WF disk file :      0.007 Mbytes ; DEN or POT disk file :      0.010 Mbytes.
================================================================================

--------------------------------------------------------------------------------
------------- Echo of variables that govern the present computation ------------
--------------------------------------------------------------------------------
-
- outvars: echo of selected default values                                      
-   accesswff0 =  0 , fftalg0 =112 , wfoptalg0 =  0
-
- outvars: echo of global parameters not present in the input file              
-  max_nthreads =    0
-
 -outvars: echo values of preprocessed input variables --------
            acell      1.0263110000E+01  1.0263110000E+01  1.0263110000E+01 Bohr
              amu      2.80855000E+01
           diemac      1.00000000E+00
           diemix      3.33333333E-01
             ecut      2.00000000E+00 Hartree
           enunit           2
-          fftalg         112
            intxc           1
             iscf           3
              kpt      1.00000000E+00  1.00000000E+00  1.00000000E+00
                       1.00000000E+00  2.00000000E+00  2.00000000E+00
           kptnrm      4.00000000E+00
           kptopt           0
P           mkmem           2
            natom           2
            nband           4
            ngfft          10      10      10
             nkpt           2
            nstep          20
             nsym          24
           ntypat           1
              occ      2.000000  2.000000  2.000000  2.000000
           occopt           0
           prtpot           2
           prtvha           1
          prtvhxc           1
           prtvol          10
           prtvxc           1
           prt1dm           1
            rprim      0.0000000000E+00  5.0000000000E-01  5.0000000000E-01
                       5.0000000000E-01  0.0000000000E+00  5.0000000000E-01
                       5.0000000000E-01  5.0000000000E-01  0.0000000000E+00
          spgroup         216
           symrel      1  0  0   0  1  0   0  0  1       0  1 -1   1  0 -1   0  0 -1
                      -1  0  0  -1  0  1  -1  1  0       0 -1  1   0 -1  0   1 -1  0
                      -1  0  1  -1  0  0  -1  1  0       0 -1  0   0 -1  1   1 -1  0
                       0 -1  1   1 -1  0   0 -1  0       0  1 -1   0  0 -1   1  0 -1
                       0  0 -1   1  0 -1   0  1 -1      -1  1  0  -1  0  1  -1  0  0
                       1  0 -1   0  1 -1   0  0 -1       1 -1  0   0 -1  0   0 -1  1
                      -1  0  0  -1  1  0  -1  0  1       0  1  0   1  0  0   0  0  1
                       0  0  1   0  1  0   1  0  0       1  0  0   0  0  1   0  1  0
                       0  0  1   1  0  0   0  1  0       0  1  0   0  0  1   1  0  0
                      -1  0  1  -1  1  0  -1  0  0       0  0 -1   0  1 -1   1  0 -1
                       1  0 -1   0  0 -1   0  1 -1       1 -1  0   0 -1  1   0 -1  0
                       0 -1  0   1 -1  0   0 -1  1      -1  1  0  -1  0  0  -1  0  1
           timopt          -1
            tnons      0.0000000  0.0000000  0.0000000     0.0000000  0.0000000 -0.5000000
                      -0.5000000  0.0000000  0.0000000     0.0000000 -0.5000000  0.0000000
                      -0.5000000  0.0000000  0.0000000     0.0000000 -0.5000000  0.0000000
                       0.0000000 -0.5000000  0.0000000     0.0000000  0.0000000 -0.5000000
                       0.0000000  0.0000000 -0.5000000    -0.5000000  0.0000000  0.0000000
                       0.0000000  0.0000000 -0.5000000     0.0000000 -0.5000000  0.0000000
                      -0.5000000  0.0000000  0.0000000     0.0000000  0.0000000  0.0000000
                       0.0000000  0.0000000  0.0000000     0.0000000  0.0000000  0.0000000
                       0.0000000  0.0000000  0.0000000     0.0000000  0.0000000  0.0000000
                      -0.5000000  0.0000000  0.0000000     0.0000000  0.0000000 -0.5000000
                       0.0000000  0.0000000 -0.5000000     0.0000000 -0.5000000  0.0000000
                       0.0000000 -0.5000000  0.0000000    -0.5000000  0.0000000  0.0000000
           tolwfr      1.00000000E-24
            typat      1  1
              wtk        0.25000    0.75000
           xangst     -6.7887548766E-01 -6.7887548766E-01 -6.7887548766E-01
                       6.7887548766E-01  6.7887548766E-01  6.7887548766E-01
            xcart     -1.2828887500E+00 -1.2828887500E+00 -1.2828887500E+00
                       1.2828887500E+00  1.2828887500E+00  1.2828887500E+00
             xred     -1.2500000000E-01 -1.2500000000E-01 -1.2500000000E-01
                       1.2500000000E-01  1.2500000000E-01  1.2500000000E-01
            znucl       14.00000

================================================================================

 chkinp: Checking input parameters for consistency.

================================================================================
== DATASET  1 ==================================================================
-   nproc =    1

 Exchange-correlation functional for the present dataset will be:
  LDA: new Teter (4/93) with spin-polarized option - ixc=1
 Citation for XC functional:
  S. Goedecker, M. Teter, J. Huetter, PRB 54, 1703 (1996)

 Real(R)+Recip(G) space primitive vectors, cartesian coordinates (Bohr,Bohr^-1):
 R(1)=  0.0000000  5.1315550  5.1315550  G(1)= -0.0974364  0.0974364  0.0974364
 R(2)=  5.1315550  0.0000000  5.1315550  G(2)=  0.0974364 -0.0974364  0.0974364
 R(3)=  5.1315550  5.1315550  0.0000000  G(3)=  0.0974364  0.0974364 -0.0974364
 Unit cell volume ucvol=  2.7025701E+02 bohr^3
 Angles (23,13,12)=  6.00000000E+01  6.00000000E+01  6.00000000E+01 degrees

 getcut: wavevector=  0.0000  0.0000  0.0000  ngfft=  10  10  10
         ecut(hartree)=      2.000   => boxcut(ratio)=   2.18603

--- Pseudopotential description ------------------------------------------------
- pspini: atom type   1  psp file is /home/gonze/ABINIT/ABINITv7.9.3/trunk/7.9.3-private/tests/Psps_for_tests/14si.pspnc
- pspatm: opening atomic psp file    /home/gonze/ABINIT/ABINITv7.9.3/trunk/7.9.3-private/tests/Psps_for_tests/14si.pspnc
-  Troullier-Martins psp for element  Si        Thu Oct 27 17:31:21 EDT 1994
- 14.00000   4.00000    940714                znucl, zion, pspdat
    1    1    2    2      2001   0.00000      pspcod,pspxc,lmax,lloc,mmax,r2well
    0   5.907  14.692    1   2.0872718        l,e99.0,e99.9,nproj,rcpsp
   0.00000000   0.00000000   0.00000000   0.00000000     rms, ekb1, ekb2, epsatm
    1   2.617   4.181    1   2.0872718        l,e99.0,e99.9,nproj,rcpsp
   0.00000000   0.00000000   0.00000000   0.00000000     rms, ekb1, ekb2, epsatm
    2   0.000   0.000    0   2.0872718        l,e99.0,e99.9,nproj,rcpsp
   0.00000000   0.00000000   0.00000000   0.00000000     rms, ekb1, ekb2, epsatm
    1.80626423934776    0.22824404341771    1.17378968127746   rchrg,fchrg,qchrg
 pspatm: epsatm=    1.43386982
         --- l  ekb(1:nproj) -->
             0    3.287949
             1    1.849886
 pspatm: atomic psp has been read  and splines computed

   2.29419171E+01                                ecore*ucvol(ha*bohr**3)
--------------------------------------------------------------------------------

P newkpt: treating      4 bands with npw=      37 for ikpt=   1 by node    0
P newkpt: treating      4 bands with npw=      33 for ikpt=   2 by node    0

_setup2: Arith. and geom. avg. npw (full set) are      34.000      33.958

================================================================================

     iter   Etot(hartree)      deltaE(h)  residm     vres2

 ETOT  1  -8.7248446357165    -8.725E+00 2.847E-04 2.510E-01

 prteigrs : about to open file t30o_EIG
 Fermi (or HOMO) energy (hartree) =   0.17940   Average Vxc (hartree)=  -0.35233
 Eigenvalues (hartree) for nkpt=   2  k points:
 kpt#   1, nband=  4, wtk=  0.25000, kpt=  0.2500  0.2500  0.2500 (reduced coord)
  -0.19701   0.06539   0.17939   0.17940
 kpt#   2, nband=  4, wtk=  0.75000, kpt=  0.2500  0.5000  0.5000 (reduced coord)
  -0.12572  -0.02395   0.07752   0.11909
 Fermi (or HOMO) energy (eV) =   4.88178   Average Vxc (eV)=  -9.58740
 Eigenvalues (   eV  ) for nkpt=   2  k points:
 kpt#   1, nband=  4, wtk=  0.25000, kpt=  0.2500  0.2500  0.2500 (reduced coord)
  -5.36097   1.77933   4.88146   4.88178
 kpt#   2, nband=  4, wtk=  0.75000, kpt=  0.2500  0.5000  0.5000 (reduced coord)
  -3.42100  -0.65176   2.10955   3.24049

 ETOT  2  -8.7259119491642    -1.067E-03 8.192E-11 9.651E-02

 prteigrs : about to open file t30o_EIG
 Fermi (or HOMO) energy (hartree) =   0.19178   Average Vxc (hartree)=  -0.35287
 Eigenvalues (hartree) for nkpt=   2  k points:
 kpt#   1, nband=  4, wtk=  0.25000, kpt=  0.2500  0.2500  0.2500 (reduced coord)
  -0.18690   0.07602   0.19178   0.19178
 kpt#   2, nband=  4, wtk=  0.75000, kpt=  0.2500  0.5000  0.5000 (reduced coord)
  -0.11520  -0.01324   0.08774   0.13052
 Fermi (or HOMO) energy (eV) =   5.21847   Average Vxc (eV)=  -9.60204
 Eigenvalues (   eV  ) for nkpt=   2  k points:
 kpt#   1, nband=  4, wtk=  0.25000, kpt=  0.2500  0.2500  0.2500 (reduced coord)
  -5.08572   2.06862   5.21847   5.21847
 kpt#   2, nband=  4, wtk=  0.75000, kpt=  0.2500  0.5000  0.5000 (reduced coord)
  -3.13486  -0.36034   2.38754   3.55165

 ETOT  3  -8.7263924287491    -4.805E-04 1.107E-06 1.993E-03

 prteigrs : about to open file t30o_EIG
 Fermi (or HOMO) energy (hartree) =   0.19812   Average Vxc (hartree)=  -0.35367
 Eigenvalues (hartree) for nkpt=   2  k points:
 kpt#   1, nband=  4, wtk=  0.25000, kpt=  0.2500  0.2500  0.2500 (reduced coord)
  -0.18420   0.07963   0.19812   0.19812
 kpt#   2, nband=  4, wtk=  0.75000, kpt=  0.2500  0.5000  0.5000 (reduced coord)
  -0.11194  -0.00968   0.09082   0.13540
 Fermi (or HOMO) energy (eV) =   5.39105   Average Vxc (eV)=  -9.62390
 Eigenvalues (   eV  ) for nkpt=   2  k points:
 kpt#   1, nband=  4, wtk=  0.25000, kpt=  0.2500  0.2500  0.2500 (reduced coord)
  -5.01245   2.16684   5.39105   5.39105
 kpt#   2, nband=  4, wtk=  0.75000, kpt=  0.2500  0.5000  0.5000 (reduced coord)
  -3.04606  -0.26328   2.47136   3.68445

 ETOT  4  -8.7263975716733    -5.143E-06 8.470E-09 7.053E-04

 prteigrs : about to open file t30o_EIG
 Fermi (or HOMO) energy (hartree) =   0.19730   Average Vxc (hartree)=  -0.35364
 Eigenvalues (hartree) for nkpt=   2  k points:
 kpt#   1, nband=  4, wtk=  0.25000, kpt=  0.2500  0.2500  0.2500 (reduced coord)
  -0.18514   0.07872   0.19730   0.19730
 kpt#   2, nband=  4, wtk=  0.75000, kpt=  0.2500  0.5000  0.5000 (reduced coord)
  -0.11292  -0.01062   0.09000   0.13458
 Fermi (or HOMO) energy (eV) =   5.36868   Average Vxc (eV)=  -9.62311
 Eigenvalues (   eV  ) for nkpt=   2  k points:
 kpt#   1, nband=  4, wtk=  0.25000, kpt=  0.2500  0.2500  0.2500 (reduced coord)
  -5.03804   2.14209   5.36868   5.36868
 kpt#   2, nband=  4, wtk=  0.75000, kpt=  0.2500  0.5000  0.5000 (reduced coord)
  -3.07264  -0.28912   2.44908   3.66205

 ETOT  5  -8.7264004224082    -2.851E-06 1.772E-08 9.146E-07

 prteigrs : about to open file t30o_EIG
 Fermi (or HOMO) energy (hartree) =   0.19730   Average Vxc (hartree)=  -0.35360
 Eigenvalues (hartree) for nkpt=   2  k points:
 kpt#   1, nband=  4, wtk=  0.25000, kpt=  0.2500  0.2500  0.2500 (reduced coord)
  -0.18531   0.07860   0.19730   0.19730
 kpt#   2, nband=  4, wtk=  0.75000, kpt=  0.2500  0.5000  0.5000 (reduced coord)
  -0.11314  -0.01081   0.09001   0.13458
 Fermi (or HOMO) energy (eV) =   5.36891   Average Vxc (eV)=  -9.62191
 Eigenvalues (   eV  ) for nkpt=   2  k points:
 kpt#   1, nband=  4, wtk=  0.25000, kpt=  0.2500  0.2500  0.2500 (reduced coord)
  -5.04261   2.13876   5.36891   5.36891
 kpt#   2, nband=  4, wtk=  0.75000, kpt=  0.2500  0.5000  0.5000 (reduced coord)
  -3.07864  -0.29404   2.44937   3.66222

 ETOT  6  -8.7264004252033    -2.795E-09 9.719E-12 3.192E-07

 prteigrs : about to open file t30o_EIG
 Fermi (or HOMO) energy (hartree) =   0.19735   Average Vxc (hartree)=  -0.35360
 Eigenvalues (hartree) for nkpt=   2  k points:
 kpt#   1, nband=  4, wtk=  0.25000, kpt=  0.2500  0.2500  0.2500 (reduced coord)
  -0.18527   0.07865   0.19735   0.19735
 kpt#   2, nband=  4, wtk=  0.75000, kpt=  0.2500  0.5000  0.5000 (reduced coord)
  -0.11309  -0.01076   0.09006   0.13463
 Fermi (or HOMO) energy (eV) =   5.37024   Average Vxc (eV)=  -9.62193
 Eigenvalues (   eV  ) for nkpt=   2  k points:
 kpt#   1, nband=  4, wtk=  0.25000, kpt=  0.2500  0.2500  0.2500 (reduced coord)
  -5.04132   2.14006   5.37024   5.37024
 kpt#   2, nband=  4, wtk=  0.75000, kpt=  0.2500  0.5000  0.5000 (reduced coord)
  -3.07733  -0.29273   2.45064   3.66353

 ETOT  7  -8.7264004258528    -6.495E-10 5.252E-12 3.465E-08

 prteigrs : about to open file t30o_EIG
 Fermi (or HOMO) energy (hartree) =   0.19736   Average Vxc (hartree)=  -0.35360
 Eigenvalues (hartree) for nkpt=   2  k points:
 kpt#   1, nband=  4, wtk=  0.25000, kpt=  0.2500  0.2500  0.2500 (reduced coord)
  -0.18526   0.07865   0.19736   0.19736
 kpt#   2, nband=  4, wtk=  0.75000, kpt=  0.2500  0.5000  0.5000 (reduced coord)
  -0.11309  -0.01075   0.09006   0.13464
 Fermi (or HOMO) energy (eV) =   5.37039   Average Vxc (eV)=  -9.62196
 Eigenvalues (   eV  ) for nkpt=   2  k points:
 kpt#   1, nband=  4, wtk=  0.25000, kpt=  0.2500  0.2500  0.2500 (reduced coord)
  -5.04123   2.14017   5.37039   5.37039
 kpt#   2, nband=  4, wtk=  0.75000, kpt=  0.2500  0.5000  0.5000 (reduced coord)
  -3.07722  -0.29262   2.45072   3.66367

 ETOT  8  -8.7264004259022    -4.938E-11 9.481E-14 7.533E-09

 prteigrs : about to open file t30o_EIG
 Fermi (or HOMO) energy (hartree) =   0.19736   Average Vxc (hartree)=  -0.35360
 Eigenvalues (hartree) for nkpt=   2  k points:
 kpt#   1, nband=  4, wtk=  0.25000, kpt=  0.2500  0.2500  0.2500 (reduced coord)
  -0.18526   0.07865   0.19736   0.19736
 kpt#   2, nband=  4, wtk=  0.75000, kpt=  0.2500  0.5000  0.5000 (reduced coord)
  -0.11309  -0.01075   0.09006   0.13464
 Fermi (or HOMO) energy (eV) =   5.37041   Average Vxc (eV)=  -9.62196
 Eigenvalues (   eV  ) for nkpt=   2  k points:
 kpt#   1, nband=  4, wtk=  0.25000, kpt=  0.2500  0.2500  0.2500 (reduced coord)
  -5.04123   2.14017   5.37041   5.37041
 kpt#   2, nband=  4, wtk=  0.75000, kpt=  0.2500  0.5000  0.5000 (reduced coord)
  -3.07722  -0.29262   2.45072   3.66368

 ETOT  9  -8.7264004259174    -1.519E-11 8.941E-14 5.884E-10

 prteigrs : about to open file t30o_EIG
 Fermi (or HOMO) energy (hartree) =   0.19736   Average Vxc (hartree)=  -0.35360
 Eigenvalues (hartree) for nkpt=   2  k points:
 kpt#   1, nband=  4, wtk=  0.25000, kpt=  0.2500  0.2500  0.2500 (reduced coord)
  -0.18526   0.07865   0.19736   0.19736
 kpt#   2, nband=  4, wtk=  0.75000, kpt=  0.2500  0.5000  0.5000 (reduced coord)
  -0.11309  -0.01075   0.09006   0.13464
 Fermi (or HOMO) energy (eV) =   5.37042   Average Vxc (eV)=  -9.62196
 Eigenvalues (   eV  ) for nkpt=   2  k points:
 kpt#   1, nband=  4, wtk=  0.25000, kpt=  0.2500  0.2500  0.2500 (reduced coord)
  -5.04123   2.14018   5.37042   5.37042
 kpt#   2, nband=  4, wtk=  0.75000, kpt=  0.2500  0.5000  0.5000 (reduced coord)
  -3.07722  -0.29261   2.45073   3.66370

 ETOT 10  -8.7264004259202    -2.853E-12 5.461E-15 1.691E-10

 prteigrs : about to open file t30o_EIG
 Fermi (or HOMO) energy (hartree) =   0.19736   Average Vxc (hartree)=  -0.35360
 Eigenvalues (hartree) for nkpt=   2  k points:
 kpt#   1, nband=  4, wtk=  0.25000, kpt=  0.2500  0.2500  0.2500 (reduced coord)
  -0.18526   0.07865   0.19736   0.19736
 kpt#   2, nband=  4, wtk=  0.75000, kpt=  0.2500  0.5000  0.5000 (reduced coord)
  -0.11309  -0.01075   0.09006   0.13464
 Fermi (or HOMO) energy (eV) =   5.37042   Average Vxc (eV)=  -9.62196
 Eigenvalues (   eV  ) for nkpt=   2  k points:
 kpt#   1, nband=  4, wtk=  0.25000, kpt=  0.2500  0.2500  0.2500 (reduced coord)
  -5.04123   2.14017   5.37042   5.37042
 kpt#   2, nband=  4, wtk=  0.75000, kpt=  0.2500  0.5000  0.5000 (reduced coord)
  -3.07722  -0.29262   2.45073   3.66369

 ETOT 11  -8.7264004259219    -1.682E-12 4.631E-15 1.920E-11

 prteigrs : about to open file t30o_EIG
 Fermi (or HOMO) energy (hartree) =   0.19736   Average Vxc (hartree)=  -0.35360
 Eigenvalues (hartree) for nkpt=   2  k points:
 kpt#   1, nband=  4, wtk=  0.25000, kpt=  0.2500  0.2500  0.2500 (reduced coord)
  -0.18526   0.07865   0.19736   0.19736
 kpt#   2, nband=  4, wtk=  0.75000, kpt=  0.2500  0.5000  0.5000 (reduced coord)
  -0.11309  -0.01075   0.09006   0.13464
 Fermi (or HOMO) energy (eV) =   5.37042   Average Vxc (eV)=  -9.62196
 Eigenvalues (   eV  ) for nkpt=   2  k points:
 kpt#   1, nband=  4, wtk=  0.25000, kpt=  0.2500  0.2500  0.2500 (reduced coord)
  -5.04123   2.14017   5.37042   5.37042
 kpt#   2, nband=  4, wtk=  0.75000, kpt=  0.2500  0.5000  0.5000 (reduced coord)
  -3.07722  -0.29262   2.45073   3.66369

 ETOT 12  -8.7264004259222    -2.700E-13 7.382E-17 7.783E-12

 prteigrs : about to open file t30o_EIG
 Fermi (or HOMO) energy (hartree) =   0.19736   Average Vxc (hartree)=  -0.35360
 Eigenvalues (hartree) for nkpt=   2  k points:
 kpt#   1, nband=  4, wtk=  0.25000, kpt=  0.2500  0.2500  0.2500 (reduced coord)
  -0.18526   0.07865   0.19736   0.19736
 kpt#   2, nband=  4, wtk=  0.75000, kpt=  0.2500  0.5000  0.5000 (reduced coord)
  -0.11309  -0.01075   0.09006   0.13464
 Fermi (or HOMO) energy (eV) =   5.37042   Average Vxc (eV)=  -9.62196
 Eigenvalues (   eV  ) for nkpt=   2  k points:
 kpt#   1, nband=  4, wtk=  0.25000, kpt=  0.2500  0.2500  0.2500 (reduced coord)
  -5.04123   2.14017   5.37042   5.37042
 kpt#   2, nband=  4, wtk=  0.75000, kpt=  0.2500  0.5000  0.5000 (reduced coord)
  -3.07722  -0.29262   2.45073   3.66369

 ETOT 13  -8.7264004259225    -2.931E-13 4.234E-17 1.182E-12

 prteigrs : about to open file t30o_EIG
 Fermi (or HOMO) energy (hartree) =   0.19736   Average Vxc (hartree)=  -0.35360
 Eigenvalues (hartree) for nkpt=   2  k points:
 kpt#   1, nband=  4, wtk=  0.25000, kpt=  0.2500  0.2500  0.2500 (reduced coord)
  -0.18526   0.07865   0.19736   0.19736
 kpt#   2, nband=  4, wtk=  0.75000, kpt=  0.2500  0.5000  0.5000 (reduced coord)
  -0.11309  -0.01075   0.09006   0.13464
 Fermi (or HOMO) energy (eV) =   5.37042   Average Vxc (eV)=  -9.62196
 Eigenvalues (   eV  ) for nkpt=   2  k points:
 kpt#   1, nband=  4, wtk=  0.25000, kpt=  0.2500  0.2500  0.2500 (reduced coord)
  -5.04123   2.14017   5.37042   5.37042
 kpt#   2, nband=  4, wtk=  0.75000, kpt=  0.2500  0.5000  0.5000 (reduced coord)
  -3.07722  -0.29262   2.45073   3.66369

 ETOT 14  -8.7264004259225    -1.066E-14 1.644E-18 3.277E-13

 prteigrs : about to open file t30o_EIG
 Fermi (or HOMO) energy (hartree) =   0.19736   Average Vxc (hartree)=  -0.35360
 Eigenvalues (hartree) for nkpt=   2  k points:
 kpt#   1, nband=  4, wtk=  0.25000, kpt=  0.2500  0.2500  0.2500 (reduced coord)
  -0.18526   0.07865   0.19736   0.19736
 kpt#   2, nband=  4, wtk=  0.75000, kpt=  0.2500  0.5000  0.5000 (reduced coord)
  -0.11309  -0.01075   0.09006   0.13464
 Fermi (or HOMO) energy (eV) =   5.37042   Average Vxc (eV)=  -9.62196
 Eigenvalues (   eV  ) for nkpt=   2  k points:
 kpt#   1, nband=  4, wtk=  0.25000, kpt=  0.2500  0.2500  0.2500 (reduced coord)
  -5.04123   2.14017   5.37042   5.37042
 kpt#   2, nband=  4, wtk=  0.75000, kpt=  0.2500  0.5000  0.5000 (reduced coord)
  -3.07722  -0.29262   2.45073   3.66369

 ETOT 15  -8.7264004259225    -1.599E-14 3.404E-18 3.897E-14

 prteigrs : about to open file t30o_EIG
 Fermi (or HOMO) energy (hartree) =   0.19736   Average Vxc (hartree)=  -0.35360
 Eigenvalues (hartree) for nkpt=   2  k points:
 kpt#   1, nband=  4, wtk=  0.25000, kpt=  0.2500  0.2500  0.2500 (reduced coord)
  -0.18526   0.07865   0.19736   0.19736
 kpt#   2, nband=  4, wtk=  0.75000, kpt=  0.2500  0.5000  0.5000 (reduced coord)
  -0.11309  -0.01075   0.09006   0.13464
 Fermi (or HOMO) energy (eV) =   5.37042   Average Vxc (eV)=  -9.62196
 Eigenvalues (   eV  ) for nkpt=   2  k points:
 kpt#   1, nband=  4, wtk=  0.25000, kpt=  0.2500  0.2500  0.2500 (reduced coord)
  -5.04123   2.14017   5.37042   5.37042
 kpt#   2, nband=  4, wtk=  0.75000, kpt=  0.2500  0.5000  0.5000 (reduced coord)
  -3.07722  -0.29262   2.45073   3.66369

 ETOT 16  -8.7264004259225    -3.553E-15 3.495E-19 1.294E-14

 prteigrs : about to open file t30o_EIG
 Fermi (or HOMO) energy (hartree) =   0.19736   Average Vxc (hartree)=  -0.35360
 Eigenvalues (hartree) for nkpt=   2  k points:
 kpt#   1, nband=  4, wtk=  0.25000, kpt=  0.2500  0.2500  0.2500 (reduced coord)
  -0.18526   0.07865   0.19736   0.19736
 kpt#   2, nband=  4, wtk=  0.75000, kpt=  0.2500  0.5000  0.5000 (reduced coord)
  -0.11309  -0.01075   0.09006   0.13464
 Fermi (or HOMO) energy (eV) =   5.37042   Average Vxc (eV)=  -9.62196
 Eigenvalues (   eV  ) for nkpt=   2  k points:
 kpt#   1, nband=  4, wtk=  0.25000, kpt=  0.2500  0.2500  0.2500 (reduced coord)
  -5.04123   2.14017   5.37042   5.37042
 kpt#   2, nband=  4, wtk=  0.75000, kpt=  0.2500  0.5000  0.5000 (reduced coord)
  -3.07722  -0.29262   2.45073   3.66369

 ETOT 17  -8.7264004259225     1.954E-14 2.411E-19 2.720E-15

 prteigrs : about to open file t30o_EIG
 Fermi (or HOMO) energy (hartree) =   0.19736   Average Vxc (hartree)=  -0.35360
 Eigenvalues (hartree) for nkpt=   2  k points:
 kpt#   1, nband=  4, wtk=  0.25000, kpt=  0.2500  0.2500  0.2500 (reduced coord)
  -0.18526   0.07865   0.19736   0.19736
 kpt#   2, nband=  4, wtk=  0.75000, kpt=  0.2500  0.5000  0.5000 (reduced coord)
  -0.11309  -0.01075   0.09006   0.13464
 Fermi (or HOMO) energy (eV) =   5.37042   Average Vxc (eV)=  -9.62196
 Eigenvalues (   eV  ) for nkpt=   2  k points:
 kpt#   1, nband=  4, wtk=  0.25000, kpt=  0.2500  0.2500  0.2500 (reduced coord)
  -5.04123   2.14017   5.37042   5.37042
 kpt#   2, nband=  4, wtk=  0.75000, kpt=  0.2500  0.5000  0.5000 (reduced coord)
  -3.07722  -0.29262   2.45073   3.66369

 ETOT 18  -8.7264004259225     1.066E-14 2.330E-21 1.084E-15

 prteigrs : about to open file t30o_EIG
 Fermi (or HOMO) energy (hartree) =   0.19736   Average Vxc (hartree)=  -0.35360
 Eigenvalues (hartree) for nkpt=   2  k points:
 kpt#   1, nband=  4, wtk=  0.25000, kpt=  0.2500  0.2500  0.2500 (reduced coord)
  -0.18526   0.07865   0.19736   0.19736
 kpt#   2, nband=  4, wtk=  0.75000, kpt=  0.2500  0.5000  0.5000 (reduced coord)
  -0.11309  -0.01075   0.09006   0.13464
 Fermi (or HOMO) energy (eV) =   5.37042   Average Vxc (eV)=  -9.62196
 Eigenvalues (   eV  ) for nkpt=   2  k points:
 kpt#   1, nband=  4, wtk=  0.25000, kpt=  0.2500  0.2500  0.2500 (reduced coord)
  -5.04123   2.14017   5.37042   5.37042
 kpt#   2, nband=  4, wtk=  0.75000, kpt=  0.2500  0.5000  0.5000 (reduced coord)
  -3.07722  -0.29262   2.45073   3.66369

 ETOT 19  -8.7264004259225    -2.665E-14 7.092E-22 1.360E-16

 prteigrs : about to open file t30o_EIG
 Fermi (or HOMO) energy (hartree) =   0.19736   Average Vxc (hartree)=  -0.35360
 Eigenvalues (hartree) for nkpt=   2  k points:
 kpt#   1, nband=  4, wtk=  0.25000, kpt=  0.2500  0.2500  0.2500 (reduced coord)
  -0.18526   0.07865   0.19736   0.19736
 kpt#   2, nband=  4, wtk=  0.75000, kpt=  0.2500  0.5000  0.5000 (reduced coord)
  -0.11309  -0.01075   0.09006   0.13464
 Fermi (or HOMO) energy (eV) =   5.37042   Average Vxc (eV)=  -9.62196
 Eigenvalues (   eV  ) for nkpt=   2  k points:
 kpt#   1, nband=  4, wtk=  0.25000, kpt=  0.2500  0.2500  0.2500 (reduced coord)
  -5.04123   2.14017   5.37042   5.37042
 kpt#   2, nband=  4, wtk=  0.75000, kpt=  0.2500  0.5000  0.5000 (reduced coord)
  -3.07722  -0.29262   2.45073   3.66369

 ETOT 20  -8.7264004259225     3.553E-15 7.090E-22 3.832E-17

 prteigrs : about to open file t30o_EIG
 Fermi (or HOMO) energy (hartree) =   0.19736   Average Vxc (hartree)=  -0.35360
 Eigenvalues (hartree) for nkpt=   2  k points:
 kpt#   1, nband=  4, wtk=  0.25000, kpt=  0.2500  0.2500  0.2500 (reduced coord)
  -0.18526   0.07865   0.19736   0.19736
 kpt#   2, nband=  4, wtk=  0.75000, kpt=  0.2500  0.5000  0.5000 (reduced coord)
  -0.11309  -0.01075   0.09006   0.13464
 Fermi (or HOMO) energy (eV) =   5.37042   Average Vxc (eV)=  -9.62196
 Eigenvalues (   eV  ) for nkpt=   2  k points:
 kpt#   1, nband=  4, wtk=  0.25000, kpt=  0.2500  0.2500  0.2500 (reduced coord)
  -5.04123   2.14017   5.37042   5.37042
 kpt#   2, nband=  4, wtk=  0.75000, kpt=  0.2500  0.5000  0.5000 (reduced coord)
  -3.07722  -0.29262   2.45073   3.66369

 Cartesian components of stress tensor (hartree/bohr^3)
  sigma(1 1)=  5.55777698E-04  sigma(3 2)=  0.00000000E+00
  sigma(2 2)=  5.55777698E-04  sigma(3 1)=  0.00000000E+00
  sigma(3 3)=  5.55777698E-04  sigma(2 1)=  0.00000000E+00


 scprqt:  WARNING -
  nstep=   20 was not enough SCF cycles to converge;
  maximum residual=  7.090E-22 exceeds tolwfr=  1.000E-24

 io1dm : about to open file t30o_1DM
================================================================================

 ----iterations are completed or convergence reached----

 Mean square residual over all n,k,spin=   2.1896E-22; max=  7.0896E-22
   0.2500  0.2500  0.2500    1  1.04892E-22 kpt; spin; max resid(k); each band:
  1.05E-22 9.41E-23 7.50E-24 7.50E-24
   0.2500  0.5000  0.5000    1  7.08962E-22 kpt; spin; max resid(k); each band:
  1.49E-22 6.69E-22 7.09E-22 1.12E-23
 reduced coordinates (array xred) for    2 atoms
      -0.125000000000     -0.125000000000     -0.125000000000
       0.125000000000      0.125000000000      0.125000000000
 rms dE/dt=  3.1036E-22; max dE/dt=  5.6469E-22; dE/dt below (all hartree)
    1       0.000000000000     -0.000000000000      0.000000000000
    2       0.000000000000      0.000000000000      0.000000000000

 cartesian coordinates (angstrom) at end:
    1     -0.67887548765651    -0.67887548765651    -0.67887548765651
    2      0.67887548765651     0.67887548765651     0.67887548765651

 cartesian forces (hartree/bohr) at end:
    1      0.00000000000000    -0.00000000000000     0.00000000000000
    2     -0.00000000000000     0.00000000000000    -0.00000000000000
 frms,max,avg= 3.7879143E-23 6.1898850E-23   0.000E+00  0.000E+00  0.000E+00 h/b

 cartesian forces (eV/Angstrom) at end:
    1      0.00000000000000    -0.00000000000000     0.00000000000000
    2     -0.00000000000000     0.00000000000000    -0.00000000000000
 frms,max,avg= 1.9478237E-21 3.1829666E-21   0.000E+00  0.000E+00  0.000E+00 e/A
 length scales= 10.263110000000 10.263110000000 10.263110000000 bohr
              =  5.431003901252  5.431003901252  5.431003901252 angstroms
 prteigrs : about to open file t30o_EIG
 Fermi (or HOMO) energy (hartree) =   0.19736   Average Vxc (hartree)=  -0.35360
 Eigenvalues (hartree) for nkpt=   2  k points:
 kpt#   1, nband=  4, wtk=  0.25000, kpt=  0.2500  0.2500  0.2500 (reduced coord)
  -0.18526   0.07865   0.19736   0.19736
 kpt#   2, nband=  4, wtk=  0.75000, kpt=  0.2500  0.5000  0.5000 (reduced coord)
  -0.11309  -0.01075   0.09006   0.13464
 Fermi (or HOMO) energy (eV) =   5.37042   Average Vxc (eV)=  -9.62196
 Eigenvalues (   eV  ) for nkpt=   2  k points:
 kpt#   1, nband=  4, wtk=  0.25000, kpt=  0.2500  0.2500  0.2500 (reduced coord)
  -5.04123   2.14017   5.37042   5.37042
 kpt#   2, nband=  4, wtk=  0.75000, kpt=  0.2500  0.5000  0.5000 (reduced coord)
  -3.07722  -0.29262   2.45073   3.66369
 Total charge density [el/Bohr^3]
,     Maximum=    8.2781E-02  at reduced coord.    0.0000    0.0000    0.5000
,Next maximum=    8.2781E-02  at reduced coord.    0.0000    0.5000    0.0000
,     Minimum=    2.8491E-03  at reduced coord.    0.4000    0.4000    0.3000
,Next minimum=    2.8491E-03  at reduced coord.    0.4000    0.3000    0.4000
,  Integrated=    8.0000E+00

--------------------------------------------------------------------------------
 Components of total free energy (in Hartree) :

    Kinetic energy  =  2.84265464979065E+00
    Hartree energy  =  4.88700612932124E-01
    XC energy       = -3.50895009977680E+00
    Ewald energy    = -8.39791921808003E+00
    PspCore energy  =  8.48892598830441E-02
    Loc. psp. energy= -2.35162261345027E+00
    NL   psp  energy=  2.11584698277880E+00
    >>>>>>>>> Etotal= -8.72640042592248E+00

 Other information on the energy :
    Total energy(eV)= -2.37457431705844E+02 ; Band energy (Ha)=   2.9534520771E-01
--------------------------------------------------------------------------------

          ===> extra information on forces <===
 ewald contribution to reduced grads
    1      -0.000000000000     -0.000000000000     -0.000000000000
    2       0.000000000000      0.000000000000      0.000000000000
 nonlocal contribution to red. grads
    1       0.000000000000      0.000000000000     -0.000000000000
    2       0.000000000000      0.000000000000      0.000000000000
 local psp contribution to red. grads
    1      -0.000015668783     -0.000015668783     -0.000015668783
    2       0.000015668783      0.000015668783      0.000015668783
 core charge xc contribution to reduced grads
    1       0.000015668783      0.000015668783      0.000015668783
    2      -0.000015668783     -0.000015668783     -0.000015668783
 residual contribution to red. grads
    1      -0.000000000000     -0.000000000000     -0.000000000000
    2       0.000000000000      0.000000000000      0.000000000000

 Cartesian components of stress tensor (hartree/bohr^3)
  sigma(1 1)=  5.55777698E-04  sigma(3 2)=  0.00000000E+00
  sigma(2 2)=  5.55777698E-04  sigma(3 1)=  0.00000000E+00
  sigma(3 3)=  5.55777698E-04  sigma(2 1)=  0.00000000E+00

-Cartesian components of stress tensor (GPa)         [Pressure= -1.6352E+01 GPa]
- sigma(1 1)=  1.63515417E+01  sigma(3 2)=  0.00000000E+00
- sigma(2 2)=  1.63515417E+01  sigma(3 1)=  0.00000000E+00
- sigma(3 3)=  1.63515417E+01  sigma(2 1)=  0.00000000E+00

== END DATASET(S) ==============================================================
================================================================================
  
 -outvars: echo values of variables after computation  --------
            acell      1.0263110000E+01  1.0263110000E+01  1.0263110000E+01 Bohr
              amu      2.80855000E+01
           diemac      1.00000000E+00
           diemix      3.33333333E-01
             ecut      2.00000000E+00 Hartree
           enunit           2
           etotal     -8.7264004259E+00
            fcart      6.8776500435E-24 -6.1898850391E-23  2.0632950130E-23
                      -6.8776500435E-24  6.1898850391E-23 -2.0632950130E-23
-          fftalg         112
            intxc           1
             iscf           3
              kpt      1.00000000E+00  1.00000000E+00  1.00000000E+00
                       1.00000000E+00  2.00000000E+00  2.00000000E+00
           kptnrm      4.00000000E+00
           kptopt           0
P           mkmem           2
            natom           2
            nband           4
            ngfft          10      10      10
             nkpt           2
            nstep          20
             nsym          24
           ntypat           1
              occ      2.000000  2.000000  2.000000  2.000000
           occopt           0
           prtpot           2
           prtvha           1
          prtvhxc           1
           prtvol          10
           prtvxc           1
           prt1dm           1
            rprim      0.0000000000E+00  5.0000000000E-01  5.0000000000E-01
                       5.0000000000E-01  0.0000000000E+00  5.0000000000E-01
                       5.0000000000E-01  5.0000000000E-01  0.0000000000E+00
          spgroup         216
           strten      5.5577769784E-04  5.5577769784E-04  5.5577769784E-04
                       0.0000000000E+00  0.0000000000E+00  0.0000000000E+00
           symrel      1  0  0   0  1  0   0  0  1       0  1 -1   1  0 -1   0  0 -1
                      -1  0  0  -1  0  1  -1  1  0       0 -1  1   0 -1  0   1 -1  0
                      -1  0  1  -1  0  0  -1  1  0       0 -1  0   0 -1  1   1 -1  0
                       0 -1  1   1 -1  0   0 -1  0       0  1 -1   0  0 -1   1  0 -1
                       0  0 -1   1  0 -1   0  1 -1      -1  1  0  -1  0  1  -1  0  0
                       1  0 -1   0  1 -1   0  0 -1       1 -1  0   0 -1  0   0 -1  1
                      -1  0  0  -1  1  0  -1  0  1       0  1  0   1  0  0   0  0  1
                       0  0  1   0  1  0   1  0  0       1  0  0   0  0  1   0  1  0
                       0  0  1   1  0  0   0  1  0       0  1  0   0  0  1   1  0  0
                      -1  0  1  -1  1  0  -1  0  0       0  0 -1   0  1 -1   1  0 -1
                       1  0 -1   0  0 -1   0  1 -1       1 -1  0   0 -1  1   0 -1  0
                       0 -1  0   1 -1  0   0 -1  1      -1  1  0  -1  0  0  -1  0  1
           timopt          -1
            tnons      0.0000000  0.0000000  0.0000000     0.0000000  0.0000000 -0.5000000
                      -0.5000000  0.0000000  0.0000000     0.0000000 -0.5000000  0.0000000
                      -0.5000000  0.0000000  0.0000000     0.0000000 -0.5000000  0.0000000
                       0.0000000 -0.5000000  0.0000000     0.0000000  0.0000000 -0.5000000
                       0.0000000  0.0000000 -0.5000000    -0.5000000  0.0000000  0.0000000
                       0.0000000  0.0000000 -0.5000000     0.0000000 -0.5000000  0.0000000
                      -0.5000000  0.0000000  0.0000000     0.0000000  0.0000000  0.0000000
                       0.0000000  0.0000000  0.0000000     0.0000000  0.0000000  0.0000000
                       0.0000000  0.0000000  0.0000000     0.0000000  0.0000000  0.0000000
                      -0.5000000  0.0000000  0.0000000     0.0000000  0.0000000 -0.5000000
                       0.0000000  0.0000000 -0.5000000     0.0000000 -0.5000000  0.0000000
                       0.0000000 -0.5000000  0.0000000    -0.5000000  0.0000000  0.0000000
           tolwfr      1.00000000E-24
            typat      1  1
              wtk        0.25000    0.75000
           xangst     -6.7887548766E-01 -6.7887548766E-01 -6.7887548766E-01
                       6.7887548766E-01  6.7887548766E-01  6.7887548766E-01
            xcart     -1.2828887500E+00 -1.2828887500E+00 -1.2828887500E+00
                       1.2828887500E+00  1.2828887500E+00  1.2828887500E+00
             xred     -1.2500000000E-01 -1.2500000000E-01 -1.2500000000E-01
                       1.2500000000E-01  1.2500000000E-01  1.2500000000E-01
            znucl       14.00000

================================================================================

 Test the timer : 
  a combined call timab(*,1,tsec) + timab(*,2,tsec) is 
- CPU time =    7.0911E-07 sec,    Wall time =    7.0916E-07 sec

- Total cpu        time (s,m,h):          0.5        0.01      0.000
- Total wall clock time (s,m,h):          0.5        0.01      0.000
-
- For major independent code sections, cpu and wall times (sec),
-  as well as % of the time and number of calls for node 0-
-<BEGIN_TIMER mpi_nprocs = 1, omp_nthreads = 1, mpi_rank = 0>
- cpu_time =            0.5, wall_time =            0.5
-
- routine                        cpu     %       wall     %      number of calls  Gflops 
-                                                                  (-1=no count)
- timing timab                   0.138  26.0      0.138  26.0             14      -1.00    
- invars2                        0.133  25.1      0.133  25.1              1      -1.00    
- pspini                         0.131  24.7      0.131  24.7              1      -1.00    
- abinit(2)                      0.032   6.0      0.032   6.0              1      -1.00    
- fourwf%(pot)                   0.016   3.0      0.017   3.3            787      -1.00    
- scfcv-scprqt                   0.006   1.1      0.006   1.1             20      -1.00    
- nonlop(apply)                  0.005   0.9      0.006   1.1            787      -1.00    
- vtowfk(ssdiag)                 0.004   0.8      0.002   0.5             -1      -1.00    
- getghc-other                   0.004   0.8      0.001   0.3             -1      -1.00    
- vtowfk(contrib)                0.003   0.6      0.002   0.4             40      -1.00    
- fourdp                         0.003   0.6      0.002   0.4            147      -1.00    
- xc:pot/=fourdp                 0.003   0.6      0.003   0.6             21      -1.00    
- ewald                          0.002   0.4      0.001   0.2              1      -1.00    
- symrhg(no FFT)                 0.001   0.2      0.001   0.2             20      -1.00    
- projbd                         0.001   0.2      0.002   0.3           1222      -1.00    
- mkcore                         0.001   0.2      0.001   0.1              3      -1.00    
- stress                         0.001   0.2      0.001   0.3              1      -1.00    
- ewald2 (+vdw_dftd2)            0.001   0.2      0.001   0.1              1      -1.00    
- forces                         0.001   0.2      0.000   0.1              1      -1.00    
- fourwf%(den)                   0.001   0.2      0.002   0.4            160      -1.00    
- setsym                         0.000   0.0      0.000   0.1              1      -1.00    
- kpgsph                         0.000   0.0      0.000   0.0              4      -1.00    
- vtowfk  (1)                    0.000   0.0      0.001   0.1             40      -1.00    
- status                         0.000   0.0      0.000   0.0             41      -1.00    
- nonlop(forstr)                 0.000   0.0      0.000   0.0              8      -1.00    
- vtowfk3(contrib)               0.000   0.0      0.000   0.0             -1      -1.00    
- cgwf3-O(npw)                   0.000   0.0      0.000   0.0             -1      -1.00    
- inwffil(excl. calls)           0.000   0.0      0.000   0.0              1      -1.00    
- newkpt(excl. rwwf   )          0.000   0.0      0.000   0.0             -1      -1.00    
- vtorho(MPI)                    0.000   0.0      0.000   0.0             20      -1.00    
- others (75)                    0.000   0.0      0.000   0.0             -1      -1.00    
-<END_TIMER>
-
- subtotal                       0.487  91.9      0.484  91.3

- For major independent code sections, cpu and wall times (sec),
- as well as % of the total time and number of calls 

-<BEGIN_TIMER mpi_nprocs = 1, omp_nthreads = 1, mpi_rank = world>
- cpu_time =           0.5, wall_time =           0.5
-
- routine                         cpu     %       wall     %      number of calls Gflops 
-                                                                  (-1=no count)
- timing timab                   0.138  26.0      0.138  26.0             14      -1.00    
- invars2                        0.133  25.1      0.133  25.1              1      -1.00    
- pspini                         0.131  24.7      0.131  24.7              1      -1.00    
- abinit(2)                      0.032   6.0      0.032   6.0              1      -1.00    
- fourwf%(pot)                   0.016   3.0      0.017   3.3            787      -1.00    
- scfcv-scprqt                   0.006   1.1      0.006   1.1             20      -1.00    
- nonlop(apply)                  0.005   0.9      0.006   1.1            787      -1.00    
- vtowfk(ssdiag)                 0.004   0.8      0.002   0.5             -1      -1.00    
- getghc-other                   0.004   0.8      0.001   0.3             -1      -1.00    
- vtowfk(contrib)                0.003   0.6      0.002   0.4             40      -1.00    
- fourdp                         0.003   0.6      0.002   0.4            147      -1.00    
- xc:pot/=fourdp                 0.003   0.6      0.003   0.6             21      -1.00    
- ewald                          0.002   0.4      0.001   0.2              1      -1.00    
- symrhg(no FFT)                 0.001   0.2      0.001   0.2             20      -1.00    
- projbd                         0.001   0.2      0.002   0.3           1222      -1.00    
- mkcore                         0.001   0.2      0.001   0.1              3      -1.00    
- stress                         0.001   0.2      0.001   0.3              1      -1.00    
- ewald2 (+vdw_dftd2)            0.001   0.2      0.001   0.1              1      -1.00    
- forces                         0.001   0.2      0.000   0.1              1      -1.00    
- fourwf%(den)                   0.001   0.2      0.002   0.4            160      -1.00    
- setsym                         0.000   0.0      0.000   0.1              1      -1.00    
- kpgsph                         0.000   0.0      0.000   0.0              4      -1.00    
- vtowfk  (1)                    0.000   0.0      0.001   0.1             40      -1.00    
- status                         0.000   0.0      0.000   0.0             41      -1.00    
- nonlop(forstr)                 0.000   0.0      0.000   0.0              8      -1.00    
- vtowfk3(contrib)               0.000   0.0      0.000   0.0             -1      -1.00    
- cgwf3-O(npw)                   0.000   0.0      0.000   0.0             -1      -1.00    
- inwffil(excl. calls)           0.000   0.0      0.000   0.0              1      -1.00    
- newkpt(excl. rwwf   )          0.000   0.0      0.000   0.0             -1      -1.00    
- vtorho(MPI)                    0.000   0.0      0.000   0.0             20      -1.00    
- others (75)                    0.000   0.0      0.000   0.0             -1      -1.00    
-<END_TIMER>

- subtotal                       0.487  91.9      0.484  91.3

 Partitioning of abinit
- abinit                         0.530 100.0      0.530 100.0              1
 
- abinit(1)                      0.011   2.1      0.011   2.1              1
- abinit(2)                      0.032   6.0      0.032   6.0              1
- indefo+macroin+invars2m        0.133  25.1      0.134  25.2              1
- abinit(4)                      0.012   2.3      0.012   2.3              1
- abinit(5)                      0.007   1.3      0.007   1.3              1
- driver                         0.194  36.6      0.193  36.5              1
- abinit(6)                      0.003   0.6      0.004   0.7              1
- timing timab                   0.138  26.0      0.138  26.0             14

- subtotal                       0.530 100.0      0.530 100.0

 Partitioning of driver
- driver                         0.194  36.6      0.193  36.5              1
 
- driver(bef. select case)       0.001   0.2      0.000   0.0              1
- gstateimg                      0.193  36.4      0.193  36.4              1

- subtotal                       0.194  36.6      0.193  36.5

 Partitioning of gstateimg+gstate
- gstateimg                      0.193  36.4      0.193  36.4              1
 
- gstate->kpgsph                 0.000   0.0      0.001   0.1              2
- gstate(pspini)                 0.131  24.7      0.131  24.7              1
- gstate  (2)                    0.000   0.0      0.000   0.0              1
- gstate(...scfcv)               0.061  11.5      0.060  11.4              1
- gstate  (3)                    0.001   0.2      0.001   0.2              1

- subtotal                       0.193  36.4      0.193  36.4

 Partitioning of scfcv
- scfcv                          0.061  11.5      0.060  11.4              1
 
- scfcv(iniloop, setvtr  )       0.002   0.4      0.002   0.3             20
- scfcv-read                     0.000   0.0      0.000   0.0             20
- scfcv(vtorho(f))               0.041   7.7      0.043   8.1             20
- scfcv-scprqt                   0.006   1.1      0.006   1.1             20
- scfcv(rhotov)                  0.005   0.9      0.005   1.0             20
- scfcv(mix pot)                 0.001   0.2      0.001   0.2             20
- scfcv(afterscfloop)            0.002   0.4      0.002   0.4              1
- scfcv(outscfcv)                0.002   0.4      0.002   0.3              1
- (other)                        0.002   0.4      0.000   0.0             -1

- subtotal                       0.061  11.5      0.060  11.4

 Partitioning of rhotov
- rhotov                         0.005   0.9      0.005   0.9             20
 
- rhotov(rhohxc)                 0.005   0.9      0.005   0.9             20
- rhotov(other)                  0.000   0.0      0.000   0.0             20

- subtotal                       0.005   0.9      0.005   0.9

 Partitioning of vtorho
- vtorho                         0.041   7.7      0.043   8.1             20
 
- vtorho(bef. spin loop)         0.000   0.0      0.000   0.0             20
- vtorho(bef. vtowfk)            0.002   0.4      0.001   0.1             40
- vtowfk                         0.036   6.8      0.039   7.4             40
- vtorho(mkrho 2)                0.003   0.6      0.002   0.5             40
- (other)                        0.000   0.0      0.000   0.0             -1

- subtotal                       0.041   7.7      0.043   8.1

 Partitioning of vtowfk
- vtowfk                         0.036   6.8      0.039   7.4             40
 
- vtowfk  (1)                    0.000   0.0      0.001   0.1             40
- cgwf                           0.028   5.3      0.032   6.0             44
- vtowfk(subdiago)               0.000   0.0      0.001   0.2             44
- vtowfk(pw_orthon)              0.001   0.2      0.000   0.1             44
- vtowfk(2)                      0.003   0.6      0.001   0.2             -1
- fourwf%vtowfk                  0.001   0.2      0.002   0.4            160
- vtowfk(3)                      0.003   0.6      0.002   0.4             -1

- subtotal                       0.036   6.8      0.039   7.4

 Partitioning of cgwf
- cgwf                           0.028   5.3      0.032   6.0             44
 
- getghc%cgwf                    0.025   4.7      0.025   4.6            787
- cgwf-O(npw)                    0.002   0.4      0.006   1.1             -1
- projbd%cgwf                    0.001   0.2      0.002   0.3           1222

- subtotal                       0.028   5.3      0.032   6.0

 Partitioning of getghc
- getghc                         0.025   4.7      0.025   4.6            787
 
- fourwf%getghc                  0.016   3.0      0.017   3.3            787
- nonlop%getghc                  0.005   0.9      0.006   1.1            787
- getghc-other                   0.004   0.8      0.001   0.3             -1

- subtotal                       0.025   4.7      0.025   4.6

 Partitioning of fourwf (upwards partitioning)
- fourwf                         0.017   3.2      0.020   3.7            947
 
- fourwf%getghc                  0.016   3.0      0.017   3.3            787
- fourwf%vtowfk                  0.001   0.2      0.002   0.4            160

- subtotal                       0.017   3.2      0.020   3.7

 Partitioning of inwffil
- inwffil                        0.000   0.0      0.000   0.0              1
 

- subtotal                       0.000   0.0      0.000   0.0

 Partitioning of newkpt
- newkpt                         0.000   0.0      0.000   0.0              1
 

- subtotal                       0.000   0.0      0.000   0.0

 Partitioning of newvtr
- newvtr                         0.001   0.2      0.001   0.2             20
 
- newvtr(aft. prcref_PMA)        0.000   0.0      0.001   0.1             20

- subtotal                       0.001   0.2      0.001   0.2

 Partitioning of  fourdp (upwards partitioning)
- fourdp                         0.003   0.6      0.002   0.4            147
 
- fourdp%(other)                 0.003   0.6      0.002   0.4            147

- subtotal                       0.003   0.6      0.002   0.4

 Partitioning of afterscfloop
- afterscfloop                   0.002   0.4      0.002   0.4              1
 
- afterscfloop(forstr)           0.002   0.4      0.002   0.4              1

- subtotal                       0.002   0.4      0.002   0.4

 Partitioning of forstr
- forstr                         0.002   0.4      0.002   0.4              1
 
- forstr(forstrnps)              0.000   0.0      0.000   0.0              1
- forstr(forces)                 0.001   0.2      0.000   0.1              1
- forstr(stress)                 0.001   0.2      0.001   0.3              1

- subtotal                       0.002   0.4      0.002   0.4

 Partitioning of forstrnps
- forstrnps                      0.000   0.0      0.000   0.0              1
 

- subtotal                       0.000   0.0      0.000   0.0

 Partitioning of outscfcv
- outscfcv                       0.002   0.4      0.002   0.3              1
 
- outscfcv(prt stm,vha,..)       0.001   0.2      0.001   0.1              1

- subtotal                       0.001   0.2      0.001   0.1
-
-Synchronisation (=leave_test) and MPI calls 
- communic.MPI                   0.000   0.0      0.000   0.1           1093
-
- forstrnps:synchr               0.000   0.0      0.000   0.0              2
-
- subtotal                       0.000   0.0      0.000   0.0

 Additional information
- timana(1)                      0.000   0.0      0.000   0.0              1
- total timab                    0.143  26.9      0.143  26.9         201129
- fourwf                         0.017   3.2      0.020   3.7            947
- mklocl(2)                      0.000   0.0      0.000   0.0              1
- status                         0.000   0.0      0.000   0.0             41
- nonlop(forstr)                 0.000   0.0      0.000   0.0              8
- nonlop(total)                  0.005   0.9      0.006   1.1            795
- xc:fourdp                      0.001   0.2      0.001   0.2             84


 Detailed analysis of some time consuming routines 
                                  tcpu    ncalls  tcpu/ncalls    ndata tcpu/ncalls/ndata
                                 (sec)                (msec)              (microsec)
- fourwf%(pot)                   0.016       787       0.020      2000       0.010
- fourwf%(den)                   0.001       160       0.006      1000       0.006
- fourdp                         0.003       147       0.020      1000       0.020
- nonlop(apply)                  0.005       787       0.006        70       0.091
- nonlop(forces)                 0.000         0
- nonlop(forstr)                 0.000         8       0.000        70       0.000
- projbd                         0.001      1222       0.001       140       0.006
- xc:pot/=fourdp                 0.003        21       0.143      1000       0.143

================================================================================

 Suggested references for the acknowledgment of ABINIT usage.

 The users of ABINIT have little formal obligations with respect to the ABINIT group
 (those specified in the GNU General Public License, http://www.gnu.org/copyleft/gpl.txt).
 However, it is common practice in the scientific literature,
 to acknowledge the efforts of people that have made the research possible.
 In this spirit, please find below suggested citations of work written by ABINIT developers,
 corresponding to implementations inside of ABINIT that you have used in the present run.
 Note also that it will be of great value to readers of publications presenting these results,
 to read papers enabling them to understand the theoretical formalism and details
 of the ABINIT implementation.
 For information on why they are suggested, see also http://www.abinit.org/about/?text=acknowledgments.

 [1] ABINIT : First-principles approach of materials and nanosystem properties.
 X. Gonze, B. Amadon, P.-M. Anglade, J.-M. Beuken, F. Bottin, P. Boulanger, F. Bruneval,
 D. Caliste, R. Caracas, M. Cote, T. Deutsch, L. Genovese, Ph. Ghosez, M. Giantomassi
 S. Goedecker, D.R. Hamann, P. Hermet, F. Jollet, G. Jomard, S. Leroux, M. Mancini, S. Mazevet,
 M.J.T. Oliveira, G. Onida, Y. Pouillon, T. Rangel, G.-M. Rignanese, D. Sangalli, R. Shaltaf,
 M. Torrent, M.J. Verstraete, G. Zerah, J.W. Zwanziger
 Computer Phys. Comm. 180, 2582-2615 (2009).
 Comment : the third generic paper describing the ABINIT project.
 Note that a version of this paper, that is not formatted for Computer Phys. Comm. 
 is available at http://www.abinit.org/about/ABINIT_CPC_v10.pdf .
 The licence allows the authors to put it on the Web.

 [2] A brief introduction to the ABINIT software package.
 X. Gonze, G.-M. Rignanese, M. Verstraete, J.-M. Beuken, Y. Pouillon, R. Caracas, F. Jollet,
 M. Torrent, G. Zerah, M. Mikami, Ph. Ghosez, M. Veithen, J.-Y. Raty, V. Olevano, F. Bruneval,
 L. Reining, R. Godby, G. Onida, D.R. Hamann, and D.C. Allan.
 Z. Kristallogr. 220, 558-562 (2005).
 Comment : the second generic paper describing the ABINIT project. Note that this paper
 should be cited especially if you are using the GW part of ABINIT, as several authors
 of this part are not in the list of authors of the first or third paper.
 The .pdf of the latter paper is available at http://www.abinit.org/about/zfk_0505-06_558-562.pdf.
 Note that it should not redistributed (Copyright by Oldenburg Wissenshaftverlag,
 the licence allows the authors to put it on the Web).


 And optionally :

 [3] First-principles computation of material properties : the ABINIT software project. 
 X. Gonze, J.-M. Beuken, R. Caracas, F. Detraux, M. Fuchs, G.-M. Rignanese, L. Sindic,
 M. Verstraete, G. Zerah, F. Jollet, M. Torrent, A. Roy, M. Mikami, Ph. Ghosez, J.-Y. Raty, D.C. Allan.
 Computational Materials Science 25, 478-492 (2002). http://dx.doi.org/10.1016/S0927-0256(02)00325-7
 Comment : the original paper describing the ABINIT project.

 [4] Fast radix 2, 3, 4 and 5 kernels for Fast Fourier Transformations
 on computers with overlapping multiply-add instructions.
 S. Goedecker, SIAM J. on Scientific Computing 18, 1605 (1997).
-
- Proc.   0 individual time (sec): cpu=          0.5  wall=          0.5

================================================================================

 Calculation completed.
.Delivered    7 WARNINGs and   0 COMMENTs to log file.
+Overall time at end (sec) : cpu=          0.5  wall=          0.5
