
.Version 7.9.3 of ABINIT 
.(MPI version, prepared for a x86_64_linux_gnu4.7 computer) 

.Copyright (C) 1998-2014 ABINIT group . 
 ABINIT comes with ABSOLUTELY NO WARRANTY.
 It is free software, and you are welcome to redistribute it
 under certain conditions (GNU General Public License,
 see ~abinit/COPYING or http://www.gnu.org/copyleft/gpl.txt).

 ABINIT is a project of the Universite Catholique de Louvain,
 Corning Inc. and other collaborators, see ~abinit/doc/developers/contributors.txt .
 Please read ~abinit/doc/users/acknowledgments.html for suggested
 acknowledgments of the ABINIT effort.
 For more information, see http://www.abinit.org .

.Starting date : Sat 30 Aug 2014.
- ( at 22h35 )
  
- input  file    -> t15.in
- output file    -> t15.out
- root for input  files -> t15i
- root for output files -> t15o


 DATASET    1 : space group P1 (#  1); Bravais aP (primitive triclinic)
================================================================================
 Values of the parameters that define the memory need for DATASET  1.
   intxc =         0  ionmov =         0    iscf =        17 xclevel =         1
  lmnmax =        13   lnmax =         5   mband =        19  mffmem =         1
P  mgfft =        40   mkmem =         1 mpssoang=         3     mpw =      1872
  mqgrid =      3132   natom =         2    nfft =     64000    nkpt =         1
  nloalg =         4  nspden =         2 nspinor =         1  nsppol =         2
    nsym =         1  n1xccc =         1  ntypat =         1  occopt =         7
 PAW method is used; the additional fine FFT grid is defined by:
   mgfftf=        64    nfftf =    262144
================================================================================
P This job should need less than                      69.810 Mbytes of memory.
  Rough estimation (10% accuracy) of disk space for files :
_ WF disk file :      1.087 Mbytes ; DEN or POT disk file :      4.002 Mbytes.
================================================================================


 DATASET    2 : space group P1 (#  1); Bravais aP (primitive triclinic)
================================================================================
 Values of the parameters that define the memory need for DATASET  2.
   intxc =         0  ionmov =         0    iscf =        17 xclevel =         1
  lmnmax =        13   lnmax =         5   mband =        19  mffmem =         1
P  mgfft =        40   mkmem =         1 mpssoang=         3     mpw =      1872
  mqgrid =      3132   natom =         2    nfft =     64000    nkpt =         1
  nloalg =         4  nspden =         2 nspinor =         1  nsppol =         2
    nsym =         1  n1xccc =         1  ntypat =         1  occopt =         7
 PAW method is used; the additional fine FFT grid is defined by:
   mgfftf=        64    nfftf =    262144
================================================================================
P This job should need less than                      69.810 Mbytes of memory.
  Rough estimation (10% accuracy) of disk space for files :
_ WF disk file :      1.087 Mbytes ; DEN or POT disk file :      4.002 Mbytes.
================================================================================


 DATASET    3 : space group P1 (#  1); Bravais aP (primitive triclinic)
================================================================================
 Values of the parameters that define the memory need for DATASET  3.
   intxc =         0  ionmov =         0    iscf =        17 xclevel =         1
  lmnmax =        13   lnmax =         5   mband =        19  mffmem =         1
P  mgfft =        40   mkmem =         1 mpssoang=         3     mpw =      1872
  mqgrid =      3132   natom =         2    nfft =     64000    nkpt =         1
  nloalg =         4  nspden =         2 nspinor =         1  nsppol =         2
    nsym =         1  n1xccc =         1  ntypat =         1  occopt =         7
 PAW method is used; the additional fine FFT grid is defined by:
   mgfftf=        64    nfftf =    262144
================================================================================
P This job should need less than                      69.810 Mbytes of memory.
  Rough estimation (10% accuracy) of disk space for files :
_ WF disk file :      1.087 Mbytes ; DEN or POT disk file :      4.002 Mbytes.
================================================================================

--------------------------------------------------------------------------------
------------- Echo of variables that govern the present computation ------------
--------------------------------------------------------------------------------
-
- outvars: echo of selected default values                                      
-   accesswff0 =  0 , fftalg0 =112 , wfoptalg0 = 10
-
- outvars: echo of global parameters not present in the input file              
-  max_nthreads =    0
-
 -outvars: echo values of preprocessed input variables --------
            acell      1.1000000000E+01  1.1000000000E+01  1.1000000000E+01 Bohr
              amu      5.86900000E+01
         atvshift2       0.00000    0.00000    0.00100    0.00000    0.00000
                         0.00000    0.00000    0.00100    0.00000    0.00000
                         0.00000    0.00000    0.00100    0.00000    0.00000
                         0.00000    0.00000    0.00100    0.00000    0.00000
         atvshift3       0.00000    0.00100    0.00000    0.00100    0.00000
                         0.00000    0.00100    0.00000    0.00100    0.00000
                         0.00000    0.00100    0.00000    0.00100    0.00000
                         0.00000    0.00100    0.00000    0.00100    0.00000
           diemac      2.00000000E+00
           diemix      2.00000000E-01
        dmatpuopt           1
             ecut      1.50000000E+01 Hartree
-          fftalg         112
           getwfk          -1
           istwfk        2
              ixc           7
           jdtset        1    2    3
           kptopt           0
            lpawu           2
P           mkmem           1
            natom           2
            nband          19
        natvshift1       0
        natvshift2       5
        natvshift3       5
           ndtset           3
            ngfft          40      40      40
          ngfftdg          64      64      64
             nkpt           1
         npulayit           3
           nspden           2
           nsppol           2
            nstep1         22
            nstep2         10
            nstep3          8
             nsym           1
           ntypat           1
              occ      1.000000  1.000000  1.000000  1.000000  1.000000  1.000000
                       1.000000  1.000000  1.000000  1.000000  1.000000  1.000000
                       1.000000  1.000000  1.000000  1.000000  1.000000  1.000000
                       0.000000
                       1.000000  1.000000  1.000000  1.000000  1.000000  1.000000
                       1.000000  1.000000  1.000000  1.000000  1.000000  1.000000
                       1.000000  1.000000  1.000000  1.000000  1.000000  1.000000
                       0.000000
           occopt           7
        pawecutdg      4.00000000E+01 Hartree
          spgroup           1
           toldfe      1.00000000E-08 Hartree
           tsmear      1.00000000E-02 Hartree
            typat      1  1
          usepawu           1
           useylm           1
           xangst      0.0000000000E+00  0.0000000000E+00 -1.1112721380E+00
                       0.0000000000E+00  0.0000000000E+00  1.1112721380E+00
            xcart      0.0000000000E+00  0.0000000000E+00 -2.1000000000E+00
                       0.0000000000E+00  0.0000000000E+00  2.1000000000E+00
             xred      0.0000000000E+00  0.0000000000E+00 -1.9090909091E-01
                       0.0000000000E+00  0.0000000000E+00  1.9090909091E-01
            znucl       28.00000

================================================================================

 chkinp: Checking input parameters for consistency, jdtset=   1.

 chkinp: Checking input parameters for consistency, jdtset=   2.

 chkinp: Checking input parameters for consistency, jdtset=   3.

================================================================================
== DATASET  1 ==================================================================
-   nproc =    1

 Exchange-correlation functional for the present dataset will be:
  LDA: Perdew-Wang 92 LSD fit to Ceperley-Alder data - ixc=7
 Citation for XC functional:
  J.P.Perdew and Y.Wang, PRB 45, 13244 (1992)

 Real(R)+Recip(G) space primitive vectors, cartesian coordinates (Bohr,Bohr^-1):
 R(1)= 11.0000000  0.0000000  0.0000000  G(1)=  0.0909091  0.0000000  0.0000000
 R(2)=  0.0000000 11.0000000  0.0000000  G(2)=  0.0000000  0.0909091  0.0000000
 R(3)=  0.0000000  0.0000000 11.0000000  G(3)=  0.0000000  0.0000000  0.0909091
 Unit cell volume ucvol=  1.3310000E+03 bohr^3
 Angles (23,13,12)=  9.00000000E+01  9.00000000E+01  9.00000000E+01 degrees

 Coarse grid specifications (used for wave-functions):

 getcut: wavevector=  0.0000  0.0000  0.0000  ngfft=  40  40  40
         ecut(hartree)=     15.000   => boxcut(ratio)=   2.08572

 Fine grid specifications (used for densities):

 getcut: wavevector=  0.0000  0.0000  0.0000  ngfft=  64  64  64
         ecut(hartree)=     40.000   => boxcut(ratio)=   2.04358

--- Pseudopotential description ------------------------------------------------
- pspini: atom type   1  psp file is /home/gonze/ABINIT/ABINITv7.9.3/trunk/7.9.3-private/tests/Psps_for_tests/28ni.paw
- pspatm: opening atomic psp file    /home/gonze/ABINIT/ABINITv7.9.3/trunk/7.9.3-private/tests/Psps_for_tests/28ni.paw
- Paw atomic data for element Ni - Generated by AtomPAW (N. Holzwarth) + AtomPAW2Abinit v3.0.5
- 28.00000  18.00000  20061204                znucl, zion, pspdat
    7    7    2    0       350   0.00000      pspcod,pspxc,lmax,lloc,mmax,r2well
 Pseudopotential format is: paw3
 basis_size (lnmax)=  5 (lmn_size= 13), orbitals=   0   0   1   1   2
 Spheres core radius: rc_sph= 2.30000000
 3 radial meshes are used:
  - mesh 1: r(i)=AA*exp(BB*(i-2)), size= 350 , AA= 0.11804E-04 BB= 0.35000E-01
  - mesh 2: r(i)=step*(i-1), size= 921 , step= 0.25000E-02
  - mesh 3: r(i)=AA*exp(BB*(i-2)), size= 391 , AA= 0.11804E-04 BB= 0.35000E-01
 Shapefunction is SIN type: shapef(r)=[sin(pi*r/rshp)/(pi*r/rshp)]**2
 Radius for shape functions = sphere core radius
 Radial grid used for partial waves is grid 1
 Radial grid used for projectors is grid  2
 Radial grid used for (t)core density is grid 1
 Radial grid used for Vloc is grid 3

 pawpsp_calc: WARNING -
  Atomic data could produce inaccurate results:
    Wavefunctions and pseudo-wavefunctions should
    be given on a radial mesh larger than the PAW
    spheres (at least 2 additional points) !
  Action: check your pseudopotential file.
 Compensation charge density is taken into account in XC energy/potential
 pspatm: atomic psp has been read  and splines computed

   3.62060653E+03                                ecore*ucvol(ha*bohr**3)
--------------------------------------------------------------------------------

P newkpt: treating     19 bands with npw=    1872 for ikpt=   1 by node    0
P newkpt: treating     19 bands with npw=    1872 for ikpt=   1 by node    0

_setup2: Arith. and geom. avg. npw (full set) are    3743.000    3743.000


 ******************************************
 LDA+U Method used: FLL
 ******************************************

================================================================================

     iter   Etot(hartree)     deltaE(h) residm    nres2    magn
 ETOT  1  -339.19803337947    -3.39E+02 2.35E+00 2.76E+02 0.000
 ETOT  2  -341.69415480101    -2.50E+00 1.94E-02 3.42E+02 0.000
 ETOT  3  -342.31731989774    -6.23E-01 2.07E-03 4.57E+02 0.000
 ETOT  4  -342.63127469062    -3.14E-01 6.15E-02 9.58E+02 0.000
 ETOT  5  -342.08717105981     5.44E-01 2.17E-02 6.73E+02 0.000
 ETOT  6  -342.34247339999    -2.55E-01 6.68E-02 7.65E+02 0.000
 ETOT  7  -340.63428617243     1.71E+00 1.37E-01 8.26E+01 0.000
 ETOT  8  -340.99097004634    -3.57E-01 1.79E-02 1.17E+02 0.000
 ETOT  9  -340.72431714714     2.67E-01 2.10E-03 3.50E+01 0.000
 ETOT 10  -340.72638698946    -2.07E-03 1.90E-03 3.64E+01 0.000
 ETOT 11  -340.66642990111     6.00E-02 1.71E-03 1.62E+01 0.000
 ETOT 12  -340.64919024104     1.72E-02 2.63E-04 6.23E+00 0.000
 ETOT 13  -340.63972261980     9.47E-03 2.65E-04 6.36E-01 0.000
 ETOT 14  -340.63786817164     1.85E-03 8.85E-05 4.42E-01 0.000
 ETOT 15  -340.63747985562     3.88E-04 7.52E-05 7.40E-01 0.000
 ETOT 16  -340.63705357010     4.26E-04 3.22E-05 6.96E-02 0.000
 ETOT 17  -340.63685453476     1.99E-04 7.22E-06 1.62E-02 0.000
 ETOT 18  -340.63685007882     4.46E-06 1.25E-06 6.11E-03 0.000
 ETOT 19  -340.63685556503    -5.49E-06 1.14E-06 1.42E-03 0.000
 ETOT 20  -340.63686628205    -1.07E-05 6.59E-07 7.78E-03 0.000
 ETOT 21  -340.63686438140     1.90E-06 4.31E-07 7.78E-04 0.000
 ETOT 22  -340.63686560382    -1.22E-06 6.55E-08 2.51E-04 0.000

 Cartesian components of stress tensor (hartree/bohr^3)
  sigma(1 1)=  2.29991378E-04  sigma(3 2)= -5.45311344E-08
  sigma(2 2)=  2.29898413E-04  sigma(3 1)=  6.42341147E-08
  sigma(3 3)=  2.67370539E-04  sigma(2 1)= -2.07298928E-08


 scprqt:  WARNING -
  nstep=   22 was not enough SCF cycles to converge;
  maximum energy difference=  1.222E-06 exceeds toldfe=  1.000E-08


 PAW TEST:
 ==== Compensation charge inside spheres ============
 The following values must be close to each other ...
 Compensation charge over spherical meshes =     20.810407637650698
 Compensation charge over fine fft grid    =     20.810759880237839

 ==== Results concerning PAW augmentation regions ====

 Total pseudopotential strength Dij (hartree):
 Atom #  1 - Spin component 1
  -2.93177  -1.01707  -0.00001  -0.00181  -0.00001  -0.00000   0.00039  -0.00000   0.00000  -0.00000  -0.00798   0.00000 ...
  -1.01707  -0.59022  -0.00000  -0.00012  -0.00000  -0.00000  -0.00094  -0.00000   0.00000  -0.00000  -0.00274   0.00000 ...
  -0.00001  -0.00000  -2.41822  -0.00000   0.00000  -0.56754  -0.00000   0.00000  -0.00001  -0.00023   0.00000  -0.00000 ...
  -0.00181  -0.00012  -0.00000  -2.43074   0.00000  -0.00000  -0.57137   0.00000  -0.00000  -0.00001  -0.00147  -0.00001 ...
  -0.00001  -0.00000   0.00000   0.00000  -2.41822   0.00000   0.00000  -0.56754  -0.00001  -0.00000   0.00001  -0.00023 ...
  -0.00000  -0.00000  -0.56754  -0.00000   0.00000  -0.33948  -0.00000   0.00000  -0.00000   0.00010   0.00000  -0.00000 ...
   0.00039  -0.00094  -0.00000  -0.57137   0.00000  -0.00000  -0.34062   0.00000  -0.00000  -0.00000  -0.00048  -0.00000 ...
  -0.00000  -0.00000   0.00000   0.00000  -0.56754   0.00000   0.00000  -0.33948  -0.00000  -0.00000   0.00000   0.00010 ...
   0.00000   0.00000  -0.00001  -0.00000  -0.00001  -0.00000  -0.00000  -0.00000  -0.49163   0.00000  -0.00000  -0.00000 ...
  -0.00000  -0.00000  -0.00023  -0.00001  -0.00000   0.00010  -0.00000  -0.00000   0.00000  -0.49959  -0.00000  -0.00000 ...
  -0.00798  -0.00274   0.00000  -0.00147   0.00001   0.00000  -0.00048   0.00000  -0.00000  -0.00000  -0.50174   0.00000 ...
   0.00000   0.00000  -0.00000  -0.00001  -0.00023  -0.00000  -0.00000   0.00010  -0.00000  -0.00000   0.00000  -0.49959 ...
   ...  only 12  components have been written...
 Atom #  1 - Spin component 2
  -2.93177  -1.01707  -0.00001  -0.00181  -0.00001  -0.00000   0.00039  -0.00000   0.00000  -0.00000  -0.00798   0.00000 ...
  -1.01707  -0.59022  -0.00000  -0.00012  -0.00000  -0.00000  -0.00094  -0.00000   0.00000  -0.00000  -0.00274   0.00000 ...
  -0.00001  -0.00000  -2.41822  -0.00000   0.00000  -0.56754  -0.00000   0.00000  -0.00001  -0.00023   0.00000  -0.00000 ...
  -0.00181  -0.00012  -0.00000  -2.43074   0.00000  -0.00000  -0.57137   0.00000  -0.00000  -0.00001  -0.00147  -0.00001 ...
  -0.00001  -0.00000   0.00000   0.00000  -2.41822   0.00000   0.00000  -0.56754  -0.00001  -0.00000   0.00001  -0.00023 ...
  -0.00000  -0.00000  -0.56754  -0.00000   0.00000  -0.33948  -0.00000   0.00000  -0.00000   0.00010   0.00000  -0.00000 ...
   0.00039  -0.00094  -0.00000  -0.57137   0.00000  -0.00000  -0.34062   0.00000  -0.00000  -0.00000  -0.00048  -0.00000 ...
  -0.00000  -0.00000   0.00000   0.00000  -0.56754   0.00000   0.00000  -0.33948  -0.00000  -0.00000   0.00000   0.00010 ...
   0.00000   0.00000  -0.00001  -0.00000  -0.00001  -0.00000  -0.00000  -0.00000  -0.49163   0.00000  -0.00000  -0.00000 ...
  -0.00000  -0.00000  -0.00023  -0.00001  -0.00000   0.00010  -0.00000  -0.00000   0.00000  -0.49959  -0.00000  -0.00000 ...
  -0.00798  -0.00274   0.00000  -0.00147   0.00001   0.00000  -0.00048   0.00000  -0.00000  -0.00000  -0.50174   0.00000 ...
   0.00000   0.00000  -0.00000  -0.00001  -0.00023  -0.00000  -0.00000   0.00010  -0.00000  -0.00000   0.00000  -0.49959 ...
   ...  only 12  components have been written...
 Atom #  2 - Spin component 1
  -2.93178  -1.01706  -0.00001   0.00176  -0.00001  -0.00000  -0.00040  -0.00000   0.00000  -0.00000  -0.00799   0.00000 ...
  -1.01706  -0.59022  -0.00000   0.00011  -0.00000  -0.00000   0.00094  -0.00000   0.00000  -0.00000  -0.00274   0.00000 ...
  -0.00001  -0.00000  -2.41821  -0.00000   0.00000  -0.56754  -0.00000   0.00000  -0.00001   0.00020   0.00000   0.00000 ...
   0.00176   0.00011  -0.00000  -2.43075   0.00000  -0.00000  -0.57137   0.00000   0.00000  -0.00001   0.00143  -0.00001 ...
  -0.00001  -0.00000   0.00000   0.00000  -2.41821   0.00000   0.00000  -0.56754  -0.00001   0.00000   0.00000   0.00020 ...
  -0.00000  -0.00000  -0.56754  -0.00000   0.00000  -0.33948  -0.00000  -0.00000  -0.00000  -0.00011   0.00000   0.00000 ...
  -0.00040   0.00094  -0.00000  -0.57137   0.00000  -0.00000  -0.34062   0.00000   0.00000  -0.00000   0.00047  -0.00000 ...
  -0.00000  -0.00000   0.00000   0.00000  -0.56754  -0.00000   0.00000  -0.33948  -0.00000   0.00000   0.00000  -0.00011 ...
   0.00000   0.00000  -0.00001   0.00000  -0.00001  -0.00000   0.00000  -0.00000  -0.49162   0.00000  -0.00000  -0.00000 ...
  -0.00000  -0.00000   0.00020  -0.00001   0.00000  -0.00011  -0.00000   0.00000   0.00000  -0.49959  -0.00000  -0.00000 ...
  -0.00799  -0.00274   0.00000   0.00143   0.00000   0.00000   0.00047   0.00000  -0.00000  -0.00000  -0.50173   0.00000 ...
   0.00000   0.00000   0.00000  -0.00001   0.00020   0.00000  -0.00000  -0.00011  -0.00000  -0.00000   0.00000  -0.49959 ...
   ...  only 12  components have been written...
 Atom #  2 - Spin component 2
  -2.93178  -1.01706  -0.00001   0.00176  -0.00001  -0.00000  -0.00040  -0.00000   0.00000  -0.00000  -0.00799   0.00000 ...
  -1.01706  -0.59022  -0.00000   0.00011  -0.00000  -0.00000   0.00094  -0.00000   0.00000  -0.00000  -0.00274   0.00000 ...
  -0.00001  -0.00000  -2.41821  -0.00000   0.00000  -0.56754  -0.00000   0.00000  -0.00001   0.00020   0.00000   0.00000 ...
   0.00176   0.00011  -0.00000  -2.43075   0.00000  -0.00000  -0.57137   0.00000   0.00000  -0.00001   0.00143  -0.00001 ...
  -0.00001  -0.00000   0.00000   0.00000  -2.41821   0.00000   0.00000  -0.56754  -0.00001   0.00000   0.00000   0.00020 ...
  -0.00000  -0.00000  -0.56754  -0.00000   0.00000  -0.33948  -0.00000  -0.00000  -0.00000  -0.00011   0.00000   0.00000 ...
  -0.00040   0.00094  -0.00000  -0.57137   0.00000  -0.00000  -0.34062   0.00000   0.00000  -0.00000   0.00047  -0.00000 ...
  -0.00000  -0.00000   0.00000   0.00000  -0.56754  -0.00000   0.00000  -0.33948  -0.00000   0.00000   0.00000  -0.00011 ...
   0.00000   0.00000  -0.00001   0.00000  -0.00001  -0.00000   0.00000  -0.00000  -0.49162   0.00000  -0.00000  -0.00000 ...
  -0.00000  -0.00000   0.00020  -0.00001   0.00000  -0.00011  -0.00000   0.00000   0.00000  -0.49959  -0.00000  -0.00000 ...
  -0.00799  -0.00274   0.00000   0.00143   0.00000   0.00000   0.00047   0.00000  -0.00000  -0.00000  -0.50173   0.00000 ...
   0.00000   0.00000   0.00000  -0.00001   0.00020   0.00000  -0.00000  -0.00011  -0.00000  -0.00000   0.00000  -0.49959 ...
   ...  only 12  components have been written...


 Augmentation waves occupancies Rhoij:
 Atom #  1 - Spin component 1
   1.04312  -0.10798   0.00000   0.01186   0.00001  -0.00001  -0.03079  -0.00001  -0.00000   0.00001   0.02257  -0.00001 ...
  -0.10798   0.27196  -0.00000  -0.02634  -0.00000  -0.00000   0.06776  -0.00000   0.00000  -0.00002  -0.05003   0.00002 ...
   0.00000  -0.00000   0.97195   0.00001   0.00000   0.04236  -0.00003  -0.00000   0.00002  -0.00446  -0.00001   0.00000 ...
   0.01186  -0.02634   0.00001   0.97303  -0.00001  -0.00002   0.03756   0.00001  -0.00000   0.00001  -0.01815   0.00002 ...
   0.00001  -0.00000   0.00000  -0.00001   0.97195  -0.00000   0.00001   0.04235   0.00001   0.00000  -0.00002  -0.00446 ...
  -0.00001  -0.00000   0.04236  -0.00002  -0.00000   0.01280   0.00000  -0.00000  -0.00005   0.01073   0.00003  -0.00001 ...
  -0.03079   0.06776  -0.00003   0.03756   0.00001   0.00000   0.03168  -0.00000   0.00000  -0.00003   0.04771  -0.00006 ...
  -0.00001  -0.00000  -0.00000   0.00001   0.04235  -0.00000  -0.00000   0.01279  -0.00004  -0.00001   0.00004   0.01071 ...
  -0.00000   0.00000   0.00002  -0.00000   0.00001  -0.00005   0.00000  -0.00004   0.87790  -0.00000   0.00002   0.00002 ...
   0.00001  -0.00002  -0.00446   0.00001   0.00000   0.01073  -0.00003  -0.00001  -0.00000   0.81575   0.00000   0.00003 ...
   0.02257  -0.05003  -0.00001  -0.01815  -0.00002   0.00003   0.04771   0.00004   0.00002   0.00000   0.82745  -0.00001 ...
  -0.00001   0.00002   0.00000   0.00002  -0.00446  -0.00001  -0.00006   0.01071   0.00002   0.00003  -0.00001   0.81577 ...
   ...  only 12  components have been written...
 Atom #  1 - Spin component 2
   1.04312  -0.10798   0.00000   0.01186   0.00001  -0.00001  -0.03079  -0.00001  -0.00000   0.00001   0.02257  -0.00001 ...
  -0.10798   0.27196  -0.00000  -0.02634  -0.00000  -0.00000   0.06776  -0.00000   0.00000  -0.00002  -0.05003   0.00002 ...
   0.00000  -0.00000   0.97195   0.00001   0.00000   0.04236  -0.00003  -0.00000   0.00002  -0.00446  -0.00001   0.00000 ...
   0.01186  -0.02634   0.00001   0.97303  -0.00001  -0.00002   0.03756   0.00001  -0.00000   0.00001  -0.01815   0.00002 ...
   0.00001  -0.00000   0.00000  -0.00001   0.97195  -0.00000   0.00001   0.04235   0.00001   0.00000  -0.00002  -0.00446 ...
  -0.00001  -0.00000   0.04236  -0.00002  -0.00000   0.01280   0.00000  -0.00000  -0.00005   0.01073   0.00003  -0.00001 ...
  -0.03079   0.06776  -0.00003   0.03756   0.00001   0.00000   0.03168  -0.00000   0.00000  -0.00003   0.04771  -0.00006 ...
  -0.00001  -0.00000  -0.00000   0.00001   0.04235  -0.00000  -0.00000   0.01279  -0.00004  -0.00001   0.00004   0.01071 ...
  -0.00000   0.00000   0.00002  -0.00000   0.00001  -0.00005   0.00000  -0.00004   0.87790  -0.00000   0.00002   0.00002 ...
   0.00001  -0.00002  -0.00446   0.00001   0.00000   0.01073  -0.00003  -0.00001  -0.00000   0.81575   0.00000   0.00003 ...
   0.02257  -0.05003  -0.00001  -0.01815  -0.00002   0.00003   0.04771   0.00004   0.00002   0.00000   0.82745  -0.00001 ...
  -0.00001   0.00002   0.00000   0.00002  -0.00446  -0.00001  -0.00006   0.01071   0.00002   0.00003  -0.00001   0.81577 ...
   ...  only 12  components have been written...
 Atom #  2 - Spin component 1
   1.04317  -0.10803   0.00001  -0.01183   0.00000  -0.00001   0.03072  -0.00000  -0.00000   0.00001   0.02259  -0.00000 ...
  -0.10803   0.27192  -0.00000   0.02631  -0.00000   0.00000  -0.06775  -0.00000   0.00001  -0.00002  -0.05008   0.00001 ...
   0.00001  -0.00000   0.97202   0.00001   0.00000   0.04225  -0.00003  -0.00000   0.00001   0.00453  -0.00001  -0.00000 ...
  -0.01183   0.02631   0.00001   0.97311  -0.00001  -0.00002   0.03742   0.00001  -0.00001   0.00001   0.01824   0.00001 ...
   0.00000  -0.00000   0.00000  -0.00001   0.97203  -0.00001   0.00001   0.04224   0.00001  -0.00000  -0.00001   0.00453 ...
  -0.00001   0.00000   0.04225  -0.00002  -0.00001   0.01277  -0.00000  -0.00000  -0.00004  -0.01092   0.00003   0.00001 ...
   0.03072  -0.06775  -0.00003   0.03742   0.00001  -0.00000   0.03171   0.00000   0.00002  -0.00003  -0.04797  -0.00003 ...
  -0.00000  -0.00000  -0.00000   0.00001   0.04224  -0.00000   0.00000   0.01277  -0.00004   0.00001   0.00002  -0.01091 ...
  -0.00000   0.00001   0.00001  -0.00001   0.00001  -0.00004   0.00002  -0.00004   0.87744  -0.00003   0.00004   0.00003 ...
   0.00001  -0.00002   0.00453   0.00001  -0.00000  -0.01092  -0.00003   0.00001  -0.00003   0.81562  -0.00001   0.00002 ...
   0.02259  -0.05008  -0.00001   0.01824  -0.00001   0.00003  -0.04797   0.00002   0.00004  -0.00001   0.82733   0.00002 ...
  -0.00000   0.00001  -0.00000   0.00001   0.00453   0.00001  -0.00003  -0.01091   0.00003   0.00002   0.00002   0.81566 ...
   ...  only 12  components have been written...
 Atom #  2 - Spin component 2
   1.04317  -0.10803   0.00001  -0.01183   0.00000  -0.00001   0.03072  -0.00000  -0.00000   0.00001   0.02259  -0.00000 ...
  -0.10803   0.27192  -0.00000   0.02631  -0.00000   0.00000  -0.06775  -0.00000   0.00001  -0.00002  -0.05008   0.00001 ...
   0.00001  -0.00000   0.97202   0.00001   0.00000   0.04225  -0.00003  -0.00000   0.00001   0.00453  -0.00001  -0.00000 ...
  -0.01183   0.02631   0.00001   0.97311  -0.00001  -0.00002   0.03742   0.00001  -0.00001   0.00001   0.01824   0.00001 ...
   0.00000  -0.00000   0.00000  -0.00001   0.97203  -0.00001   0.00001   0.04224   0.00001  -0.00000  -0.00001   0.00453 ...
  -0.00001   0.00000   0.04225  -0.00002  -0.00001   0.01277  -0.00000  -0.00000  -0.00004  -0.01092   0.00003   0.00001 ...
   0.03072  -0.06775  -0.00003   0.03742   0.00001  -0.00000   0.03171   0.00000   0.00002  -0.00003  -0.04797  -0.00003 ...
  -0.00000  -0.00000  -0.00000   0.00001   0.04224  -0.00000   0.00000   0.01277  -0.00004   0.00001   0.00002  -0.01091 ...
  -0.00000   0.00001   0.00001  -0.00001   0.00001  -0.00004   0.00002  -0.00004   0.87744  -0.00003   0.00004   0.00003 ...
   0.00001  -0.00002   0.00453   0.00001  -0.00000  -0.01092  -0.00003   0.00001  -0.00003   0.81562  -0.00001   0.00002 ...
   0.02259  -0.05008  -0.00001   0.01824  -0.00001   0.00003  -0.04797   0.00002   0.00004  -0.00001   0.82733   0.00002 ...
  -0.00000   0.00001  -0.00000   0.00001   0.00453   0.00001  -0.00003  -0.01091   0.00003   0.00002   0.00002   0.81566 ...
   ...  only 12  components have been written...

 "PAW+U" part of augmentation waves occupancies Rhoij:
 Atom #  1 - L=2 ONLY - Spin component 1
   0.87790  -0.00000   0.00002   0.00002   0.00000
  -0.00000   0.81575   0.00000   0.00003  -0.00001
   0.00002   0.00000   0.82745  -0.00001   0.00003
   0.00002   0.00003  -0.00001   0.81577  -0.00001
   0.00000  -0.00001   0.00003  -0.00001   0.87684
 Atom #  1 - L=2 ONLY - Spin component 2
   0.87790  -0.00000   0.00002   0.00002   0.00000
  -0.00000   0.81575   0.00000   0.00003  -0.00001
   0.00002   0.00000   0.82745  -0.00001   0.00003
   0.00002   0.00003  -0.00001   0.81577  -0.00001
   0.00000  -0.00001   0.00003  -0.00001   0.87684
 Atom #  2 - L=2 ONLY - Spin component 1
   0.87744  -0.00003   0.00004   0.00003  -0.00000
  -0.00003   0.81562  -0.00001   0.00002  -0.00002
   0.00004  -0.00001   0.82733   0.00002   0.00003
   0.00003   0.00002   0.00002   0.81566  -0.00002
  -0.00000  -0.00002   0.00003  -0.00002   0.87646
 Atom #  2 - L=2 ONLY - Spin component 2
   0.87744  -0.00003   0.00004   0.00003  -0.00000
  -0.00003   0.81562  -0.00001   0.00002  -0.00002
   0.00004  -0.00001   0.82733   0.00002   0.00003
   0.00003   0.00002   0.00002   0.81566  -0.00002
  -0.00000  -0.00002   0.00003  -0.00002   0.87646

 ---------- LDA+U DATA --------------------------------------------------- 

 ====== For Atom     1, occupations for correlated orbitals. lpawu =   2

 Atom   1. Occ. for lpawu and for spin  1 =   3.88912
 Atom   1. Occ. for lpawu and for spin  2 =   3.88912
 => On atom   1,  local Mag. for lpawu is        0.000000

 == Occupation matrix for correlated orbitals:

 Occupation matrix for spin  1
     0.81027   -0.00000    0.00002    0.00002    0.00000
    -0.00000    0.75291    0.00000    0.00002   -0.00001
     0.00002    0.00000    0.76371   -0.00001    0.00003
     0.00002    0.00002   -0.00001    0.75293   -0.00000
     0.00000   -0.00001    0.00003   -0.00000    0.80930


 Occupation matrix for spin  2
     0.81027   -0.00000    0.00002    0.00002    0.00000
    -0.00000    0.75291    0.00000    0.00002   -0.00001
     0.00002    0.00000    0.76371   -0.00001    0.00003
     0.00002    0.00002   -0.00001    0.75293   -0.00000
     0.00000   -0.00001    0.00003   -0.00000    0.80930


 ====== For Atom     2, occupations for correlated orbitals. lpawu =   2

 Atom   2. Occ. for lpawu and for spin  1 =   3.88801
 Atom   2. Occ. for lpawu and for spin  2 =   3.88801
 => On atom   2,  local Mag. for lpawu is        0.000000

 == Occupation matrix for correlated orbitals:

 Occupation matrix for spin  1
     0.80985   -0.00002    0.00004    0.00002   -0.00000
    -0.00002    0.75279   -0.00001    0.00002   -0.00002
     0.00004   -0.00001    0.76360    0.00001    0.00002
     0.00002    0.00002    0.00001    0.75283   -0.00002
    -0.00000   -0.00002    0.00002   -0.00002    0.80894


 Occupation matrix for spin  2
     0.80985   -0.00002    0.00004    0.00002   -0.00000
    -0.00002    0.75279   -0.00001    0.00002   -0.00002
     0.00004   -0.00001    0.76360    0.00001    0.00002
     0.00002    0.00002    0.00001    0.75283   -0.00002
    -0.00000   -0.00002    0.00002   -0.00002    0.80894



================================================================================

 ----iterations are completed or convergence reached----

 Mean square residual over all n,k,spin=   3.2072E-08; max=  6.5528E-08
   0.0000  0.0000  0.0000    1  6.55278E-08 kpt; spin; max resid(k); each band:
  4.96E-08 4.98E-08 5.82E-08 6.55E-08 4.56E-08 3.68E-08 3.89E-08 3.43E-08
  9.96E-09 2.84E-08 3.07E-08 2.47E-08 1.88E-08 1.89E-08 1.63E-08 1.60E-08
  2.27E-08 2.11E-08 2.31E-08
   0.0000  0.0000  0.0000    2  6.55278E-08 kpt; spin; max resid(k); each band:
  4.96E-08 4.98E-08 5.82E-08 6.55E-08 4.56E-08 3.68E-08 3.89E-08 3.43E-08
  9.96E-09 2.84E-08 3.07E-08 2.47E-08 1.88E-08 1.89E-08 1.63E-08 1.60E-08
  2.27E-08 2.11E-08 2.31E-08
 reduced coordinates (array xred) for    2 atoms
       0.000000000000      0.000000000000     -0.190909090909
       0.000000000000      0.000000000000      0.190909090909
 rms dE/dt=  4.9458E-02; max dE/dt=  8.5996E-02; dE/dt below (all hartree)
    1       0.000356933830      0.000382355983      0.085995974032
    2       0.000099488886     -0.000068578946     -0.085327875052

 cartesian coordinates (angstrom) at end:
    1      0.00000000000000     0.00000000000000    -1.11127213803900
    2      0.00000000000000     0.00000000000000     1.11127213803900

 cartesian forces (hartree/bohr) at end:
    1     -0.00001170204289    -0.00002049704222    -0.00778744768565
    2      0.00001170204289     0.00002049704222     0.00778744768565
 frms,max,avg= 4.4961057E-03 7.7874477E-03  -2.075E-05 -1.426E-05 -3.037E-05 h/b

 cartesian forces (eV/Angstrom) at end:
    1     -0.00060174318888    -0.00105400020049    -0.40044662699769
    2      0.00060174318888     0.00105400020049     0.40044662699769
 frms,max,avg= 2.3119903E-01 4.0044663E-01  -1.067E-03 -7.334E-04 -1.562E-03 e/A
 length scales= 11.000000000000 11.000000000000 11.000000000000 bohr
              =  5.820949294490  5.820949294490  5.820949294490 angstroms
 prteigrs : about to open file t15o_DS1_EIG
 Fermi (or HOMO) energy (hartree) =  -0.12659   Average Vxc (hartree)=  -0.16812
 Magnetization (Bohr magneton)=  3.22431610E-08
 Total spin up =  1.80000000E+01   Total spin down =  1.80000000E+01
 Eigenvalues (hartree) for nkpt=   1  k points, SPIN UP:
 kpt#   1, nband= 19, wtk=  1.00000, kpt=  0.0000  0.0000  0.0000 (reduced coord)
  -3.72499  -3.72387  -2.38392  -2.37617  -2.36386  -2.36386  -2.36311  -2.36310
  -0.22184  -0.17502  -0.17502  -0.16644  -0.14568  -0.14433  -0.13429  -0.13394
  -0.13318  -0.13107  -0.13106
      occupation numbers for kpt#   1
   1.00000   1.00000   1.00000   1.00000   1.00000   1.00000   1.00000   1.00000
   1.00000   1.00000   1.00000   1.00000   0.99653   0.99394   0.86184   0.85052
   0.82417   0.73656   0.73645
 Eigenvalues (hartree) for nkpt=   1  k points, SPIN DOWN:
 kpt#   1, nband= 19, wtk=  1.00000, kpt=  0.0000  0.0000  0.0000 (reduced coord)
  -3.72499  -3.72387  -2.38392  -2.37617  -2.36386  -2.36386  -2.36311  -2.36310
  -0.22184  -0.17502  -0.17502  -0.16644  -0.14568  -0.14433  -0.13429  -0.13394
  -0.13318  -0.13107  -0.13106
      occupation numbers for kpt#   1
   1.00000   1.00000   1.00000   1.00000   1.00000   1.00000   1.00000   1.00000
   1.00000   1.00000   1.00000   1.00000   0.99653   0.99394   0.86184   0.85052
   0.82417   0.73656   0.73645
 Total charge density [el/Bohr^3]
,     Maximum=    2.1152E+00  at reduced coord.    0.0000    0.0000    0.8125
,Next maximum=    2.1151E+00  at reduced coord.    0.0000    0.0000    0.1875
,     Minimum=    4.6669E-05  at reduced coord.    0.5000    0.5000    0.5000
,Next minimum=    4.7265E-05  at reduced coord.    0.5000    0.5000    0.4844
,  Integrated=    3.6000E+01
 Spin up density      [el/Bohr^3]
,     Maximum=    1.0576E+00  at reduced coord.    0.0000    0.0000    0.8125
,Next maximum=    1.0575E+00  at reduced coord.    0.0000    0.0000    0.1875
,     Minimum=    2.3334E-05  at reduced coord.    0.5000    0.5000    0.5000
,Next minimum=    2.3632E-05  at reduced coord.    0.5000    0.5000    0.4844
,  Integrated=    1.8000E+01
 Spin down density    [el/Bohr^3]
,     Maximum=    1.0576E+00  at reduced coord.    0.0000    0.0000    0.8125
,Next maximum=    1.0575E+00  at reduced coord.    0.0000    0.0000    0.1875
,     Minimum=    2.3334E-05  at reduced coord.    0.5000    0.5000    0.5000
,Next minimum=    2.3632E-05  at reduced coord.    0.5000    0.5000    0.4844
,  Integrated=    1.8000E+01
 Magnetization (spin up - spin down) [el/Bohr^3]
,     Maximum=    9.7686E-12  at reduced coord.    0.9219    0.9844    0.0000
,Next maximum=    1.0073E-11  at reduced coord.    0.9063    0.9844    0.0000
,     Minimum=   -1.3045E-09  at reduced coord.    0.0000    0.0000    0.7969
,Next minimum=   -1.3036E-09  at reduced coord.    0.0000    0.0000    0.8125
,  Integrated=   -3.2243E-08
 Relative magnetization (=zeta, between -1 and 1)
,     Maximum=    3.6626E-10  at reduced coord.    0.1719    0.0781    0.0000
,Next maximum=    3.6497E-10  at reduced coord.    0.1563    0.1094    0.0000
,     Minimum=   -6.3730E-09  at reduced coord.    0.5000    0.5000    0.5000
,Next minimum=   -6.3206E-09  at reduced coord.    0.5000    0.5000    0.5156

--------------------------------------------------------------------------------
 Components of total free energy (in Hartree) :

    Kinetic energy  =  3.02294868141079E+01
    Hartree energy  =  1.52019501296065E+02
    XC energy       = -2.49733774583444E+01
    Ewald energy    = -7.89620551507356E+01
    PspCore energy  =  2.72021527410155E+00
    Loc. psp. energy= -3.44881957722323E+02
    Spherical terms = -7.67705561385523E+01
    >>>>> Internal E= -3.40618743085680E+02

    -kT*entropy     = -1.96934382137725E-02
    >>>>>>>>> Etotal= -3.40638436523894E+02

 "Double-counting" decomposition of free energy:
    Band energy     = -4.64446149184576E+01
    Ewald energy    = -7.89620551507356E+01
    PspCore energy  =  2.72021527410155E+00
    Dble-C XC-energy= -1.44194371355013E+02
    Spherical terms = -7.37363460154982E+01
    >>>>> Internal E= -3.40617172165603E+02

    -kT*entropy     = -1.96934382137725E-02
    >>>> Etotal (DC)= -3.40636865603816E+02

  >Total energy in eV           = -9.26924325372192E+03
  >Total DC energy in eV        = -9.26920050681268E+03
--------------------------------------------------------------------------------

 Cartesian components of stress tensor (hartree/bohr^3)
  sigma(1 1)=  2.29991378E-04  sigma(3 2)= -5.45311344E-08
  sigma(2 2)=  2.29898413E-04  sigma(3 1)=  6.42341147E-08
  sigma(3 3)=  2.67370539E-04  sigma(2 1)= -2.07298928E-08

-Cartesian components of stress tensor (GPa)         [Pressure= -7.1322E+00 GPa]
- sigma(1 1)=  6.76657882E+00  sigma(3 2)= -1.60436109E-03
- sigma(2 2)=  6.76384368E+00  sigma(3 1)=  1.88983258E-03
- sigma(3 3)=  7.86631151E+00  sigma(2 1)= -6.09894401E-04

================================================================================
== DATASET  2 ==================================================================
-   nproc =    1

 mkfilename : getwfk/=0, take file _WFK from output of DATASET   1.

 Exchange-correlation functional for the present dataset will be:
  LDA: Perdew-Wang 92 LSD fit to Ceperley-Alder data - ixc=7
 Citation for XC functional:
  J.P.Perdew and Y.Wang, PRB 45, 13244 (1992)

 Real(R)+Recip(G) space primitive vectors, cartesian coordinates (Bohr,Bohr^-1):
 R(1)= 11.0000000  0.0000000  0.0000000  G(1)=  0.0909091  0.0000000  0.0000000
 R(2)=  0.0000000 11.0000000  0.0000000  G(2)=  0.0000000  0.0909091  0.0000000
 R(3)=  0.0000000  0.0000000 11.0000000  G(3)=  0.0000000  0.0000000  0.0909091
 Unit cell volume ucvol=  1.3310000E+03 bohr^3
 Angles (23,13,12)=  9.00000000E+01  9.00000000E+01  9.00000000E+01 degrees

 Coarse grid specifications (used for wave-functions):

 getcut: wavevector=  0.0000  0.0000  0.0000  ngfft=  40  40  40
         ecut(hartree)=     15.000   => boxcut(ratio)=   2.08572

 Fine grid specifications (used for densities):

 getcut: wavevector=  0.0000  0.0000  0.0000  ngfft=  64  64  64
         ecut(hartree)=     40.000   => boxcut(ratio)=   2.04358
--------------------------------------------------------------------------------

-inwffil : will read wavefunctions from disk file t15o_DS1_WFK
P newkpt: treating     19 bands with npw=    1872 for ikpt=   1 by node    0
P newkpt: treating     19 bands with npw=    1872 for ikpt=   1 by node    0

_setup2: Arith. and geom. avg. npw (full set) are    3743.000    3743.000


 ******************************************
 LDA+U Method used: FLL
 ******************************************

================================================================================

     iter   Etot(hartree)     deltaE(h) residm    nres2    magn
 ETOT  1  -340.63389111337    -3.41E+02 2.62E-09 9.06E-02 0.000
 ETOT  2  -340.63701589586    -3.12E-03 2.61E-07 4.64E+00 0.000
 ETOT  3  -340.63378388099     3.23E-03 1.53E-04 7.53E-03 0.000
 ETOT  4  -340.63383079607    -4.69E-05 6.61E-08 1.82E-03 0.000
 ETOT  5  -340.63383138857    -5.93E-07 4.99E-07 4.94E-03 0.000
 ETOT  6  -340.63382800902     3.38E-06 2.21E-07 1.87E-04 0.000
 ETOT  7  -340.63382780536     2.04E-07 1.77E-08 1.47E-04 0.000
 ETOT  8  -340.63382772544     7.99E-08 5.81E-09 1.81E-05 0.000
 ETOT  9  -340.63382772376     1.68E-09 2.27E-10 1.19E-05 0.000
 ETOT 10  -340.63382771838     5.38E-09 7.47E-10 1.90E-07 0.000

 At SCF step   10, etot is converged : 
  for the second time, diff in etot=  5.376E-09 < toldfe=  1.000E-08

 Cartesian components of stress tensor (hartree/bohr^3)
  sigma(1 1)=  2.21398099E-04  sigma(3 2)= -1.42366914E-09
  sigma(2 2)=  2.21400334E-04  sigma(3 1)=  6.58270665E-10
  sigma(3 3)=  2.57125576E-04  sigma(2 1)= -5.30518677E-10


 PAW TEST:
 ==== Compensation charge inside spheres ============
 The following values must be close to each other ...
 Compensation charge over spherical meshes =     20.810499275929971
 Compensation charge over fine fft grid    =     20.810410388612016

 ==== Results concerning PAW augmentation regions ====

 Total pseudopotential strength Dij (hartree):
 Atom #  1 - Spin component 1
  -2.93157  -1.01701  -0.00000  -0.00173  -0.00000  -0.00000   0.00041  -0.00000   0.00000   0.00000  -0.00826  -0.00000 ...
  -1.01701  -0.59017  -0.00000  -0.00010  -0.00000  -0.00000  -0.00094  -0.00000   0.00000   0.00000  -0.00283  -0.00000 ...
  -0.00000  -0.00000  -2.41786   0.00000   0.00000  -0.56744   0.00000   0.00000  -0.00000  -0.00017   0.00000   0.00000 ...
  -0.00173  -0.00010   0.00000  -2.43082  -0.00000   0.00000  -0.57138  -0.00000   0.00000  -0.00000  -0.00142  -0.00000 ...
  -0.00000  -0.00000   0.00000  -0.00000  -2.41786   0.00000  -0.00000  -0.56744  -0.00000   0.00000   0.00000  -0.00017 ...
  -0.00000  -0.00000  -0.56744   0.00000   0.00000  -0.33943   0.00000   0.00000  -0.00000   0.00011   0.00000   0.00000 ...
   0.00041  -0.00094   0.00000  -0.57138  -0.00000   0.00000  -0.34061   0.00000   0.00000  -0.00000  -0.00047  -0.00000 ...
  -0.00000  -0.00000   0.00000  -0.00000  -0.56744   0.00000   0.00000  -0.33943  -0.00000   0.00000   0.00000   0.00011 ...
   0.00000   0.00000  -0.00000   0.00000  -0.00000  -0.00000   0.00000  -0.00000  -0.49128  -0.00000  -0.00000   0.00000 ...
   0.00000   0.00000  -0.00017  -0.00000   0.00000   0.00011  -0.00000   0.00000  -0.00000  -0.49940   0.00000   0.00000 ...
  -0.00826  -0.00283   0.00000  -0.00142   0.00000   0.00000  -0.00047   0.00000  -0.00000   0.00000  -0.50094  -0.00000 ...
  -0.00000  -0.00000   0.00000  -0.00000  -0.00017   0.00000  -0.00000   0.00011   0.00000   0.00000  -0.00000  -0.49940 ...
   ...  only 12  components have been written...
 Atom #  1 - Spin component 2
  -2.93157  -1.01701  -0.00000  -0.00173  -0.00000  -0.00000   0.00041  -0.00000   0.00000   0.00000  -0.00826  -0.00000 ...
  -1.01701  -0.59017  -0.00000  -0.00010  -0.00000  -0.00000  -0.00094  -0.00000   0.00000   0.00000  -0.00283  -0.00000 ...
  -0.00000  -0.00000  -2.41786   0.00000   0.00000  -0.56744   0.00000   0.00000  -0.00000  -0.00017   0.00000   0.00000 ...
  -0.00173  -0.00010   0.00000  -2.43082  -0.00000   0.00000  -0.57138  -0.00000   0.00000  -0.00000  -0.00142  -0.00000 ...
  -0.00000  -0.00000   0.00000  -0.00000  -2.41786   0.00000  -0.00000  -0.56744  -0.00000   0.00000   0.00000  -0.00017 ...
  -0.00000  -0.00000  -0.56744   0.00000   0.00000  -0.33943   0.00000   0.00000  -0.00000   0.00011   0.00000   0.00000 ...
   0.00041  -0.00094   0.00000  -0.57138  -0.00000   0.00000  -0.34061   0.00000   0.00000  -0.00000  -0.00047  -0.00000 ...
  -0.00000  -0.00000   0.00000  -0.00000  -0.56744   0.00000   0.00000  -0.33943  -0.00000   0.00000   0.00000   0.00011 ...
   0.00000   0.00000  -0.00000   0.00000  -0.00000  -0.00000   0.00000  -0.00000  -0.49128  -0.00000  -0.00000   0.00000 ...
   0.00000   0.00000  -0.00017  -0.00000   0.00000   0.00011  -0.00000   0.00000  -0.00000  -0.49940   0.00000   0.00000 ...
  -0.00826  -0.00283   0.00000  -0.00142   0.00000   0.00000  -0.00047   0.00000  -0.00000   0.00000  -0.50094  -0.00000 ...
  -0.00000  -0.00000   0.00000  -0.00000  -0.00017   0.00000  -0.00000   0.00011   0.00000   0.00000  -0.00000  -0.49940 ...
   ...  only 12  components have been written...
 Atom #  2 - Spin component 1
  -2.93156  -1.01701  -0.00000   0.00172  -0.00000  -0.00000  -0.00041  -0.00000  -0.00000   0.00000  -0.00826  -0.00000 ...
  -1.01701  -0.59017  -0.00000   0.00010  -0.00000  -0.00000   0.00094  -0.00000  -0.00000   0.00000  -0.00283  -0.00000 ...
  -0.00000  -0.00000  -2.41785   0.00000  -0.00000  -0.56744   0.00000  -0.00000  -0.00000   0.00017   0.00000  -0.00000 ...
   0.00172   0.00010   0.00000  -2.43081  -0.00000   0.00000  -0.57138  -0.00000  -0.00000  -0.00000   0.00142  -0.00000 ...
  -0.00000  -0.00000  -0.00000  -0.00000  -2.41785  -0.00000  -0.00000  -0.56744  -0.00000  -0.00000   0.00000   0.00017 ...
  -0.00000  -0.00000  -0.56744   0.00000  -0.00000  -0.33943   0.00000  -0.00000  -0.00000  -0.00011   0.00000  -0.00000 ...
  -0.00041   0.00094   0.00000  -0.57138  -0.00000   0.00000  -0.34061  -0.00000  -0.00000  -0.00000   0.00047  -0.00000 ...
  -0.00000  -0.00000  -0.00000  -0.00000  -0.56744  -0.00000  -0.00000  -0.33943  -0.00000  -0.00000   0.00000  -0.00011 ...
  -0.00000  -0.00000  -0.00000  -0.00000  -0.00000  -0.00000  -0.00000  -0.00000  -0.49128  -0.00000   0.00000   0.00000 ...
   0.00000   0.00000   0.00017  -0.00000  -0.00000  -0.00011  -0.00000  -0.00000  -0.00000  -0.49940   0.00000  -0.00000 ...
  -0.00826  -0.00283   0.00000   0.00142   0.00000   0.00000   0.00047   0.00000   0.00000   0.00000  -0.50093  -0.00000 ...
  -0.00000  -0.00000  -0.00000  -0.00000   0.00017  -0.00000  -0.00000  -0.00011   0.00000  -0.00000  -0.00000  -0.49940 ...
   ...  only 12  components have been written...
 Atom #  2 - Spin component 2
  -2.93156  -1.01701  -0.00000   0.00172  -0.00000  -0.00000  -0.00041  -0.00000  -0.00000   0.00000  -0.00826  -0.00000 ...
  -1.01701  -0.59017  -0.00000   0.00010  -0.00000  -0.00000   0.00094  -0.00000  -0.00000   0.00000  -0.00283  -0.00000 ...
  -0.00000  -0.00000  -2.41785   0.00000  -0.00000  -0.56744   0.00000  -0.00000  -0.00000   0.00017   0.00000  -0.00000 ...
   0.00172   0.00010   0.00000  -2.43081  -0.00000   0.00000  -0.57138  -0.00000  -0.00000  -0.00000   0.00142  -0.00000 ...
  -0.00000  -0.00000  -0.00000  -0.00000  -2.41785  -0.00000  -0.00000  -0.56744  -0.00000  -0.00000   0.00000   0.00017 ...
  -0.00000  -0.00000  -0.56744   0.00000  -0.00000  -0.33943   0.00000  -0.00000  -0.00000  -0.00011   0.00000  -0.00000 ...
  -0.00041   0.00094   0.00000  -0.57138  -0.00000   0.00000  -0.34061  -0.00000  -0.00000  -0.00000   0.00047  -0.00000 ...
  -0.00000  -0.00000  -0.00000  -0.00000  -0.56744  -0.00000  -0.00000  -0.33943  -0.00000  -0.00000   0.00000  -0.00011 ...
  -0.00000  -0.00000  -0.00000  -0.00000  -0.00000  -0.00000  -0.00000  -0.00000  -0.49128  -0.00000   0.00000   0.00000 ...
   0.00000   0.00000   0.00017  -0.00000  -0.00000  -0.00011  -0.00000  -0.00000  -0.00000  -0.49940   0.00000  -0.00000 ...
  -0.00826  -0.00283   0.00000   0.00142   0.00000   0.00000   0.00047   0.00000   0.00000   0.00000  -0.50093  -0.00000 ...
  -0.00000  -0.00000  -0.00000  -0.00000   0.00017  -0.00000  -0.00000  -0.00011   0.00000  -0.00000  -0.00000  -0.49940 ...
   ...  only 12  components have been written...


 Augmentation waves occupancies Rhoij:
 Atom #  1 - Spin component 1
   1.04314  -0.10798  -0.00000   0.01181  -0.00000   0.00000  -0.03069   0.00000   0.00000   0.00000   0.02215   0.00000 ...
  -0.10798   0.27183   0.00000  -0.02628   0.00000  -0.00000   0.06768  -0.00000  -0.00000  -0.00000  -0.04900  -0.00000 ...
  -0.00000   0.00000   0.97201   0.00000   0.00000   0.04226  -0.00000  -0.00000   0.00000  -0.00445  -0.00000   0.00000 ...
   0.01181  -0.02628   0.00000   0.97316  -0.00000  -0.00000   0.03735   0.00000  -0.00000   0.00000  -0.01860   0.00000 ...
  -0.00000   0.00000   0.00000  -0.00000   0.97201  -0.00000  -0.00000   0.04226   0.00000   0.00000  -0.00000  -0.00445 ...
   0.00000  -0.00000   0.04226  -0.00000  -0.00000   0.01284  -0.00000  -0.00000  -0.00000   0.01071   0.00000  -0.00000 ...
  -0.03069   0.06768  -0.00000   0.03735  -0.00000  -0.00000   0.03170  -0.00000   0.00000  -0.00000   0.04895  -0.00000 ...
   0.00000  -0.00000  -0.00000   0.00000   0.04226  -0.00000  -0.00000   0.01284  -0.00000  -0.00000   0.00000   0.01071 ...
   0.00000  -0.00000   0.00000  -0.00000   0.00000  -0.00000   0.00000  -0.00000   0.87780   0.00000   0.00000  -0.00000 ...
   0.00000  -0.00000  -0.00445   0.00000   0.00000   0.01071  -0.00000  -0.00000   0.00000   0.81883  -0.00000  -0.00000 ...
   0.02215  -0.04900  -0.00000  -0.01860  -0.00000   0.00000   0.04895   0.00000   0.00000  -0.00000   0.82078  -0.00000 ...
   0.00000  -0.00000   0.00000   0.00000  -0.00445  -0.00000  -0.00000   0.01071  -0.00000  -0.00000  -0.00000   0.81883 ...
   ...  only 12  components have been written...
 Atom #  1 - Spin component 2
   1.04314  -0.10798  -0.00000   0.01181  -0.00000   0.00000  -0.03069   0.00000   0.00000   0.00000   0.02215   0.00000 ...
  -0.10798   0.27183   0.00000  -0.02628   0.00000  -0.00000   0.06768  -0.00000  -0.00000  -0.00000  -0.04900  -0.00000 ...
  -0.00000   0.00000   0.97201   0.00000   0.00000   0.04226  -0.00000  -0.00000   0.00000  -0.00445  -0.00000   0.00000 ...
   0.01181  -0.02628   0.00000   0.97316  -0.00000  -0.00000   0.03735   0.00000  -0.00000   0.00000  -0.01860   0.00000 ...
  -0.00000   0.00000   0.00000  -0.00000   0.97201  -0.00000  -0.00000   0.04226   0.00000   0.00000  -0.00000  -0.00445 ...
   0.00000  -0.00000   0.04226  -0.00000  -0.00000   0.01284  -0.00000  -0.00000  -0.00000   0.01071   0.00000  -0.00000 ...
  -0.03069   0.06768  -0.00000   0.03735  -0.00000  -0.00000   0.03170  -0.00000   0.00000  -0.00000   0.04895  -0.00000 ...
   0.00000  -0.00000  -0.00000   0.00000   0.04226  -0.00000  -0.00000   0.01284  -0.00000  -0.00000   0.00000   0.01071 ...
   0.00000  -0.00000   0.00000  -0.00000   0.00000  -0.00000   0.00000  -0.00000   0.87780   0.00000   0.00000  -0.00000 ...
   0.00000  -0.00000  -0.00445   0.00000   0.00000   0.01071  -0.00000  -0.00000   0.00000   0.81883  -0.00000  -0.00000 ...
   0.02215  -0.04900  -0.00000  -0.01860  -0.00000   0.00000   0.04895   0.00000   0.00000  -0.00000   0.82078  -0.00000 ...
   0.00000  -0.00000   0.00000   0.00000  -0.00445  -0.00000  -0.00000   0.01071  -0.00000  -0.00000  -0.00000   0.81883 ...
   ...  only 12  components have been written...
 Atom #  2 - Spin component 1
   1.04315  -0.10800  -0.00000  -0.01181  -0.00000   0.00000   0.03069   0.00000   0.00000  -0.00000   0.02216  -0.00000 ...
  -0.10800   0.27185   0.00000   0.02628   0.00000  -0.00000  -0.06768  -0.00000  -0.00000   0.00000  -0.04900   0.00000 ...
  -0.00000   0.00000   0.97201   0.00000  -0.00000   0.04226  -0.00000   0.00000   0.00000   0.00445  -0.00000  -0.00000 ...
  -0.01181   0.02628   0.00000   0.97317  -0.00000  -0.00000   0.03734   0.00000   0.00000   0.00000   0.01861   0.00000 ...
  -0.00000   0.00000  -0.00000  -0.00000   0.97201   0.00000   0.00000   0.04226   0.00000  -0.00000  -0.00000   0.00445 ...
   0.00000  -0.00000   0.04226  -0.00000   0.00000   0.01284   0.00000   0.00000  -0.00000  -0.01071   0.00000   0.00000 ...
   0.03069  -0.06768  -0.00000   0.03734   0.00000   0.00000   0.03170   0.00000  -0.00000  -0.00000  -0.04896  -0.00000 ...
   0.00000  -0.00000   0.00000   0.00000   0.04226   0.00000   0.00000   0.01284  -0.00000   0.00000  -0.00000  -0.01071 ...
   0.00000  -0.00000   0.00000   0.00000   0.00000  -0.00000  -0.00000  -0.00000   0.87781   0.00000  -0.00000  -0.00000 ...
  -0.00000   0.00000   0.00445   0.00000  -0.00000  -0.01071  -0.00000   0.00000   0.00000   0.81881   0.00000   0.00000 ...
   0.02216  -0.04900  -0.00000   0.01861  -0.00000   0.00000  -0.04896  -0.00000  -0.00000   0.00000   0.82076   0.00000 ...
  -0.00000   0.00000  -0.00000   0.00000   0.00445   0.00000  -0.00000  -0.01071  -0.00000   0.00000   0.00000   0.81881 ...
   ...  only 12  components have been written...
 Atom #  2 - Spin component 2
   1.04315  -0.10800  -0.00000  -0.01181  -0.00000   0.00000   0.03069   0.00000   0.00000  -0.00000   0.02216  -0.00000 ...
  -0.10800   0.27185   0.00000   0.02628   0.00000  -0.00000  -0.06768  -0.00000  -0.00000   0.00000  -0.04900   0.00000 ...
  -0.00000   0.00000   0.97201   0.00000  -0.00000   0.04226  -0.00000   0.00000   0.00000   0.00445  -0.00000  -0.00000 ...
  -0.01181   0.02628   0.00000   0.97317  -0.00000  -0.00000   0.03734   0.00000   0.00000   0.00000   0.01861   0.00000 ...
  -0.00000   0.00000  -0.00000  -0.00000   0.97201   0.00000   0.00000   0.04226   0.00000  -0.00000  -0.00000   0.00445 ...
   0.00000  -0.00000   0.04226  -0.00000   0.00000   0.01284   0.00000   0.00000  -0.00000  -0.01071   0.00000   0.00000 ...
   0.03069  -0.06768  -0.00000   0.03734   0.00000   0.00000   0.03170   0.00000  -0.00000  -0.00000  -0.04896  -0.00000 ...
   0.00000  -0.00000   0.00000   0.00000   0.04226   0.00000   0.00000   0.01284  -0.00000   0.00000  -0.00000  -0.01071 ...
   0.00000  -0.00000   0.00000   0.00000   0.00000  -0.00000  -0.00000  -0.00000   0.87781   0.00000  -0.00000  -0.00000 ...
  -0.00000   0.00000   0.00445   0.00000  -0.00000  -0.01071  -0.00000   0.00000   0.00000   0.81881   0.00000   0.00000 ...
   0.02216  -0.04900  -0.00000   0.01861  -0.00000   0.00000  -0.04896  -0.00000  -0.00000   0.00000   0.82076   0.00000 ...
  -0.00000   0.00000  -0.00000   0.00000   0.00445   0.00000  -0.00000  -0.01071  -0.00000   0.00000   0.00000   0.81881 ...
   ...  only 12  components have been written...

 "PAW+U" part of augmentation waves occupancies Rhoij:
 Atom #  1 - L=2 ONLY - Spin component 1
   0.87780   0.00000   0.00000  -0.00000  -0.00000
   0.00000   0.81883  -0.00000  -0.00000   0.00000
   0.00000  -0.00000   0.82078  -0.00000  -0.00000
  -0.00000  -0.00000  -0.00000   0.81883   0.00000
  -0.00000   0.00000  -0.00000   0.00000   0.87676
 Atom #  1 - L=2 ONLY - Spin component 2
   0.87780   0.00000   0.00000  -0.00000  -0.00000
   0.00000   0.81883  -0.00000  -0.00000   0.00000
   0.00000  -0.00000   0.82078  -0.00000  -0.00000
  -0.00000  -0.00000  -0.00000   0.81883   0.00000
  -0.00000   0.00000  -0.00000   0.00000   0.87676
 Atom #  2 - L=2 ONLY - Spin component 1
   0.87781   0.00000  -0.00000  -0.00000   0.00000
   0.00000   0.81881   0.00000   0.00000   0.00000
  -0.00000   0.00000   0.82076   0.00000  -0.00000
  -0.00000   0.00000   0.00000   0.81881   0.00000
   0.00000   0.00000  -0.00000   0.00000   0.87677
 Atom #  2 - L=2 ONLY - Spin component 2
   0.87781   0.00000  -0.00000  -0.00000   0.00000
   0.00000   0.81881   0.00000   0.00000   0.00000
  -0.00000   0.00000   0.82076   0.00000  -0.00000
  -0.00000   0.00000   0.00000   0.81881   0.00000
   0.00000   0.00000  -0.00000   0.00000   0.87677

 ---------- LDA+U DATA --------------------------------------------------- 

 ====== For Atom     1, occupations for correlated orbitals. lpawu =   2

 Atom   1. Occ. for lpawu and for spin  1 =   3.88846
 Atom   1. Occ. for lpawu and for spin  2 =   3.88847
 => On atom   1,  local Mag. for lpawu is        0.000001

 == Occupation matrix for correlated orbitals:

 Occupation matrix for spin  1
     0.81018    0.00000    0.00000   -0.00000   -0.00000
     0.00000    0.75575   -0.00000   -0.00000    0.00000
     0.00000   -0.00000    0.75755   -0.00000   -0.00000
    -0.00000   -0.00000   -0.00000    0.75575    0.00000
    -0.00000    0.00000   -0.00000    0.00000    0.80922


 Occupation matrix for spin  2
     0.81018    0.00000    0.00000   -0.00000   -0.00000
     0.00000    0.75575   -0.00000   -0.00000    0.00000
     0.00000   -0.00000    0.75755   -0.00000   -0.00000
    -0.00000   -0.00000   -0.00000    0.75575    0.00000
    -0.00000    0.00000   -0.00000    0.00000    0.80922


 ====== For Atom     2, occupations for correlated orbitals. lpawu =   2

 Atom   2. Occ. for lpawu and for spin  1 =   3.88844
 Atom   2. Occ. for lpawu and for spin  2 =   3.88844
 => On atom   2,  local Mag. for lpawu is        0.000001

 == Occupation matrix for correlated orbitals:

 Occupation matrix for spin  1
     0.81019    0.00000   -0.00000   -0.00000    0.00000
     0.00000    0.75574    0.00000    0.00000    0.00000
    -0.00000    0.00000    0.75753    0.00000   -0.00000
    -0.00000    0.00000    0.00000    0.75574    0.00000
     0.00000    0.00000   -0.00000    0.00000    0.80923


 Occupation matrix for spin  2
     0.81019    0.00000   -0.00000   -0.00000    0.00000
     0.00000    0.75574    0.00000    0.00000    0.00000
    -0.00000    0.00000    0.75753    0.00000   -0.00000
    -0.00000    0.00000    0.00000    0.75574    0.00000
     0.00000    0.00000   -0.00000    0.00000    0.80923



================================================================================

 ----iterations are completed or convergence reached----

 Mean square residual over all n,k,spin=   3.9934E-10; max=  7.4662E-10
   0.0000  0.0000  0.0000    1  7.46624E-10 kpt; spin; max resid(k); each band:
  5.98E-10 5.56E-10 7.21E-10 7.47E-10 5.35E-10 5.30E-10 5.37E-10 5.36E-10
  1.65E-10 3.08E-10 3.11E-10 1.49E-10 2.63E-10 2.74E-10 2.60E-10 2.59E-10
  2.90E-10 2.72E-10 2.76E-10
   0.0000  0.0000  0.0000    2  7.46598E-10 kpt; spin; max resid(k); each band:
  5.98E-10 5.56E-10 7.21E-10 7.47E-10 5.35E-10 5.30E-10 5.37E-10 5.36E-10
  1.65E-10 3.08E-10 3.11E-10 1.49E-10 2.63E-10 2.74E-10 2.60E-10 2.59E-10
  2.90E-10 2.72E-10 2.76E-10
 reduced coordinates (array xred) for    2 atoms
       0.000000000000      0.000000000000     -0.190909090909
       0.000000000000      0.000000000000      0.190909090909
 rms dE/dt=  4.9590E-02; max dE/dt=  8.5863E-02; dE/dt below (all hartree)
    1      -0.000014316354     -0.000007643836      0.085863372615
    2      -0.000007060435     -0.000011518604     -0.085919821708

 cartesian coordinates (angstrom) at end:
    1      0.00000000000000     0.00000000000000    -1.11127213803900
    2      0.00000000000000     0.00000000000000     1.11127213803900

 cartesian forces (hartree/bohr) at end:
    1      0.00000032981451    -0.00000017612581    -0.00780832701470
    2     -0.00000032981451     0.00000017612581     0.00780832701470
 frms,max,avg= 4.5081397E-03 7.8083270E-03   9.717E-07  8.710E-07  2.566E-06 h/b

 cartesian forces (eV/Angstrom) at end:
    1      0.00001695974244    -0.00000905675232    -0.40152028517524
    2     -0.00001695974244     0.00000905675232     0.40152028517524
 frms,max,avg= 2.3181784E-01 4.0152029E-01   4.997E-05  4.479E-05  1.319E-04 e/A
 length scales= 11.000000000000 11.000000000000 11.000000000000 bohr
              =  5.820949294490  5.820949294490  5.820949294490 angstroms
 prteigrs : about to open file t15o_DS2_EIG
 Fermi (or HOMO) energy (hartree) =  -0.12614   Average Vxc (hartree)=  -0.16750
 Magnetization (Bohr magneton)=  3.28522652E-06
 Total spin up =  1.79999984E+01   Total spin down =  1.80000016E+01
 Eigenvalues (hartree) for nkpt=   1  k points, SPIN UP:
 kpt#   1, nband= 19, wtk=  1.00000, kpt=  0.0000  0.0000  0.0000 (reduced coord)
  -3.72476  -3.72364  -2.38395  -2.37621  -2.36345  -2.36345  -2.36269  -2.36269
  -0.22129  -0.17471  -0.17471  -0.16584  -0.14525  -0.14390  -0.13385  -0.13350
  -0.13237  -0.13075  -0.13075
      occupation numbers for kpt#   1
   1.00000   1.00000   1.00000   1.00000   1.00000   1.00000   1.00000   1.00000
   1.00000   1.00000   1.00000   1.00000   0.99656   0.99398   0.86221   0.85087
   0.81084   0.74277   0.74277
 Eigenvalues (hartree) for nkpt=   1  k points, SPIN DOWN:
 kpt#   1, nband= 19, wtk=  1.00000, kpt=  0.0000  0.0000  0.0000 (reduced coord)
  -3.72476  -3.72364  -2.38395  -2.37621  -2.36345  -2.36345  -2.36269  -2.36269
  -0.22129  -0.17471  -0.17471  -0.16584  -0.14525  -0.14390  -0.13385  -0.13350
  -0.13237  -0.13075  -0.13075
      occupation numbers for kpt#   1
   1.00000   1.00000   1.00000   1.00000   1.00000   1.00000   1.00000   1.00000
   1.00000   1.00000   1.00000   1.00000   0.99656   0.99398   0.86221   0.85087
   0.81084   0.74277   0.74277
 Total charge density [el/Bohr^3]
,     Maximum=    2.1151E+00  at reduced coord.    0.0000    0.0000    0.1875
,Next maximum=    2.1151E+00  at reduced coord.    0.0000    0.0000    0.8125
,     Minimum=    4.5548E-05  at reduced coord.    0.5000    0.5000    0.5000
,Next minimum=    4.6139E-05  at reduced coord.    0.5000    0.5000    0.4844
,  Integrated=    3.6000E+01
 Spin up density      [el/Bohr^3]
,     Maximum=    1.0575E+00  at reduced coord.    0.0000    0.0000    0.1875
,Next maximum=    1.0575E+00  at reduced coord.    0.0000    0.0000    0.8125
,     Minimum=    2.2774E-05  at reduced coord.    0.5000    0.5000    0.5000
,Next minimum=    2.3069E-05  at reduced coord.    0.5000    0.5000    0.4844
,  Integrated=    1.8000E+01
 Spin down density    [el/Bohr^3]
,     Maximum=    1.0575E+00  at reduced coord.    0.0000    0.0000    0.1875
,Next maximum=    1.0575E+00  at reduced coord.    0.0000    0.0000    0.8125
,     Minimum=    2.2774E-05  at reduced coord.    0.5000    0.5000    0.5000
,Next minimum=    2.3069E-05  at reduced coord.    0.5000    0.5000    0.4844
,  Integrated=    1.8000E+01
 Magnetization (spin up - spin down) [el/Bohr^3]
,     Maximum=    9.2796E-10  at reduced coord.    0.0156    0.0938    0.0000
,Next maximum=    9.2863E-10  at reduced coord.    0.0000    0.0938    0.0000
,     Minimum=   -1.3232E-07  at reduced coord.    0.0000    0.0000    0.8125
,Next minimum=   -1.3193E-07  at reduced coord.    0.0000    0.0000    0.7969
,  Integrated=   -3.2852E-06
 Relative magnetization (=zeta, between -1 and 1)
,     Maximum=    3.4238E-08  at reduced coord.    0.0000    0.1875    0.0000
,Next maximum=    3.4226E-08  at reduced coord.    0.0156    0.1875    0.0000
,     Minimum=   -6.7575E-07  at reduced coord.    0.5000    0.5000    0.5000
,Next minimum=   -6.7052E-07  at reduced coord.    0.5000    0.5000    0.5156

--------------------------------------------------------------------------------
 Components of total free energy (in Hartree) :

    Kinetic energy  =  3.02296864773429E+01
    Hartree energy  =  1.52026822636475E+02
    XC energy       = -2.49730122422797E+01
    Ewald energy    = -7.89620551507356E+01
    PspCore energy  =  2.72021527410155E+00
    Loc. psp. energy= -3.44887417772963E+02
    Spherical terms = -7.67712128294688E+01
    >>>>> Internal E= -3.40616973607528E+02

    -kT*entropy     = -1.97366931153421E-02
    >>>>>>>>> Etotal= -3.40636710300643E+02

 "Double-counting" decomposition of free energy:
    Band energy     = -4.64315065215085E+01
    Ewald energy    = -7.89620551507356E+01
    PspCore energy  =  2.72021527410155E+00
    Dble-C XC-energy= -1.44201826896040E+02
    Spherical terms = -7.37389177310814E+01
    >>>>> Internal E= -3.40614091025264E+02

    -kT*entropy     = -1.97366931153421E-02
    >>>> Etotal (DC)= -3.40633827718379E+02

  >Total energy in eV           = -9.26919628079842E+03
  >Total DC energy in eV        = -9.26911784174593E+03
--------------------------------------------------------------------------------

 Cartesian components of stress tensor (hartree/bohr^3)
  sigma(1 1)=  2.21398099E-04  sigma(3 2)= -1.42366914E-09
  sigma(2 2)=  2.21400334E-04  sigma(3 1)=  6.58270665E-10
  sigma(3 3)=  2.57125576E-04  sigma(2 1)= -5.30518677E-10

-Cartesian components of stress tensor (GPa)         [Pressure= -6.8642E+00 GPa]
- sigma(1 1)=  6.51375586E+00  sigma(3 2)= -4.18857851E-05
- sigma(2 2)=  6.51382163E+00  sigma(3 1)=  1.93669883E-05
- sigma(3 3)=  7.56489435E+00  sigma(2 1)= -1.56083957E-05

================================================================================
== DATASET  3 ==================================================================
-   nproc =    1

 mkfilename : getwfk/=0, take file _WFK from output of DATASET   2.

 Exchange-correlation functional for the present dataset will be:
  LDA: Perdew-Wang 92 LSD fit to Ceperley-Alder data - ixc=7
 Citation for XC functional:
  J.P.Perdew and Y.Wang, PRB 45, 13244 (1992)

 Real(R)+Recip(G) space primitive vectors, cartesian coordinates (Bohr,Bohr^-1):
 R(1)= 11.0000000  0.0000000  0.0000000  G(1)=  0.0909091  0.0000000  0.0000000
 R(2)=  0.0000000 11.0000000  0.0000000  G(2)=  0.0000000  0.0909091  0.0000000
 R(3)=  0.0000000  0.0000000 11.0000000  G(3)=  0.0000000  0.0000000  0.0909091
 Unit cell volume ucvol=  1.3310000E+03 bohr^3
 Angles (23,13,12)=  9.00000000E+01  9.00000000E+01  9.00000000E+01 degrees

 Coarse grid specifications (used for wave-functions):

 getcut: wavevector=  0.0000  0.0000  0.0000  ngfft=  40  40  40
         ecut(hartree)=     15.000   => boxcut(ratio)=   2.08572

 Fine grid specifications (used for densities):

 getcut: wavevector=  0.0000  0.0000  0.0000  ngfft=  64  64  64
         ecut(hartree)=     40.000   => boxcut(ratio)=   2.04358
--------------------------------------------------------------------------------

-inwffil : will read wavefunctions from disk file t15o_DS2_WFK
P newkpt: treating     19 bands with npw=    1872 for ikpt=   1 by node    0
P newkpt: treating     19 bands with npw=    1872 for ikpt=   1 by node    0

_setup2: Arith. and geom. avg. npw (full set) are    3743.000    3743.000


 ******************************************
 LDA+U Method used: FLL
 ******************************************

================================================================================

     iter   Etot(hartree)     deltaE(h) residm    nres2    magn
 ETOT  1  -340.63090329080    -3.41E+02 2.67E-10 1.20E-02 0.000
 ETOT  2  -340.63088531813     1.80E-05 2.35E-10 5.99E-03 0.000
 ETOT  3  -340.63098288687    -9.76E-05 6.94E-06 1.82E-01 0.000
 ETOT  4  -340.63086927548     1.14E-04 6.91E-06 2.48E-04 0.000
 ETOT  5  -340.63087041427    -1.14E-06 2.47E-08 1.92E-04 0.000
 ETOT  6  -340.63087028340     1.31E-07 1.14E-08 1.03E-05 0.000
 ETOT  7  -340.63087027922     4.17E-09 4.12E-10 5.20E-06 0.000
 ETOT  8  -340.63087027700     2.23E-09 5.60E-11 4.08E-06 0.000

 At SCF step    8, etot is converged : 
  for the second time, diff in etot=  2.225E-09 < toldfe=  1.000E-08

 Cartesian components of stress tensor (hartree/bohr^3)
  sigma(1 1)=  2.21222581E-04  sigma(3 2)=  1.60844127E-11
  sigma(2 2)=  2.21222492E-04  sigma(3 1)= -7.19321027E-12
  sigma(3 3)=  2.57734065E-04  sigma(2 1)=  2.38354633E-11


 PAW TEST:
 ==== Compensation charge inside spheres ============
 The following values must be close to each other ...
 Compensation charge over spherical meshes =     20.809126518032425
 Compensation charge over fine fft grid    =     20.809041028415255

 ==== Results concerning PAW augmentation regions ====

 Total pseudopotential strength Dij (hartree):
 Atom #  1 - Spin component 1
  -2.93187  -1.01711  -0.00000  -0.00172   0.00000   0.00000   0.00042   0.00000   0.00000   0.00000  -0.00827  -0.00000 ...
  -1.01711  -0.59021   0.00000  -0.00009   0.00000   0.00000  -0.00093   0.00000   0.00000   0.00000  -0.00283   0.00000 ...
  -0.00000   0.00000  -2.41820   0.00000   0.00000  -0.56753   0.00000   0.00000   0.00000  -0.00018   0.00000   0.00000 ...
  -0.00172  -0.00009   0.00000  -2.43119  -0.00000   0.00000  -0.57148   0.00000   0.00000   0.00000  -0.00138   0.00000 ...
   0.00000   0.00000   0.00000  -0.00000  -2.41820   0.00000   0.00000  -0.56753   0.00000   0.00000  -0.00000  -0.00018 ...
   0.00000   0.00000  -0.56753   0.00000   0.00000  -0.33946   0.00000   0.00000   0.00000   0.00011   0.00000   0.00000 ...
   0.00042  -0.00093   0.00000  -0.57148   0.00000   0.00000  -0.34063   0.00000   0.00000   0.00000  -0.00046   0.00000 ...
   0.00000   0.00000   0.00000   0.00000  -0.56753   0.00000   0.00000  -0.33946   0.00000   0.00000  -0.00000   0.00011 ...
   0.00000   0.00000   0.00000   0.00000   0.00000   0.00000   0.00000   0.00000  -0.49153  -0.00000  -0.00000   0.00000 ...
   0.00000   0.00000  -0.00018   0.00000   0.00000   0.00011   0.00000   0.00000  -0.00000  -0.49900   0.00000   0.00000 ...
  -0.00827  -0.00283   0.00000  -0.00138  -0.00000   0.00000  -0.00046  -0.00000  -0.00000   0.00000  -0.50185  -0.00000 ...
  -0.00000   0.00000   0.00000   0.00000  -0.00018   0.00000   0.00000   0.00011   0.00000   0.00000  -0.00000  -0.49900 ...
   ...  only 12  components have been written...
 Atom #  1 - Spin component 2
  -2.93187  -1.01711  -0.00000  -0.00172  -0.00000   0.00000   0.00042  -0.00000   0.00000   0.00000  -0.00827   0.00000 ...
  -1.01711  -0.59021   0.00000  -0.00009  -0.00000   0.00000  -0.00093   0.00000   0.00000   0.00000  -0.00283   0.00000 ...
  -0.00000   0.00000  -2.41821   0.00000   0.00000  -0.56753   0.00000   0.00000  -0.00000  -0.00018   0.00000  -0.00000 ...
  -0.00172  -0.00009   0.00000  -2.43119   0.00000   0.00000  -0.57148   0.00000  -0.00000   0.00000  -0.00138  -0.00000 ...
  -0.00000  -0.00000   0.00000   0.00000  -2.41821   0.00000   0.00000  -0.56753   0.00000  -0.00000   0.00000  -0.00018 ...
   0.00000   0.00000  -0.56753   0.00000   0.00000  -0.33946   0.00000   0.00000   0.00000   0.00011   0.00000   0.00000 ...
   0.00042  -0.00093   0.00000  -0.57148   0.00000   0.00000  -0.34063   0.00000   0.00000   0.00000  -0.00046  -0.00000 ...
  -0.00000   0.00000   0.00000   0.00000  -0.56753   0.00000   0.00000  -0.33946   0.00000   0.00000   0.00000   0.00011 ...
   0.00000   0.00000  -0.00000  -0.00000   0.00000   0.00000   0.00000   0.00000  -0.49153   0.00000  -0.00000   0.00000 ...
   0.00000   0.00000  -0.00018   0.00000  -0.00000   0.00011   0.00000   0.00000   0.00000  -0.49900   0.00000   0.00000 ...
  -0.00827  -0.00283   0.00000  -0.00138   0.00000   0.00000  -0.00046   0.00000  -0.00000   0.00000  -0.50185   0.00000 ...
   0.00000   0.00000  -0.00000  -0.00000  -0.00018   0.00000  -0.00000   0.00011   0.00000   0.00000   0.00000  -0.49900 ...
   ...  only 12  components have been written...
 Atom #  2 - Spin component 1
  -2.93186  -1.01711   0.00000   0.00172   0.00000   0.00000  -0.00042   0.00000  -0.00000   0.00000  -0.00827  -0.00000 ...
  -1.01711  -0.59021   0.00000   0.00009   0.00000  -0.00000   0.00094   0.00000   0.00000   0.00000  -0.00283  -0.00000 ...
   0.00000   0.00000  -2.41819   0.00000  -0.00000  -0.56753   0.00000   0.00000   0.00000   0.00018  -0.00000   0.00000 ...
   0.00172   0.00009   0.00000  -2.43117  -0.00000   0.00000  -0.57148  -0.00000   0.00000   0.00000   0.00138   0.00000 ...
   0.00000   0.00000  -0.00000  -0.00000  -2.41819   0.00000  -0.00000  -0.56753   0.00000   0.00000   0.00000   0.00018 ...
   0.00000  -0.00000  -0.56753   0.00000   0.00000  -0.33946   0.00000   0.00000   0.00000  -0.00011  -0.00000   0.00000 ...
  -0.00042   0.00094   0.00000  -0.57148  -0.00000   0.00000  -0.34063   0.00000   0.00000   0.00000   0.00046   0.00000 ...
   0.00000   0.00000   0.00000  -0.00000  -0.56753   0.00000   0.00000  -0.33946   0.00000   0.00000   0.00000  -0.00011 ...
  -0.00000   0.00000   0.00000   0.00000   0.00000   0.00000   0.00000   0.00000  -0.49152  -0.00000   0.00000   0.00000 ...
   0.00000   0.00000   0.00018   0.00000   0.00000  -0.00011   0.00000   0.00000  -0.00000  -0.49899   0.00000  -0.00000 ...
  -0.00827  -0.00283  -0.00000   0.00138   0.00000  -0.00000   0.00046   0.00000   0.00000   0.00000  -0.50184  -0.00000 ...
  -0.00000  -0.00000   0.00000   0.00000   0.00018   0.00000   0.00000  -0.00011   0.00000  -0.00000  -0.00000  -0.49899 ...
   ...  only 12  components have been written...
 Atom #  2 - Spin component 2
  -2.93186  -1.01711  -0.00000   0.00172  -0.00000  -0.00000  -0.00042   0.00000  -0.00000   0.00000  -0.00827  -0.00000 ...
  -1.01711  -0.59021  -0.00000   0.00009   0.00000   0.00000   0.00093   0.00000   0.00000   0.00000  -0.00283  -0.00000 ...
  -0.00000  -0.00000  -2.41819   0.00000  -0.00000  -0.56753   0.00000   0.00000  -0.00000   0.00018   0.00000  -0.00000 ...
   0.00172   0.00009   0.00000  -2.43117  -0.00000   0.00000  -0.57148  -0.00000  -0.00000  -0.00000   0.00138  -0.00000 ...
  -0.00000   0.00000  -0.00000  -0.00000  -2.41819   0.00000  -0.00000  -0.56753  -0.00000  -0.00000   0.00000   0.00018 ...
  -0.00000   0.00000  -0.56753   0.00000   0.00000  -0.33946   0.00000   0.00000   0.00000  -0.00011   0.00000   0.00000 ...
  -0.00042   0.00093   0.00000  -0.57148  -0.00000   0.00000  -0.34063  -0.00000   0.00000  -0.00000   0.00046   0.00000 ...
   0.00000   0.00000   0.00000  -0.00000  -0.56753   0.00000  -0.00000  -0.33946  -0.00000   0.00000   0.00000  -0.00011 ...
  -0.00000   0.00000  -0.00000  -0.00000  -0.00000   0.00000   0.00000  -0.00000  -0.49152  -0.00000   0.00000   0.00000 ...
   0.00000   0.00000   0.00018  -0.00000  -0.00000  -0.00011  -0.00000   0.00000  -0.00000  -0.49899   0.00000  -0.00000 ...
  -0.00827  -0.00283   0.00000   0.00138   0.00000   0.00000   0.00046   0.00000   0.00000   0.00000  -0.50184  -0.00000 ...
  -0.00000  -0.00000  -0.00000  -0.00000   0.00018   0.00000   0.00000  -0.00011   0.00000  -0.00000  -0.00000  -0.49899 ...
   ...  only 12  components have been written...


 Augmentation waves occupancies Rhoij:
 Atom #  1 - Spin component 1
   1.04326  -0.10822   0.00000   0.01185   0.00000   0.00000  -0.03078  -0.00000  -0.00000  -0.00000   0.02320   0.00000 ...
  -0.10822   0.27229   0.00000  -0.02636  -0.00000  -0.00000   0.06787  -0.00000   0.00000   0.00000  -0.05145  -0.00000 ...
   0.00000   0.00000   0.97207  -0.00000  -0.00000   0.04219   0.00000   0.00000   0.00000  -0.00481  -0.00000  -0.00000 ...
   0.01185  -0.02636  -0.00000   0.97321   0.00000   0.00000   0.03727  -0.00000   0.00000   0.00000  -0.01803   0.00000 ...
   0.00000  -0.00000  -0.00000   0.00000   0.97207   0.00000  -0.00000   0.04219  -0.00000  -0.00000  -0.00000  -0.00481 ...
   0.00000  -0.00000   0.04219   0.00000   0.00000   0.01274  -0.00000   0.00000  -0.00000   0.01166   0.00000   0.00000 ...
  -0.03078   0.06787   0.00000   0.03727  -0.00000  -0.00000   0.03179   0.00000  -0.00000  -0.00000   0.04740  -0.00000 ...
  -0.00000  -0.00000   0.00000  -0.00000   0.04219   0.00000   0.00000   0.01274   0.00000   0.00000   0.00000   0.01166 ...
  -0.00000   0.00000   0.00000   0.00000  -0.00000  -0.00000  -0.00000   0.00000   0.88029   0.00000   0.00000  -0.00000 ...
  -0.00000   0.00000  -0.00481   0.00000  -0.00000   0.01166  -0.00000   0.00000   0.00000   0.80966  -0.00000  -0.00000 ...
   0.02320  -0.05145  -0.00000  -0.01803  -0.00000   0.00000   0.04740   0.00000   0.00000  -0.00000   0.83392   0.00000 ...
   0.00000  -0.00000  -0.00000   0.00000  -0.00481   0.00000  -0.00000   0.01166  -0.00000  -0.00000   0.00000   0.80966 ...
   ...  only 12  components have been written...
 Atom #  1 - Spin component 2
   1.04326  -0.10822   0.00000   0.01185  -0.00000   0.00000  -0.03078   0.00000  -0.00000  -0.00000   0.02320  -0.00000 ...
  -0.10822   0.27229   0.00000  -0.02636   0.00000  -0.00000   0.06787  -0.00000   0.00000   0.00000  -0.05145   0.00000 ...
   0.00000   0.00000   0.97207  -0.00000  -0.00000   0.04219   0.00000   0.00000  -0.00000  -0.00481  -0.00000   0.00000 ...
   0.01185  -0.02636  -0.00000   0.97321  -0.00000   0.00000   0.03727   0.00000   0.00000   0.00000  -0.01803   0.00000 ...
  -0.00000   0.00000  -0.00000  -0.00000   0.97207   0.00000   0.00000   0.04219   0.00000   0.00000  -0.00000  -0.00481 ...
   0.00000  -0.00000   0.04219   0.00000   0.00000   0.01274  -0.00000   0.00000   0.00000   0.01165   0.00000  -0.00000 ...
  -0.03078   0.06787   0.00000   0.03727   0.00000  -0.00000   0.03179   0.00000  -0.00000  -0.00000   0.04740  -0.00000 ...
   0.00000  -0.00000   0.00000   0.00000   0.04219   0.00000   0.00000   0.01274  -0.00000  -0.00000   0.00000   0.01165 ...
  -0.00000   0.00000  -0.00000   0.00000   0.00000   0.00000  -0.00000  -0.00000   0.88030   0.00000   0.00000  -0.00000 ...
  -0.00000   0.00000  -0.00481   0.00000   0.00000   0.01165  -0.00000  -0.00000   0.00000   0.80968  -0.00000  -0.00000 ...
   0.02320  -0.05145  -0.00000  -0.01803  -0.00000   0.00000   0.04740   0.00000   0.00000  -0.00000   0.83393  -0.00000 ...
  -0.00000   0.00000   0.00000   0.00000  -0.00481  -0.00000  -0.00000   0.01165  -0.00000  -0.00000  -0.00000   0.80968 ...
   ...  only 12  components have been written...
 Atom #  2 - Spin component 1
   1.04325  -0.10822   0.00000  -0.01185   0.00000  -0.00000   0.03078  -0.00000  -0.00000  -0.00000   0.02320   0.00000 ...
  -0.10822   0.27231  -0.00000   0.02636  -0.00000   0.00000  -0.06787  -0.00000   0.00000   0.00000  -0.05145  -0.00000 ...
   0.00000  -0.00000   0.97206  -0.00000   0.00000   0.04220   0.00000  -0.00000   0.00000   0.00481   0.00000   0.00000 ...
  -0.01185   0.02636  -0.00000   0.97320   0.00000   0.00000   0.03728  -0.00000  -0.00000  -0.00000   0.01803   0.00000 ...
   0.00000  -0.00000   0.00000   0.00000   0.97206  -0.00000  -0.00000   0.04220  -0.00000   0.00000  -0.00000   0.00481 ...
  -0.00000   0.00000   0.04220   0.00000  -0.00000   0.01275  -0.00000   0.00000  -0.00000  -0.01165  -0.00000  -0.00000 ...
   0.03078  -0.06787   0.00000   0.03728  -0.00000  -0.00000   0.03179   0.00000   0.00000   0.00000  -0.04740  -0.00000 ...
  -0.00000  -0.00000  -0.00000  -0.00000   0.04220   0.00000   0.00000   0.01275   0.00000  -0.00000   0.00000  -0.01165 ...
  -0.00000   0.00000   0.00000  -0.00000  -0.00000  -0.00000   0.00000   0.00000   0.88017   0.00000  -0.00000  -0.00000 ...
  -0.00000   0.00000   0.00481  -0.00000   0.00000  -0.01165   0.00000  -0.00000   0.00000   0.80961   0.00000   0.00000 ...
   0.02320  -0.05145   0.00000   0.01803  -0.00000  -0.00000  -0.04740   0.00000  -0.00000   0.00000   0.83388  -0.00000 ...
   0.00000  -0.00000   0.00000   0.00000   0.00481  -0.00000  -0.00000  -0.01165  -0.00000   0.00000  -0.00000   0.80961 ...
   ...  only 12  components have been written...
 Atom #  2 - Spin component 2
   1.04325  -0.10822   0.00000  -0.01185  -0.00000  -0.00000   0.03078   0.00000  -0.00000  -0.00000   0.02320   0.00000 ...
  -0.10822   0.27231  -0.00000   0.02636   0.00000  -0.00000  -0.06787  -0.00000   0.00000   0.00000  -0.05145  -0.00000 ...
   0.00000  -0.00000   0.97206  -0.00000   0.00000   0.04220   0.00000  -0.00000  -0.00000   0.00481  -0.00000   0.00000 ...
  -0.01185   0.02636  -0.00000   0.97320   0.00000   0.00000   0.03728  -0.00000  -0.00000   0.00000   0.01803   0.00000 ...
  -0.00000   0.00000   0.00000   0.00000   0.97206  -0.00000  -0.00000   0.04220   0.00000   0.00000  -0.00000   0.00481 ...
  -0.00000  -0.00000   0.04220   0.00000  -0.00000   0.01275  -0.00000   0.00000   0.00000  -0.01164   0.00000   0.00000 ...
   0.03078  -0.06787   0.00000   0.03728  -0.00000  -0.00000   0.03179   0.00000   0.00000  -0.00000  -0.04740  -0.00000 ...
   0.00000  -0.00000  -0.00000  -0.00000   0.04220   0.00000   0.00000   0.01275  -0.00000   0.00000   0.00000  -0.01164 ...
  -0.00000   0.00000  -0.00000  -0.00000   0.00000   0.00000   0.00000  -0.00000   0.88018   0.00000  -0.00000  -0.00000 ...
  -0.00000   0.00000   0.00481   0.00000   0.00000  -0.01164  -0.00000   0.00000   0.00000   0.80963   0.00000   0.00000 ...
   0.02320  -0.05145  -0.00000   0.01803  -0.00000   0.00000  -0.04740   0.00000  -0.00000   0.00000   0.83389   0.00000 ...
   0.00000  -0.00000   0.00000   0.00000   0.00481   0.00000  -0.00000  -0.01164  -0.00000   0.00000   0.00000   0.80963 ...
   ...  only 12  components have been written...

 "PAW+U" part of augmentation waves occupancies Rhoij:
 Atom #  1 - L=2 ONLY - Spin component 1
   0.88029   0.00000   0.00000  -0.00000  -0.00000
   0.00000   0.80966  -0.00000  -0.00000   0.00000
   0.00000  -0.00000   0.83392   0.00000  -0.00000
  -0.00000  -0.00000   0.00000   0.80966   0.00000
  -0.00000   0.00000  -0.00000   0.00000   0.87913
 Atom #  1 - L=2 ONLY - Spin component 2
   0.88030   0.00000   0.00000  -0.00000  -0.00000
   0.00000   0.80968  -0.00000  -0.00000   0.00000
   0.00000  -0.00000   0.83393  -0.00000  -0.00000
  -0.00000  -0.00000  -0.00000   0.80968   0.00000
  -0.00000   0.00000  -0.00000   0.00000   0.87914
 Atom #  2 - L=2 ONLY - Spin component 1
   0.88017   0.00000  -0.00000  -0.00000   0.00000
   0.00000   0.80961   0.00000   0.00000   0.00000
  -0.00000   0.00000   0.83388  -0.00000   0.00000
  -0.00000   0.00000  -0.00000   0.80961   0.00000
   0.00000   0.00000   0.00000   0.00000   0.87903
 Atom #  2 - L=2 ONLY - Spin component 2
   0.88018   0.00000  -0.00000  -0.00000   0.00000
   0.00000   0.80963   0.00000   0.00000   0.00000
  -0.00000   0.00000   0.83389   0.00000   0.00000
  -0.00000   0.00000   0.00000   0.80963   0.00000
   0.00000   0.00000   0.00000   0.00000   0.87904

 ---------- LDA+U DATA --------------------------------------------------- 

 ====== For Atom     1, occupations for correlated orbitals. lpawu =   2

 Atom   1. Occ. for lpawu and for spin  1 =   3.88815
 Atom   1. Occ. for lpawu and for spin  2 =   3.88823
 => On atom   1,  local Mag. for lpawu is        0.000080

 == Occupation matrix for correlated orbitals:

 Occupation matrix for spin  1
     0.81248    0.00000    0.00000   -0.00000   -0.00000
     0.00000    0.74729   -0.00000   -0.00000    0.00000
     0.00000   -0.00000    0.76968    0.00000   -0.00000
    -0.00000   -0.00000    0.00000    0.74729    0.00000
    -0.00000    0.00000   -0.00000    0.00000    0.81141


 Occupation matrix for spin  2
     0.81249    0.00000    0.00000   -0.00000   -0.00000
     0.00000    0.74731   -0.00000   -0.00000    0.00000
     0.00000   -0.00000    0.76970   -0.00000   -0.00000
    -0.00000   -0.00000   -0.00000    0.74731    0.00000
    -0.00000    0.00000   -0.00000    0.00000    0.81142


 ====== For Atom     2, occupations for correlated orbitals. lpawu =   2

 Atom   2. Occ. for lpawu and for spin  1 =   3.88781
 Atom   2. Occ. for lpawu and for spin  2 =   3.88789
 => On atom   2,  local Mag. for lpawu is        0.000080

 == Occupation matrix for correlated orbitals:

 Occupation matrix for spin  1
     0.81237    0.00000   -0.00000   -0.00000    0.00000
     0.00000    0.74724    0.00000    0.00000    0.00000
    -0.00000    0.00000    0.76965   -0.00000    0.00000
    -0.00000    0.00000   -0.00000    0.74724    0.00000
     0.00000    0.00000    0.00000    0.00000    0.81131


 Occupation matrix for spin  2
     0.81238    0.00000   -0.00000   -0.00000    0.00000
     0.00000    0.74726    0.00000    0.00000    0.00000
    -0.00000    0.00000    0.76966    0.00000    0.00000
    -0.00000    0.00000    0.00000    0.74726    0.00000
     0.00000    0.00000    0.00000    0.00000    0.81132



================================================================================

 ----iterations are completed or convergence reached----

 Mean square residual over all n,k,spin=   1.5829E-11; max=  5.5955E-11
   0.0000  0.0000  0.0000    1  5.59546E-11 kpt; spin; max resid(k); each band:
  2.58E-11 2.96E-11 2.38E-11 2.65E-11 1.11E-11 1.11E-11 1.37E-11 1.37E-11
  5.60E-11 3.81E-12 3.81E-12 4.33E-11 1.52E-13 4.38E-14 4.67E-14 1.98E-14
  2.53E-11 6.28E-12 6.27E-12
   0.0000  0.0000  0.0000    2  5.55313E-11 kpt; spin; max resid(k); each band:
  2.61E-11 2.99E-11 2.38E-11 2.66E-11 1.11E-11 1.11E-11 1.37E-11 1.37E-11
  5.55E-11 3.83E-12 3.83E-12 4.34E-11 1.54E-13 4.43E-14 4.76E-14 2.00E-14
  2.54E-11 6.32E-12 6.33E-12
 reduced coordinates (array xred) for    2 atoms
       0.000000000000      0.000000000000     -0.190909090909
       0.000000000000      0.000000000000      0.190909090909
 rms dE/dt=  4.9099E-02; max dE/dt=  8.5030E-02; dE/dt below (all hartree)
    1       0.000000013160      0.000000049349      0.085030331864
    2       0.000000005961     -0.000000041781     -0.085054288065

 cartesian coordinates (angstrom) at end:
    1      0.00000000000000     0.00000000000000    -1.11127213803900
    2      0.00000000000000     0.00000000000000     1.11127213803900

 cartesian forces (hartree/bohr) at end:
    1     -0.00000000032722    -0.00000000414225    -0.00773111908771
    2      0.00000000032722     0.00000000414225     0.00773111908771
 frms,max,avg= 4.4635637E-03 7.7311191E-03  -8.691E-10 -3.440E-10  1.089E-06 h/b

 cartesian forces (eV/Angstrom) at end:
    1     -0.00000001682609    -0.00000021300314    -0.39755009427468
    2      0.00000001682609     0.00000021300314     0.39755009427468
 frms,max,avg= 2.2952565E-01 3.9755009E-01  -4.469E-08 -1.769E-08  5.599E-05 e/A
 length scales= 11.000000000000 11.000000000000 11.000000000000 bohr
              =  5.820949294490  5.820949294490  5.820949294490 angstroms
 prteigrs : about to open file t15o_DS3_EIG
 Fermi (or HOMO) energy (hartree) =  -0.12624   Average Vxc (hartree)=  -0.16748
 Magnetization (Bohr magneton)=  1.78464047E-04
 Total spin up =  1.79999108E+01   Total spin down =  1.80000892E+01
 Eigenvalues (hartree) for nkpt=   1  k points, SPIN UP:
 kpt#   1, nband= 19, wtk=  1.00000, kpt=  0.0000  0.0000  0.0000 (reduced coord)
  -3.72518  -3.72407  -2.38442  -2.37667  -2.36383  -2.36383  -2.36308  -2.36308
  -0.22175  -0.17446  -0.17446  -0.16636  -0.14548  -0.14413  -0.13409  -0.13374
  -0.13321  -0.13046  -0.13046
      occupation numbers for kpt#   1
   1.00000   1.00000   1.00000   1.00000   1.00000   1.00000   1.00000   1.00000
   1.00000   1.00000   1.00000   1.00000   0.99674   0.99428   0.86651   0.85533
   0.83778   0.72463   0.72463
 Eigenvalues (hartree) for nkpt=   1  k points, SPIN DOWN:
 kpt#   1, nband= 19, wtk=  1.00000, kpt=  0.0000  0.0000  0.0000 (reduced coord)
  -3.72518  -3.72407  -2.38442  -2.37667  -2.36383  -2.36383  -2.36308  -2.36308
  -0.22175  -0.17446  -0.17446  -0.16636  -0.14548  -0.14413  -0.13409  -0.13374
  -0.13321  -0.13046  -0.13046
      occupation numbers for kpt#   1
   1.00000   1.00000   1.00000   1.00000   1.00000   1.00000   1.00000   1.00000
   1.00000   1.00000   1.00000   1.00000   0.99674   0.99429   0.86653   0.85536
   0.83781   0.72468   0.72468
 Total charge density [el/Bohr^3]
,     Maximum=    2.1153E+00  at reduced coord.    0.0000    0.0000    0.8125
,Next maximum=    2.1152E+00  at reduced coord.    0.0000    0.0000    0.1875
,     Minimum=    4.5374E-05  at reduced coord.    0.5000    0.5000    0.5000
,Next minimum=    4.5964E-05  at reduced coord.    0.5000    0.5000    0.5156
,  Integrated=    3.6000E+01
 Spin up density      [el/Bohr^3]
,     Maximum=    1.0576E+00  at reduced coord.    0.0000    0.0000    0.8125
,Next maximum=    1.0576E+00  at reduced coord.    0.0000    0.0000    0.1875
,     Minimum=    2.2686E-05  at reduced coord.    0.5000    0.5000    0.5000
,Next minimum=    2.2981E-05  at reduced coord.    0.5000    0.5000    0.5156
,  Integrated=    1.8000E+01
 Spin down density    [el/Bohr^3]
,     Maximum=    1.0576E+00  at reduced coord.    0.0000    0.0000    0.8125
,Next maximum=    1.0576E+00  at reduced coord.    0.0000    0.0000    0.1875
,     Minimum=    2.2688E-05  at reduced coord.    0.5000    0.5000    0.5000
,Next minimum=    2.2983E-05  at reduced coord.    0.5000    0.5000    0.5156
,  Integrated=    1.8000E+01
 Magnetization (spin up - spin down) [el/Bohr^3]
,     Maximum=    5.8002E-08  at reduced coord.    0.9688    0.0781    0.0000
,Next maximum=    5.7985E-08  at reduced coord.    0.0313    0.0781    0.0000
,     Minimum=   -7.1485E-06  at reduced coord.    0.0000    0.0000    0.8125
,Next minimum=   -7.1429E-06  at reduced coord.    0.0000    0.0000    0.1875
,  Integrated=   -1.7846E-04
 Relative magnetization (=zeta, between -1 and 1)
,     Maximum=    2.0432E-06  at reduced coord.    0.0000    0.1875    0.0000
,Next maximum=    2.0415E-06  at reduced coord.    0.9844    0.1875    0.0000
,     Minimum=   -3.7890E-05  at reduced coord.    0.5000    0.5000    0.5000
,Next minimum=   -3.7584E-05  at reduced coord.    0.5000    0.5000    0.5156

--------------------------------------------------------------------------------
 Components of total free energy (in Hartree) :

    Kinetic energy  =  3.02305638638582E+01
    Hartree energy  =  1.52020307705509E+02
    XC energy       = -2.49724015604509E+01
    Ewald energy    = -7.89620551507356E+01
    PspCore energy  =  2.72021527410155E+00
    Loc. psp. energy= -3.44879732585646E+02
    Spherical terms = -7.67742138351220E+01
    >>>>> Internal E= -3.40617316288486E+02

    -kT*entropy     = -1.95498108689196E-02
    >>>>>>>>> Etotal= -3.40636866099355E+02

 "Double-counting" decomposition of free energy:
    Band energy     = -4.64415329088047E+01
    Ewald energy    = -7.89620551507356E+01
    PspCore energy  =  2.72021527410155E+00
    Dble-C XC-energy= -1.44195508398486E+02
    Spherical terms = -7.37324392822018E+01
    >>>>> Internal E= -3.40611320466127E+02

    -kT*entropy     = -1.95498108689196E-02
    >>>> Etotal (DC)= -3.40630870276996E+02

  >Total energy in eV           = -9.26920052029697E+03
  >Total DC energy in eV        = -9.26903736567319E+03
--------------------------------------------------------------------------------

 Cartesian components of stress tensor (hartree/bohr^3)
  sigma(1 1)=  2.21222581E-04  sigma(3 2)=  1.60844127E-11
  sigma(2 2)=  2.21222492E-04  sigma(3 1)= -7.19321027E-12
  sigma(3 3)=  2.57734065E-04  sigma(2 1)=  2.38354633E-11

-Cartesian components of stress tensor (GPa)         [Pressure= -6.8667E+00 GPa]
- sigma(1 1)=  6.50859195E+00  sigma(3 2)=  4.73219681E-07
- sigma(2 2)=  6.50858932E+00  sigma(3 1)= -2.11631517E-07
- sigma(3 3)=  7.58279670E+00  sigma(2 1)=  7.01263422E-07

== END DATASET(S) ==============================================================
================================================================================
  
 -outvars: echo values of variables after computation  --------
            acell      1.1000000000E+01  1.1000000000E+01  1.1000000000E+01 Bohr
              amu      5.86900000E+01
         atvshift2       0.00000    0.00000    0.00100    0.00000    0.00000
                         0.00000    0.00000    0.00100    0.00000    0.00000
                         0.00000    0.00000    0.00100    0.00000    0.00000
                         0.00000    0.00000    0.00100    0.00000    0.00000
         atvshift3       0.00000    0.00100    0.00000    0.00100    0.00000
                         0.00000    0.00100    0.00000    0.00100    0.00000
                         0.00000    0.00100    0.00000    0.00100    0.00000
                         0.00000    0.00100    0.00000    0.00100    0.00000
           diemac      2.00000000E+00
           diemix      2.00000000E-01
        dmatpuopt           1
             ecut      1.50000000E+01 Hartree
           etotal1    -3.4063686560E+02
           etotal2    -3.4063382772E+02
           etotal3    -3.4063087028E+02
            fcart1    -1.1702042888E-05 -2.0497042224E-05 -7.7874476857E-03
                       1.1702042888E-05  2.0497042224E-05  7.7874476857E-03
            fcart2     3.2981450734E-07 -1.7612580587E-07 -7.8083270147E-03
                      -3.2981450734E-07  1.7612580587E-07  7.8083270147E-03
            fcart3    -3.2721546989E-10 -4.1422519238E-09 -7.7311190877E-03
                       3.2721546989E-10  4.1422519238E-09  7.7311190877E-03
-          fftalg         112
           getwfk          -1
           istwfk        2
              ixc           7
           jdtset        1    2    3
           kptopt           0
            lpawu           2
P           mkmem           1
            natom           2
            nband          19
        natvshift1       0
        natvshift2       5
        natvshift3       5
           ndtset           3
            ngfft          40      40      40
          ngfftdg          64      64      64
             nkpt           1
         npulayit           3
           nspden           2
           nsppol           2
            nstep1         22
            nstep2         10
            nstep3          8
             nsym           1
           ntypat           1
              occ1     1.000000  1.000000  1.000000  1.000000  1.000000  1.000000
                       1.000000  1.000000  1.000000  1.000000  1.000000  1.000000
                       0.996529  0.993939  0.861839  0.850515  0.824169  0.736563
                       0.736446
                       1.000000  1.000000  1.000000  1.000000  1.000000  1.000000
                       1.000000  1.000000  1.000000  1.000000  1.000000  1.000000
                       0.996529  0.993939  0.861839  0.850515  0.824169  0.736563
                       0.736446
              occ2     1.000000  1.000000  1.000000  1.000000  1.000000  1.000000
                       1.000000  1.000000  1.000000  1.000000  1.000000  1.000000
                       0.996561  0.993983  0.862210  0.850874  0.810840  0.742765
                       0.742765
                       1.000000  1.000000  1.000000  1.000000  1.000000  1.000000
                       1.000000  1.000000  1.000000  1.000000  1.000000  1.000000
                       0.996561  0.993983  0.862210  0.850875  0.810841  0.742766
                       0.742766
              occ3     1.000000  1.000000  1.000000  1.000000  1.000000  1.000000
                       1.000000  1.000000  1.000000  1.000000  1.000000  1.000000
                       0.996742  0.994283  0.866507  0.855335  0.837782  0.724631
                       0.724631
                       1.000000  1.000000  1.000000  1.000000  1.000000  1.000000
                       1.000000  1.000000  1.000000  1.000000  1.000000  1.000000
                       0.996743  0.994285  0.866532  0.855362  0.837811  0.724678
                       0.724678
           occopt           7
        pawecutdg      4.00000000E+01 Hartree
          spgroup           1
           strten1     2.2999137798E-04  2.2989841271E-04  2.6737053878E-04
                      -5.4531134380E-08  6.4234114742E-08 -2.0729892819E-08
           strten2     2.2139809879E-04  2.2140033437E-04  2.5712557614E-04
                      -1.4236691396E-09  6.5827066468E-10 -5.3051867738E-10
           strten3     2.2122258105E-04  2.2122249180E-04  2.5773406468E-04
                       1.6084412739E-11 -7.1932102710E-12  2.3835463252E-11
           toldfe      1.00000000E-08 Hartree
           tsmear      1.00000000E-02 Hartree
            typat      1  1
          usepawu           1
           useylm           1
           xangst      0.0000000000E+00  0.0000000000E+00 -1.1112721380E+00
                       0.0000000000E+00  0.0000000000E+00  1.1112721380E+00
            xcart      0.0000000000E+00  0.0000000000E+00 -2.1000000000E+00
                       0.0000000000E+00  0.0000000000E+00  2.1000000000E+00
             xred      0.0000000000E+00  0.0000000000E+00 -1.9090909091E-01
                       0.0000000000E+00  0.0000000000E+00  1.9090909091E-01
            znucl       28.00000

================================================================================


- Timing analysis has been suppressed with timopt=0



================================================================================

 Suggested references for the acknowledgment of ABINIT usage.

 The users of ABINIT have little formal obligations with respect to the ABINIT group
 (those specified in the GNU General Public License, http://www.gnu.org/copyleft/gpl.txt).
 However, it is common practice in the scientific literature,
 to acknowledge the efforts of people that have made the research possible.
 In this spirit, please find below suggested citations of work written by ABINIT developers,
 corresponding to implementations inside of ABINIT that you have used in the present run.
 Note also that it will be of great value to readers of publications presenting these results,
 to read papers enabling them to understand the theoretical formalism and details
 of the ABINIT implementation.
 For information on why they are suggested, see also http://www.abinit.org/about/?text=acknowledgments.

 [1] Gamma and beta cerium: LDA+U calculations of ground-state parameters.
 B. Amadon, F. Jollet and M. Torrent, Phys. Rev. B 77, 155104 (2008).
 Comment : LDA+U calculations, usepawu/=0. Strong suggestion to cite this paper.

 [2] Implementation of the Projector Augmented-Wave Method in the ABINIT code.
 M. Torrent, F. Jollet, F. Bottin, G. Zerah, and X. Gonze Comput. Mat. Science 42, 337, (2008).
 Comment : PAW calculations. Strong suggestion to cite this paper.

 [3] ABINIT : First-principles approach of materials and nanosystem properties.
 X. Gonze, B. Amadon, P.-M. Anglade, J.-M. Beuken, F. Bottin, P. Boulanger, F. Bruneval,
 D. Caliste, R. Caracas, M. Cote, T. Deutsch, L. Genovese, Ph. Ghosez, M. Giantomassi
 S. Goedecker, D.R. Hamann, P. Hermet, F. Jollet, G. Jomard, S. Leroux, M. Mancini, S. Mazevet,
 M.J.T. Oliveira, G. Onida, Y. Pouillon, T. Rangel, G.-M. Rignanese, D. Sangalli, R. Shaltaf,
 M. Torrent, M.J. Verstraete, G. Zerah, J.W. Zwanziger
 Computer Phys. Comm. 180, 2582-2615 (2009).
 Comment : the third generic paper describing the ABINIT project.
 Note that a version of this paper, that is not formatted for Computer Phys. Comm. 
 is available at http://www.abinit.org/about/ABINIT_CPC_v10.pdf .
 The licence allows the authors to put it on the Web.

 [4] A brief introduction to the ABINIT software package.
 X. Gonze, G.-M. Rignanese, M. Verstraete, J.-M. Beuken, Y. Pouillon, R. Caracas, F. Jollet,
 M. Torrent, G. Zerah, M. Mikami, Ph. Ghosez, M. Veithen, J.-Y. Raty, V. Olevano, F. Bruneval,
 L. Reining, R. Godby, G. Onida, D.R. Hamann, and D.C. Allan.
 Z. Kristallogr. 220, 558-562 (2005).
 Comment : the second generic paper describing the ABINIT project. Note that this paper
 should be cited especially if you are using the GW part of ABINIT, as several authors
 of this part are not in the list of authors of the first or third paper.
 The .pdf of the latter paper is available at http://www.abinit.org/about/zfk_0505-06_558-562.pdf.
 Note that it should not redistributed (Copyright by Oldenburg Wissenshaftverlag,
 the licence allows the authors to put it on the Web).


 And optionally :

 [5] First-principles computation of material properties : the ABINIT software project. 
 X. Gonze, J.-M. Beuken, R. Caracas, F. Detraux, M. Fuchs, G.-M. Rignanese, L. Sindic,
 M. Verstraete, G. Zerah, F. Jollet, M. Torrent, A. Roy, M. Mikami, Ph. Ghosez, J.-Y. Raty, D.C. Allan.
 Computational Materials Science 25, 478-492 (2002). http://dx.doi.org/10.1016/S0927-0256(02)00325-7
 Comment : the original paper describing the ABINIT project.
-
- Proc.   0 individual time (sec): cpu=         29.0  wall=         32.4

================================================================================

 Calculation completed.
.Delivered   28 WARNINGs and   9 COMMENTs to log file.
+Overall time at end (sec) : cpu=         29.0  wall=         32.4
