
.Version 7.10.4 of ABINIT 
.(MPI version, prepared for a x86_64_linux_gnu4.7 computer) 

.Copyright (C) 1998-2014 ABINIT group . 
 ABINIT comes with ABSOLUTELY NO WARRANTY.
 It is free software, and you are welcome to redistribute it
 under certain conditions (GNU General Public License,
 see ~abinit/COPYING or http://www.gnu.org/copyleft/gpl.txt).

 ABINIT is a project of the Universite Catholique de Louvain,
 Corning Inc. and other collaborators, see ~abinit/doc/developers/contributors.txt .
 Please read ~abinit/doc/users/acknowledgments.html for suggested
 acknowledgments of the ABINIT effort.
 For more information, see http://www.abinit.org .

.Starting date : Wed 18 Feb 2015.
- ( at 23h12 )
  
- input  file    -> t16.in
- output file    -> t16.out
- root for input  files -> t16i
- root for output files -> t16o


 DATASET    1 : magnetic group, Shubnikov type IV
 Fedorov space group R-3 m (#166)
 Magnetic Bravais lattice hR_I (rhombohedral, centered magnetic, #31)
================================================================================
 Values of the parameters that define the memory need for DATASET  1.
   intxc =         0  ionmov =         0    iscf =        17 xclevel =         1
  lmnmax =        18   lnmax =         6   mband =        28  mffmem =         1
P  mgfft =        32   mkmem =         3 mpssoang=         3     mpw =       277
  mqgrid =      3001   natom =         4    nfft =      8192    nkpt =         3
  nloalg =         4  nspden =         1 nspinor =         1  nsppol =         1
    nsym =        24  n1xccc =         1  ntypat =         2  occopt =         7
 PAW method is used; the additional fine FFT grid is defined by:
   mgfftf=        32    nfftf =      8192
================================================================================
P This job should need less than                       9.275 Mbytes of memory.
  Rough estimation (10% accuracy) of disk space for files :
_ WF disk file :      0.357 Mbytes ; DEN or POT disk file :      0.065 Mbytes.
================================================================================


 DATASET    2 : magnetic group, Shubnikov type IV
 Fedorov space group R-3 m (#166)
 Magnetic Bravais lattice hR_I (rhombohedral, centered magnetic, #31)
================================================================================
 Values of the parameters that define the memory need for DATASET  2.
   intxc =         0  ionmov =         0    iscf =        17 xclevel =         1
  lmnmax =        18   lnmax =         6   mband =        28  mffmem =         1
P  mgfft =        32   mkmem =         3 mpssoang=         3     mpw =       277
  mqgrid =      3001   natom =         4    nfft =      8192    nkpt =         3
  nloalg =         4  nspden =         2 nspinor =         1  nsppol =         2
    nsym =        24  n1xccc =         1  ntypat =         2  occopt =         7
 PAW method is used; the additional fine FFT grid is defined by:
   mgfftf=        32    nfftf =      8192
================================================================================
P This job should need less than                      11.298 Mbytes of memory.
  Rough estimation (10% accuracy) of disk space for files :
_ WF disk file :      0.712 Mbytes ; DEN or POT disk file :      0.127 Mbytes.
================================================================================


 DATASET    3 : magnetic group, Shubnikov type IV
 Fedorov space group R-3 m (#166)
 Magnetic Bravais lattice hR_I (rhombohedral, centered magnetic, #31)
================================================================================
 Values of the parameters that define the memory need for DATASET  3.
   intxc =         0  ionmov =         0    iscf =        17 xclevel =         1
  lmnmax =        18   lnmax =         6   mband =        28  mffmem =         1
P  mgfft =        32   mkmem =         3 mpssoang=         3     mpw =       277
  mqgrid =      3001   natom =         4    nfft =      8192    nkpt =         3
  nloalg =         4  nspden =         2 nspinor =         1  nsppol =         1
    nsym =        24  n1xccc =         1  ntypat =         2  occopt =         7
 PAW method is used; the additional fine FFT grid is defined by:
   mgfftf=        32    nfftf =      8192
================================================================================
P This job should need less than                      11.034 Mbytes of memory.
  Rough estimation (10% accuracy) of disk space for files :
_ WF disk file :      0.357 Mbytes ; DEN or POT disk file :      0.065 Mbytes.
================================================================================


 DATASET    4 : the space group has not been recognized
================================================================================
 Values of the parameters that define the memory need for DATASET  4.
   intxc =         0  ionmov =         0    iscf =        17 xclevel =         1
  lmnmax =        18   lnmax =         6   mband =        60  mffmem =         1
P  mgfft =        30   mkmem =         8 mpssoang=         3     mpw =       277
  mqgrid =      3001   natom =         4    nfft =      7680    nkpt =         8
  nloalg =         4  nspden =         4 nspinor =         2  nsppol =         1
    nsym =         2  n1xccc =         1  ntypat =         2  occopt =         7
 PAW method is used; the additional fine FFT grid is defined by:
   mgfftf=        32    nfftf =      8192
================================================================================
P This job should need less than                      19.634 Mbytes of memory.
  Rough estimation (10% accuracy) of disk space for files :
_ WF disk file :      2.031 Mbytes ; DEN or POT disk file :      0.065 Mbytes.
================================================================================


 DATASET    5 : the space group has not been recognized
================================================================================
 Values of the parameters that define the memory need for DATASET  5.
   intxc =         0  ionmov =         0    iscf =        17 xclevel =         1
  lmnmax =        18   lnmax =         6   mband =        60  mffmem =         1
P  mgfft =        30   mkmem =         8 mpssoang=         3     mpw =       277
  mqgrid =      3001   natom =         4    nfft =      7680    nkpt =         8
  nloalg =         4  nspden =         4 nspinor =         2  nsppol =         1
    nsym =         2  n1xccc =         1  ntypat =         2  occopt =         7
 PAW method is used; the additional fine FFT grid is defined by:
   mgfftf=        32    nfftf =      8192
================================================================================
P This job should need less than                      19.634 Mbytes of memory.
  Rough estimation (10% accuracy) of disk space for files :
_ WF disk file :      2.031 Mbytes ; DEN or POT disk file :      0.065 Mbytes.
================================================================================


 DATASET    6 : the space group has not been recognized
================================================================================
 Values of the parameters that define the memory need for DATASET  6.
   intxc =         0  ionmov =         0    iscf =        17 xclevel =         1
  lmnmax =        18   lnmax =         6   mband =        60  mffmem =         1
P  mgfft =        30   mkmem =         8 mpssoang=         3     mpw =       277
  mqgrid =      3001   natom =         4    nfft =      7680    nkpt =         8
  nloalg =         4  nspden =         4 nspinor =         2  nsppol =         1
    nsym =         2  n1xccc =         1  ntypat =         2  occopt =         7
 PAW method is used; the additional fine FFT grid is defined by:
   mgfftf=        32    nfftf =      8192
================================================================================
P This job should need less than                      19.634 Mbytes of memory.
  Rough estimation (10% accuracy) of disk space for files :
_ WF disk file :      2.031 Mbytes ; DEN or POT disk file :      0.065 Mbytes.
================================================================================

--------------------------------------------------------------------------------
------------- Echo of variables that govern the present computation ------------
--------------------------------------------------------------------------------
-
- outvars: echo of selected default values                                      
-   accesswff0 =  0 , fftalg0 =112 , wfoptalg0 = 10
-
- outvars: echo of global parameters not present in the input file              
-  max_nthreads =    0
-
 -outvars: echo values of preprocessed input variables --------
            acell      7.9200000000E+00  7.9200000000E+00  7.9200000000E+00 Bohr
              amu      5.86900000E+01  1.59994000E+01
        bs_loband1          0
        bs_loband2          0       0
        bs_loband3          0
        bs_loband4          0
        bs_loband5          0
        bs_loband6          0
      chksymbreak           0
           diemix      5.00000000E-01
        diemixmag1     5.00000000E-01
        diemixmag2     5.00000000E-01
        diemixmag3     5.00000000E-01
        diemixmag4    -1.00000000E+00
        diemixmag5    -1.00000000E+00
        diemixmag6    -1.00000000E+00
         dmatpawu2       1.00000    0.00000    0.00000    0.00000    0.00000
                         0.00000    1.00000    0.00000    0.00000    0.00000
                         0.00000    0.00000    1.00000    0.00000    0.00000
                         0.00000    0.00000    0.00000    1.00000    0.00000
                         0.00000    0.00000    0.00000    0.00000    1.00000
                         1.00000    0.00000    0.00000    0.00000    0.00000
                         0.00000    1.00000    0.00000    0.00000    0.00000
                         0.00000    0.00000    0.00000    0.00000    0.00000
                         0.00000    0.00000    0.00000    1.00000    0.00000
                         0.00000    0.00000    0.00000    0.00000    0.00000
                         1.00000    0.00000    0.00000    0.00000    0.00000
                         0.00000    1.00000    0.00000    0.00000    0.00000
                         0.00000    0.00000    0.00000    0.00000    0.00000
                         0.00000    0.00000    0.00000    1.00000    0.00000
                         0.00000    0.00000    0.00000    0.00000    0.00000
                         1.00000    0.00000    0.00000    0.00000    0.00000
                         0.00000    1.00000    0.00000    0.00000    0.00000
                         0.00000    0.00000    1.00000    0.00000    0.00000
                         0.00000    0.00000    0.00000    1.00000    0.00000
                         0.00000    0.00000    0.00000    0.00000    1.00000
         dmatpawu3       1.00000    0.00000    0.00000    0.00000    0.00000
                         0.00000    1.00000    0.00000    0.00000    0.00000
                         0.00000    0.00000    1.00000    0.00000    0.00000
                         0.00000    0.00000    0.00000    1.00000    0.00000
                         0.00000    0.00000    0.00000    0.00000    1.00000
                         1.00000    0.00000    0.00000    0.00000    0.00000
                         0.00000    1.00000    0.00000    0.00000    0.00000
                         0.00000    0.00000    0.00000    0.00000    0.00000
                         0.00000    0.00000    0.00000    1.00000    0.00000
                         0.00000    0.00000    0.00000    0.00000    0.00000
         dmatpawu4       1.00000    0.00000    0.00000    0.00000    0.00000
                         0.00000    1.00000    0.00000    0.00000    0.00000
                         0.00000    0.00000    1.00000    0.00000    0.00000
                         0.00000    0.00000    0.00000    1.00000    0.00000
                         0.00000    0.00000    0.00000    0.00000    1.00000
                         1.00000    0.00000    0.00000    0.00000    0.00000
                         0.00000    1.00000    0.00000    0.00000    0.00000
                         0.00000    0.00000    0.00000    0.00000    0.00000
                         0.00000    0.00000    0.00000    1.00000    0.00000
                         0.00000    0.00000    0.00000    0.00000    0.00000
                         1.00000    0.00000    0.00000    0.00000    0.00000
                         0.00000    1.00000    0.00000    0.00000    0.00000
                         0.00000    0.00000    1.00000    0.00000    0.00000
                         0.00000    0.00000    0.00000    1.00000    0.00000
                         0.00000    0.00000    0.00000    0.00000    1.00000
                         1.00000    0.00000    0.00000    0.00000    0.00000
                         0.00000    1.00000    0.00000    0.00000    0.00000
                         0.00000    0.00000    0.00000    0.00000    0.00000
                         0.00000    0.00000    0.00000    1.00000    0.00000
                         0.00000    0.00000    0.00000    0.00000    0.00000
         dmatpawu5       1.00000    0.00000    0.00000    0.00000    0.00000
                         0.00000    1.00000    0.00000    0.00000    0.00000
                         0.00000    0.00000    1.00000    0.00000    0.00000
                         0.00000    0.00000    0.00000    1.00000    0.00000
                         0.00000    0.00000    0.00000    0.00000    1.00000
                         1.00000    0.00000    0.00000    0.00000    0.00000
                         0.00000    1.00000    0.00000    0.00000    0.00000
                         0.00000    0.00000    0.00000    0.00000    0.00000
                         0.00000    0.00000    0.00000    1.00000    0.00000
                         0.00000    0.00000    0.00000    0.00000    0.00000
                         1.00000    0.00000    0.00000    0.00000    0.00000
                         0.00000    1.00000    0.00000    0.00000    0.00000
                         0.00000    0.00000    1.00000    0.00000    0.00000
                         0.00000    0.00000    0.00000    1.00000    0.00000
                         0.00000    0.00000    0.00000    0.00000    1.00000
                         1.00000    0.00000    0.00000    0.00000    0.00000
                         0.00000    1.00000    0.00000    0.00000    0.00000
                         0.00000    0.00000    0.00000    0.00000    0.00000
                         0.00000    0.00000    0.00000    1.00000    0.00000
                         0.00000    0.00000    0.00000    0.00000    0.00000
         dmatpawu6       1.00000    0.00000    0.00000    0.00000    0.00000
                         0.00000    1.00000    0.00000    0.00000    0.00000
                         0.00000    0.00000    1.00000    0.00000    0.00000
                         0.00000    0.00000    0.00000    1.00000    0.00000
                         0.00000    0.00000    0.00000    0.00000    1.00000
                         1.00000    0.00000    0.00000    0.00000    0.00000
                         0.00000    1.00000    0.00000    0.00000    0.00000
                         0.00000    0.00000    0.00000    0.00000    0.00000
                         0.00000    0.00000    0.00000    1.00000    0.00000
                         0.00000    0.00000    0.00000    0.00000    0.00000
                         1.00000    0.00000    0.00000    0.00000    0.00000
                         0.00000    1.00000    0.00000    0.00000    0.00000
                         0.00000    0.00000    1.00000    0.00000    0.00000
                         0.00000    0.00000    0.00000    1.00000    0.00000
                         0.00000    0.00000    0.00000    0.00000    1.00000
                         1.00000    0.00000    0.00000    0.00000    0.00000
                         0.00000    1.00000    0.00000    0.00000    0.00000
                         0.00000    0.00000    0.00000    0.00000    0.00000
                         0.00000    0.00000    0.00000    1.00000    0.00000
                         0.00000    0.00000    0.00000    0.00000    0.00000
             ecut      8.00000000E+00 Hartree
-          fftalg         112
              ixc           7
           jdtset        1    2    3    4    5    6
            jpawu1     0.00000000E+00  0.00000000E+00 Hartree
            jpawu2     3.50000000E-02  0.00000000E+00 Hartree
            jpawu3     3.50000000E-02  0.00000000E+00 Hartree
            jpawu4     3.50000000E-02  0.00000000E+00 Hartree
            jpawu5     0.00000000E+00  0.00000000E+00 Hartree
            jpawu6     3.50000000E-02  0.00000000E+00 Hartree
              kpt1     2.50000000E-01  2.50000000E-01  2.50000000E-01
                      -2.50000000E-01  2.50000000E-01  2.50000000E-01
                      -2.50000000E-01 -2.50000000E-01  2.50000000E-01
              kpt2     2.50000000E-01  2.50000000E-01  2.50000000E-01
                      -2.50000000E-01  2.50000000E-01  2.50000000E-01
                      -2.50000000E-01 -2.50000000E-01  2.50000000E-01
              kpt3     2.50000000E-01  2.50000000E-01  2.50000000E-01
                      -2.50000000E-01  2.50000000E-01  2.50000000E-01
                      -2.50000000E-01 -2.50000000E-01  2.50000000E-01
              kpt4     2.50000000E-01  2.50000000E-01  2.50000000E-01
                      -2.50000000E-01  2.50000000E-01  2.50000000E-01
                       2.50000000E-01 -2.50000000E-01  2.50000000E-01
                      -2.50000000E-01 -2.50000000E-01  2.50000000E-01
                       2.50000000E-01  2.50000000E-01 -2.50000000E-01
                      -2.50000000E-01  2.50000000E-01 -2.50000000E-01
                       2.50000000E-01 -2.50000000E-01 -2.50000000E-01
                      -2.50000000E-01 -2.50000000E-01 -2.50000000E-01
              kpt5     2.50000000E-01  2.50000000E-01  2.50000000E-01
                      -2.50000000E-01  2.50000000E-01  2.50000000E-01
                       2.50000000E-01 -2.50000000E-01  2.50000000E-01
                      -2.50000000E-01 -2.50000000E-01  2.50000000E-01
                       2.50000000E-01  2.50000000E-01 -2.50000000E-01
                      -2.50000000E-01  2.50000000E-01 -2.50000000E-01
                       2.50000000E-01 -2.50000000E-01 -2.50000000E-01
                      -2.50000000E-01 -2.50000000E-01 -2.50000000E-01
              kpt6     2.50000000E-01  2.50000000E-01  2.50000000E-01
                      -2.50000000E-01  2.50000000E-01  2.50000000E-01
                       2.50000000E-01 -2.50000000E-01  2.50000000E-01
                      -2.50000000E-01 -2.50000000E-01  2.50000000E-01
                       2.50000000E-01  2.50000000E-01 -2.50000000E-01
                      -2.50000000E-01  2.50000000E-01 -2.50000000E-01
                       2.50000000E-01 -2.50000000E-01 -2.50000000E-01
                      -2.50000000E-01 -2.50000000E-01 -2.50000000E-01
           kptopt1          1
           kptopt2          1
           kptopt3          1
           kptopt4          4
           kptopt5          4
           kptopt6          4
         kptrlatt        2    0    0      0    2    0      0    0    2
          kptrlen      1.12005714E+01
            lpawu1         -1      -1
            lpawu2          2      -1
            lpawu3          2      -1
            lpawu4          2      -1
            lpawu5          2      -1
            lpawu6          2      -1
P           mkmem1          3
P           mkmem2          3
P           mkmem3          3
P           mkmem4          8
P           mkmem5          8
P           mkmem6          8
            natom           4
            nband1         28
            nband2         28
            nband3         28
            nband4         60
            nband5         60
            nband6         60
           ndtset           6
            ngfft1         16      16      32
            ngfft2         16      16      32
            ngfft3         16      16      32
            ngfft4         16      16      30
            ngfft5         16      16      30
            ngfft6         16      16      30
          ngfftdg          16      16      32
             nkpt1          3
             nkpt2          3
             nkpt3          3
             nkpt4          8
             nkpt5          8
             nkpt6          8
           nspden1          1
           nspden2          2
           nspden3          2
           nspden4          4
           nspden5          4
           nspden6          4
          nspinor1          1
          nspinor2          1
          nspinor3          1
          nspinor4          2
          nspinor5          2
          nspinor6          2
           nsppol1          1
           nsppol2          2
           nsppol3          1
           nsppol4          1
           nsppol5          1
           nsppol6          1
            nstep1         15
            nstep2         15
            nstep3         15
            nstep4         15
            nstep5         10
            nstep6         16
             nsym1         24
             nsym2         24
             nsym3         24
             nsym4          2
             nsym5          2
             nsym6          2
           ntypat           2
              occ1     2.000000  2.000000  2.000000  2.000000  2.000000  2.000000
                       2.000000  2.000000  2.000000  2.000000  2.000000  2.000000
                       2.000000  2.000000  2.000000  2.000000  2.000000  2.000000
                       2.000000  2.000000  2.000000  2.000000  2.000000  2.000000
                       0.000000  0.000000  0.000000  0.000000
                       2.000000  2.000000  2.000000  2.000000  2.000000  2.000000
                       2.000000  2.000000  2.000000  2.000000  2.000000  2.000000
                       2.000000  2.000000  2.000000  2.000000  2.000000  2.000000
                       2.000000  2.000000  2.000000  2.000000  2.000000  2.000000
                       0.000000  0.000000  0.000000  0.000000
                       2.000000  2.000000  2.000000  2.000000  2.000000  2.000000
                       2.000000  2.000000  2.000000  2.000000  2.000000  2.000000
                       2.000000  2.000000  2.000000  2.000000  2.000000  2.000000
                       2.000000  2.000000  2.000000  2.000000  2.000000  2.000000
                       0.000000  0.000000  0.000000  0.000000
              occ2     1.000000  1.000000  1.000000  1.000000  1.000000  1.000000
                       1.000000  1.000000  1.000000  1.000000  1.000000  1.000000
                       1.000000  1.000000  1.000000  1.000000  1.000000  1.000000
                       1.000000  1.000000  1.000000  1.000000  1.000000  1.000000
                       0.000000  0.000000  0.000000  0.000000
                       1.000000  1.000000  1.000000  1.000000  1.000000  1.000000
                       1.000000  1.000000  1.000000  1.000000  1.000000  1.000000
                       1.000000  1.000000  1.000000  1.000000  1.000000  1.000000
                       1.000000  1.000000  1.000000  1.000000  1.000000  1.000000
                       0.000000  0.000000  0.000000  0.000000
                       1.000000  1.000000  1.000000  1.000000  1.000000  1.000000
                       1.000000  1.000000  1.000000  1.000000  1.000000  1.000000
                       1.000000  1.000000  1.000000  1.000000  1.000000  1.000000
                       1.000000  1.000000  1.000000  1.000000  1.000000  1.000000
                       0.000000  0.000000  0.000000  0.000000
                       1.000000  1.000000  1.000000  1.000000  1.000000  1.000000
                       1.000000  1.000000  1.000000  1.000000  1.000000  1.000000
                       1.000000  1.000000  1.000000  1.000000  1.000000  1.000000
                       1.000000  1.000000  1.000000  1.000000  1.000000  1.000000
                       0.000000  0.000000  0.000000  0.000000
                       1.000000  1.000000  1.000000  1.000000  1.000000  1.000000
                       1.000000  1.000000  1.000000  1.000000  1.000000  1.000000
                       1.000000  1.000000  1.000000  1.000000  1.000000  1.000000
                       1.000000  1.000000  1.000000  1.000000  1.000000  1.000000
                       0.000000  0.000000  0.000000  0.000000
                       1.000000  1.000000  1.000000  1.000000  1.000000  1.000000
                       1.000000  1.000000  1.000000  1.000000  1.000000  1.000000
                       1.000000  1.000000  1.000000  1.000000  1.000000  1.000000
                       1.000000  1.000000  1.000000  1.000000  1.000000  1.000000
                       0.000000  0.000000  0.000000  0.000000
              occ3     2.000000  2.000000  2.000000  2.000000  2.000000  2.000000
                       2.000000  2.000000  2.000000  2.000000  2.000000  2.000000
                       2.000000  2.000000  2.000000  2.000000  2.000000  2.000000
                       2.000000  2.000000  2.000000  2.000000  2.000000  2.000000
                       0.000000  0.000000  0.000000  0.000000
                       2.000000  2.000000  2.000000  2.000000  2.000000  2.000000
                       2.000000  2.000000  2.000000  2.000000  2.000000  2.000000
                       2.000000  2.000000  2.000000  2.000000  2.000000  2.000000
                       2.000000  2.000000  2.000000  2.000000  2.000000  2.000000
                       0.000000  0.000000  0.000000  0.000000
                       2.000000  2.000000  2.000000  2.000000  2.000000  2.000000
                       2.000000  2.000000  2.000000  2.000000  2.000000  2.000000
                       2.000000  2.000000  2.000000  2.000000  2.000000  2.000000
                       2.000000  2.000000  2.000000  2.000000  2.000000  2.000000
                       0.000000  0.000000  0.000000  0.000000
              occ4     1.000000  1.000000  1.000000  1.000000  1.000000  1.000000
                       1.000000  1.000000  1.000000  1.000000  1.000000  1.000000
                       1.000000  1.000000  1.000000  1.000000  1.000000  1.000000
                       1.000000  1.000000  1.000000  1.000000  1.000000  1.000000
                       1.000000  1.000000  1.000000  1.000000  1.000000  1.000000
                       1.000000  1.000000  1.000000  1.000000  1.000000  1.000000
                       1.000000  1.000000  1.000000  1.000000  1.000000  1.000000
                       1.000000  1.000000  1.000000  1.000000  1.000000  1.000000
                       0.000000  0.000000  0.000000  0.000000  0.000000  0.000000
                       0.000000  0.000000  0.000000  0.000000  0.000000  0.000000
                       1.000000  1.000000  1.000000  1.000000  1.000000  1.000000
                       1.000000  1.000000  1.000000  1.000000  1.000000  1.000000
                       1.000000  1.000000  1.000000  1.000000  1.000000  1.000000
                       1.000000  1.000000  1.000000  1.000000  1.000000  1.000000
                       1.000000  1.000000  1.000000  1.000000  1.000000  1.000000
                       1.000000  1.000000  1.000000  1.000000  1.000000  1.000000
                       1.000000  1.000000  1.000000  1.000000  1.000000  1.000000
                       1.000000  1.000000  1.000000  1.000000  1.000000  1.000000
                       0.000000  0.000000  0.000000  0.000000  0.000000  0.000000
                       0.000000  0.000000  0.000000  0.000000  0.000000  0.000000
                       1.000000  1.000000  1.000000  1.000000  1.000000  1.000000
                       1.000000  1.000000  1.000000  1.000000  1.000000  1.000000
                       1.000000  1.000000  1.000000  1.000000  1.000000  1.000000
                       1.000000  1.000000  1.000000  1.000000  1.000000  1.000000
                       1.000000  1.000000  1.000000  1.000000  1.000000  1.000000
                       1.000000  1.000000  1.000000  1.000000  1.000000  1.000000
                       1.000000  1.000000  1.000000  1.000000  1.000000  1.000000
                       1.000000  1.000000  1.000000  1.000000  1.000000  1.000000
                       0.000000  0.000000  0.000000  0.000000  0.000000  0.000000
                       0.000000  0.000000  0.000000  0.000000  0.000000  0.000000
                       1.000000  1.000000  1.000000  1.000000  1.000000  1.000000
                       1.000000  1.000000  1.000000  1.000000  1.000000  1.000000
                       1.000000  1.000000  1.000000  1.000000  1.000000  1.000000
                       1.000000  1.000000  1.000000  1.000000  1.000000  1.000000
                       1.000000  1.000000  1.000000  1.000000  1.000000  1.000000
                       1.000000  1.000000  1.000000  1.000000  1.000000  1.000000
                       1.000000  1.000000  1.000000  1.000000  1.000000  1.000000
                       1.000000  1.000000  1.000000  1.000000  1.000000  1.000000
                       0.000000  0.000000  0.000000  0.000000  0.000000  0.000000
                       0.000000  0.000000  0.000000  0.000000  0.000000  0.000000
                       1.000000  1.000000  1.000000  1.000000  1.000000  1.000000
                       1.000000  1.000000  1.000000  1.000000  1.000000  1.000000
                       1.000000  1.000000  1.000000  1.000000  1.000000  1.000000
                       1.000000  1.000000  1.000000  1.000000  1.000000  1.000000
                       1.000000  1.000000  1.000000  1.000000  1.000000  1.000000
                       1.000000  1.000000  1.000000  1.000000  1.000000  1.000000
                       1.000000  1.000000  1.000000  1.000000  1.000000  1.000000
                       1.000000  1.000000  1.000000  1.000000  1.000000  1.000000
                       0.000000  0.000000  0.000000  0.000000  0.000000  0.000000
                       0.000000  0.000000  0.000000  0.000000  0.000000  0.000000
                       1.000000  1.000000  1.000000  1.000000  1.000000  1.000000
                       1.000000  1.000000  1.000000  1.000000  1.000000  1.000000
                       1.000000  1.000000  1.000000  1.000000  1.000000  1.000000
                       1.000000  1.000000  1.000000  1.000000  1.000000  1.000000
                       1.000000  1.000000  1.000000  1.000000  1.000000  1.000000
                       1.000000  1.000000  1.000000  1.000000  1.000000  1.000000
                       1.000000  1.000000  1.000000  1.000000  1.000000  1.000000
                       1.000000  1.000000  1.000000  1.000000  1.000000  1.000000
                       0.000000  0.000000  0.000000  0.000000  0.000000  0.000000
                       0.000000  0.000000  0.000000  0.000000  0.000000  0.000000
                       1.000000  1.000000  1.000000  1.000000  1.000000  1.000000
                       1.000000  1.000000  1.000000  1.000000  1.000000  1.000000
                       1.000000  1.000000  1.000000  1.000000  1.000000  1.000000
                       1.000000  1.000000  1.000000  1.000000  1.000000  1.000000
                       1.000000  1.000000  1.000000  1.000000  1.000000  1.000000
                       1.000000  1.000000  1.000000  1.000000  1.000000  1.000000
                       1.000000  1.000000  1.000000  1.000000  1.000000  1.000000
                       1.000000  1.000000  1.000000  1.000000  1.000000  1.000000
                       0.000000  0.000000  0.000000  0.000000  0.000000  0.000000
                       0.000000  0.000000  0.000000  0.000000  0.000000  0.000000
                       1.000000  1.000000  1.000000  1.000000  1.000000  1.000000
                       1.000000  1.000000  1.000000  1.000000  1.000000  1.000000
                       1.000000  1.000000  1.000000  1.000000  1.000000  1.000000
                       1.000000  1.000000  1.000000  1.000000  1.000000  1.000000
                       1.000000  1.000000  1.000000  1.000000  1.000000  1.000000
                       1.000000  1.000000  1.000000  1.000000  1.000000  1.000000
                       1.000000  1.000000  1.000000  1.000000  1.000000  1.000000
                       1.000000  1.000000  1.000000  1.000000  1.000000  1.000000
                       0.000000  0.000000  0.000000  0.000000  0.000000  0.000000
                       0.000000  0.000000  0.000000  0.000000  0.000000  0.000000
              occ5     1.000000  1.000000  1.000000  1.000000  1.000000  1.000000
                       1.000000  1.000000  1.000000  1.000000  1.000000  1.000000
                       1.000000  1.000000  1.000000  1.000000  1.000000  1.000000
                       1.000000  1.000000  1.000000  1.000000  1.000000  1.000000
                       1.000000  1.000000  1.000000  1.000000  1.000000  1.000000
                       1.000000  1.000000  1.000000  1.000000  1.000000  1.000000
                       1.000000  1.000000  1.000000  1.000000  1.000000  1.000000
                       1.000000  1.000000  1.000000  1.000000  1.000000  1.000000
                       0.000000  0.000000  0.000000  0.000000  0.000000  0.000000
                       0.000000  0.000000  0.000000  0.000000  0.000000  0.000000
                       1.000000  1.000000  1.000000  1.000000  1.000000  1.000000
                       1.000000  1.000000  1.000000  1.000000  1.000000  1.000000
                       1.000000  1.000000  1.000000  1.000000  1.000000  1.000000
                       1.000000  1.000000  1.000000  1.000000  1.000000  1.000000
                       1.000000  1.000000  1.000000  1.000000  1.000000  1.000000
                       1.000000  1.000000  1.000000  1.000000  1.000000  1.000000
                       1.000000  1.000000  1.000000  1.000000  1.000000  1.000000
                       1.000000  1.000000  1.000000  1.000000  1.000000  1.000000
                       0.000000  0.000000  0.000000  0.000000  0.000000  0.000000
                       0.000000  0.000000  0.000000  0.000000  0.000000  0.000000
                       1.000000  1.000000  1.000000  1.000000  1.000000  1.000000
                       1.000000  1.000000  1.000000  1.000000  1.000000  1.000000
                       1.000000  1.000000  1.000000  1.000000  1.000000  1.000000
                       1.000000  1.000000  1.000000  1.000000  1.000000  1.000000
                       1.000000  1.000000  1.000000  1.000000  1.000000  1.000000
                       1.000000  1.000000  1.000000  1.000000  1.000000  1.000000
                       1.000000  1.000000  1.000000  1.000000  1.000000  1.000000
                       1.000000  1.000000  1.000000  1.000000  1.000000  1.000000
                       0.000000  0.000000  0.000000  0.000000  0.000000  0.000000
                       0.000000  0.000000  0.000000  0.000000  0.000000  0.000000
                       1.000000  1.000000  1.000000  1.000000  1.000000  1.000000
                       1.000000  1.000000  1.000000  1.000000  1.000000  1.000000
                       1.000000  1.000000  1.000000  1.000000  1.000000  1.000000
                       1.000000  1.000000  1.000000  1.000000  1.000000  1.000000
                       1.000000  1.000000  1.000000  1.000000  1.000000  1.000000
                       1.000000  1.000000  1.000000  1.000000  1.000000  1.000000
                       1.000000  1.000000  1.000000  1.000000  1.000000  1.000000
                       1.000000  1.000000  1.000000  1.000000  1.000000  1.000000
                       0.000000  0.000000  0.000000  0.000000  0.000000  0.000000
                       0.000000  0.000000  0.000000  0.000000  0.000000  0.000000
                       1.000000  1.000000  1.000000  1.000000  1.000000  1.000000
                       1.000000  1.000000  1.000000  1.000000  1.000000  1.000000
                       1.000000  1.000000  1.000000  1.000000  1.000000  1.000000
                       1.000000  1.000000  1.000000  1.000000  1.000000  1.000000
                       1.000000  1.000000  1.000000  1.000000  1.000000  1.000000
                       1.000000  1.000000  1.000000  1.000000  1.000000  1.000000
                       1.000000  1.000000  1.000000  1.000000  1.000000  1.000000
                       1.000000  1.000000  1.000000  1.000000  1.000000  1.000000
                       0.000000  0.000000  0.000000  0.000000  0.000000  0.000000
                       0.000000  0.000000  0.000000  0.000000  0.000000  0.000000
                       1.000000  1.000000  1.000000  1.000000  1.000000  1.000000
                       1.000000  1.000000  1.000000  1.000000  1.000000  1.000000
                       1.000000  1.000000  1.000000  1.000000  1.000000  1.000000
                       1.000000  1.000000  1.000000  1.000000  1.000000  1.000000
                       1.000000  1.000000  1.000000  1.000000  1.000000  1.000000
                       1.000000  1.000000  1.000000  1.000000  1.000000  1.000000
                       1.000000  1.000000  1.000000  1.000000  1.000000  1.000000
                       1.000000  1.000000  1.000000  1.000000  1.000000  1.000000
                       0.000000  0.000000  0.000000  0.000000  0.000000  0.000000
                       0.000000  0.000000  0.000000  0.000000  0.000000  0.000000
                       1.000000  1.000000  1.000000  1.000000  1.000000  1.000000
                       1.000000  1.000000  1.000000  1.000000  1.000000  1.000000
                       1.000000  1.000000  1.000000  1.000000  1.000000  1.000000
                       1.000000  1.000000  1.000000  1.000000  1.000000  1.000000
                       1.000000  1.000000  1.000000  1.000000  1.000000  1.000000
                       1.000000  1.000000  1.000000  1.000000  1.000000  1.000000
                       1.000000  1.000000  1.000000  1.000000  1.000000  1.000000
                       1.000000  1.000000  1.000000  1.000000  1.000000  1.000000
                       0.000000  0.000000  0.000000  0.000000  0.000000  0.000000
                       0.000000  0.000000  0.000000  0.000000  0.000000  0.000000
                       1.000000  1.000000  1.000000  1.000000  1.000000  1.000000
                       1.000000  1.000000  1.000000  1.000000  1.000000  1.000000
                       1.000000  1.000000  1.000000  1.000000  1.000000  1.000000
                       1.000000  1.000000  1.000000  1.000000  1.000000  1.000000
                       1.000000  1.000000  1.000000  1.000000  1.000000  1.000000
                       1.000000  1.000000  1.000000  1.000000  1.000000  1.000000
                       1.000000  1.000000  1.000000  1.000000  1.000000  1.000000
                       1.000000  1.000000  1.000000  1.000000  1.000000  1.000000
                       0.000000  0.000000  0.000000  0.000000  0.000000  0.000000
                       0.000000  0.000000  0.000000  0.000000  0.000000  0.000000
              occ6     1.000000  1.000000  1.000000  1.000000  1.000000  1.000000
                       1.000000  1.000000  1.000000  1.000000  1.000000  1.000000
                       1.000000  1.000000  1.000000  1.000000  1.000000  1.000000
                       1.000000  1.000000  1.000000  1.000000  1.000000  1.000000
                       1.000000  1.000000  1.000000  1.000000  1.000000  1.000000
                       1.000000  1.000000  1.000000  1.000000  1.000000  1.000000
                       1.000000  1.000000  1.000000  1.000000  1.000000  1.000000
                       1.000000  1.000000  1.000000  1.000000  1.000000  1.000000
                       0.000000  0.000000  0.000000  0.000000  0.000000  0.000000
                       0.000000  0.000000  0.000000  0.000000  0.000000  0.000000
                       1.000000  1.000000  1.000000  1.000000  1.000000  1.000000
                       1.000000  1.000000  1.000000  1.000000  1.000000  1.000000
                       1.000000  1.000000  1.000000  1.000000  1.000000  1.000000
                       1.000000  1.000000  1.000000  1.000000  1.000000  1.000000
                       1.000000  1.000000  1.000000  1.000000  1.000000  1.000000
                       1.000000  1.000000  1.000000  1.000000  1.000000  1.000000
                       1.000000  1.000000  1.000000  1.000000  1.000000  1.000000
                       1.000000  1.000000  1.000000  1.000000  1.000000  1.000000
                       0.000000  0.000000  0.000000  0.000000  0.000000  0.000000
                       0.000000  0.000000  0.000000  0.000000  0.000000  0.000000
                       1.000000  1.000000  1.000000  1.000000  1.000000  1.000000
                       1.000000  1.000000  1.000000  1.000000  1.000000  1.000000
                       1.000000  1.000000  1.000000  1.000000  1.000000  1.000000
                       1.000000  1.000000  1.000000  1.000000  1.000000  1.000000
                       1.000000  1.000000  1.000000  1.000000  1.000000  1.000000
                       1.000000  1.000000  1.000000  1.000000  1.000000  1.000000
                       1.000000  1.000000  1.000000  1.000000  1.000000  1.000000
                       1.000000  1.000000  1.000000  1.000000  1.000000  1.000000
                       0.000000  0.000000  0.000000  0.000000  0.000000  0.000000
                       0.000000  0.000000  0.000000  0.000000  0.000000  0.000000
                       1.000000  1.000000  1.000000  1.000000  1.000000  1.000000
                       1.000000  1.000000  1.000000  1.000000  1.000000  1.000000
                       1.000000  1.000000  1.000000  1.000000  1.000000  1.000000
                       1.000000  1.000000  1.000000  1.000000  1.000000  1.000000
                       1.000000  1.000000  1.000000  1.000000  1.000000  1.000000
                       1.000000  1.000000  1.000000  1.000000  1.000000  1.000000
                       1.000000  1.000000  1.000000  1.000000  1.000000  1.000000
                       1.000000  1.000000  1.000000  1.000000  1.000000  1.000000
                       0.000000  0.000000  0.000000  0.000000  0.000000  0.000000
                       0.000000  0.000000  0.000000  0.000000  0.000000  0.000000
                       1.000000  1.000000  1.000000  1.000000  1.000000  1.000000
                       1.000000  1.000000  1.000000  1.000000  1.000000  1.000000
                       1.000000  1.000000  1.000000  1.000000  1.000000  1.000000
                       1.000000  1.000000  1.000000  1.000000  1.000000  1.000000
                       1.000000  1.000000  1.000000  1.000000  1.000000  1.000000
                       1.000000  1.000000  1.000000  1.000000  1.000000  1.000000
                       1.000000  1.000000  1.000000  1.000000  1.000000  1.000000
                       1.000000  1.000000  1.000000  1.000000  1.000000  1.000000
                       0.000000  0.000000  0.000000  0.000000  0.000000  0.000000
                       0.000000  0.000000  0.000000  0.000000  0.000000  0.000000
                       1.000000  1.000000  1.000000  1.000000  1.000000  1.000000
                       1.000000  1.000000  1.000000  1.000000  1.000000  1.000000
                       1.000000  1.000000  1.000000  1.000000  1.000000  1.000000
                       1.000000  1.000000  1.000000  1.000000  1.000000  1.000000
                       1.000000  1.000000  1.000000  1.000000  1.000000  1.000000
                       1.000000  1.000000  1.000000  1.000000  1.000000  1.000000
                       1.000000  1.000000  1.000000  1.000000  1.000000  1.000000
                       1.000000  1.000000  1.000000  1.000000  1.000000  1.000000
                       0.000000  0.000000  0.000000  0.000000  0.000000  0.000000
                       0.000000  0.000000  0.000000  0.000000  0.000000  0.000000
                       1.000000  1.000000  1.000000  1.000000  1.000000  1.000000
                       1.000000  1.000000  1.000000  1.000000  1.000000  1.000000
                       1.000000  1.000000  1.000000  1.000000  1.000000  1.000000
                       1.000000  1.000000  1.000000  1.000000  1.000000  1.000000
                       1.000000  1.000000  1.000000  1.000000  1.000000  1.000000
                       1.000000  1.000000  1.000000  1.000000  1.000000  1.000000
                       1.000000  1.000000  1.000000  1.000000  1.000000  1.000000
                       1.000000  1.000000  1.000000  1.000000  1.000000  1.000000
                       0.000000  0.000000  0.000000  0.000000  0.000000  0.000000
                       0.000000  0.000000  0.000000  0.000000  0.000000  0.000000
                       1.000000  1.000000  1.000000  1.000000  1.000000  1.000000
                       1.000000  1.000000  1.000000  1.000000  1.000000  1.000000
                       1.000000  1.000000  1.000000  1.000000  1.000000  1.000000
                       1.000000  1.000000  1.000000  1.000000  1.000000  1.000000
                       1.000000  1.000000  1.000000  1.000000  1.000000  1.000000
                       1.000000  1.000000  1.000000  1.000000  1.000000  1.000000
                       1.000000  1.000000  1.000000  1.000000  1.000000  1.000000
                       1.000000  1.000000  1.000000  1.000000  1.000000  1.000000
                       0.000000  0.000000  0.000000  0.000000  0.000000  0.000000
                       0.000000  0.000000  0.000000  0.000000  0.000000  0.000000
           occopt           7
        optforces           1
        pawcpxocc1          1
        pawcpxocc2          1
        pawcpxocc3          1
        pawcpxocc4          2
        pawcpxocc5          2
        pawcpxocc6          2
        pawecutdg      1.00000000E+01 Hartree
        pawprtvol           3
        pawspnorb1          0
        pawspnorb2          0
        pawspnorb3          0
        pawspnorb4          0
        pawspnorb5          0
        pawspnorb6          1
           prtden           0
        prtdensph1          0
        prtdensph2          0
        prtdensph3          1
        prtdensph4          0
        prtdensph5          0
        prtdensph6          0
           prteig           0
            prtwf           0
            rprim      0.0000000000E+00  5.0000000000E-01  5.0000000000E-01
                       5.0000000000E-01  0.0000000000E+00  5.0000000000E-01
                       1.0000000000E+00  1.0000000000E+00  0.0000000000E+00
           shiftk      5.00000000E-01  5.00000000E-01  5.00000000E-01
          spgroup1        166
          spgroup2        166
          spgroup3        166
          spgroup4          0
          spgroup5          0
          spgroup6          0
           spinat      0.0000000000E+00  0.0000000000E+00  1.0000000000E+00
                       0.0000000000E+00  0.0000000000E+00 -1.0000000000E+00
                       0.0000000000E+00  0.0000000000E+00  0.0000000000E+00
                       0.0000000000E+00  0.0000000000E+00  0.0000000000E+00
           symafm1       1   -1    1   -1    1   -1    1   -1    1   -1
                         1   -1    1   -1    1   -1    1   -1    1   -1
                         1   -1    1   -1
           symafm2       1   -1    1   -1    1   -1    1   -1    1   -1
                         1   -1    1   -1    1   -1    1   -1    1   -1
                         1   -1    1   -1
           symafm3       1   -1    1   -1    1   -1    1   -1    1   -1
                         1   -1    1   -1    1   -1    1   -1    1   -1
                         1   -1    1   -1
           symafm4       1   -1
           symafm5       1   -1
           symafm6       1   -1
           symrel1     1  0  0   0  1  0   0  0  1       1  0  0   0  1  0   0  0  1
                      -1  0  0   0 -1  0   0  0 -1      -1  0  0   0 -1  0   0  0 -1
                       0  1  0   1  0  0   0  0  1       0  1  0   1  0  0   0  0  1
                       0 -1  0  -1  0  0   0  0 -1       0 -1  0  -1  0  0   0  0 -1
                       0 -1  0   1 -1  0   0 -2  1       0 -1  0   1 -1  0   0 -2  1
                       0  1  0  -1  1  0   0  2 -1       0  1  0  -1  1  0   0  2 -1
                       1 -1  0   0 -1  0   0 -2  1       1 -1  0   0 -1  0   0 -2  1
                      -1  1  0   0  1  0   0  2 -1      -1  1  0   0  1  0   0  2 -1
                      -1  1  0  -1  0  0  -2  0  1      -1  1  0  -1  0  0  -2  0  1
                       1 -1  0   1  0  0   2  0 -1       1 -1  0   1  0  0   2  0 -1
                      -1  0  0  -1  1  0  -2  0  1      -1  0  0  -1  1  0  -2  0  1
                       1  0  0   1 -1  0   2  0 -1       1  0  0   1 -1  0   2  0 -1
           symrel2     1  0  0   0  1  0   0  0  1       1  0  0   0  1  0   0  0  1
                      -1  0  0   0 -1  0   0  0 -1      -1  0  0   0 -1  0   0  0 -1
                       0  1  0   1  0  0   0  0  1       0  1  0   1  0  0   0  0  1
                       0 -1  0  -1  0  0   0  0 -1       0 -1  0  -1  0  0   0  0 -1
                       0 -1  0   1 -1  0   0 -2  1       0 -1  0   1 -1  0   0 -2  1
                       0  1  0  -1  1  0   0  2 -1       0  1  0  -1  1  0   0  2 -1
                       1 -1  0   0 -1  0   0 -2  1       1 -1  0   0 -1  0   0 -2  1
                      -1  1  0   0  1  0   0  2 -1      -1  1  0   0  1  0   0  2 -1
                      -1  1  0  -1  0  0  -2  0  1      -1  1  0  -1  0  0  -2  0  1
                       1 -1  0   1  0  0   2  0 -1       1 -1  0   1  0  0   2  0 -1
                      -1  0  0  -1  1  0  -2  0  1      -1  0  0  -1  1  0  -2  0  1
                       1  0  0   1 -1  0   2  0 -1       1  0  0   1 -1  0   2  0 -1
           symrel3     1  0  0   0  1  0   0  0  1       1  0  0   0  1  0   0  0  1
                      -1  0  0   0 -1  0   0  0 -1      -1  0  0   0 -1  0   0  0 -1
                       0  1  0   1  0  0   0  0  1       0  1  0   1  0  0   0  0  1
                       0 -1  0  -1  0  0   0  0 -1       0 -1  0  -1  0  0   0  0 -1
                       0 -1  0   1 -1  0   0 -2  1       0 -1  0   1 -1  0   0 -2  1
                       0  1  0  -1  1  0   0  2 -1       0  1  0  -1  1  0   0  2 -1
                       1 -1  0   0 -1  0   0 -2  1       1 -1  0   0 -1  0   0 -2  1
                      -1  1  0   0  1  0   0  2 -1      -1  1  0   0  1  0   0  2 -1
                      -1  1  0  -1  0  0  -2  0  1      -1  1  0  -1  0  0  -2  0  1
                       1 -1  0   1  0  0   2  0 -1       1 -1  0   1  0  0   2  0 -1
                      -1  0  0  -1  1  0  -2  0  1      -1  0  0  -1  1  0  -2  0  1
                       1  0  0   1 -1  0   2  0 -1       1  0  0   1 -1  0   2  0 -1
           symrel4     1  0  0   0  1  0   0  0  1       1  0  0   0  1  0   0  0  1
           symrel5     1  0  0   0  1  0   0  0  1       1  0  0   0  1  0   0  0  1
           symrel6     1  0  0   0  1  0   0  0  1       1  0  0   0  1  0   0  0  1
            tnons1     0.0000000  0.0000000  0.0000000     0.0000000  0.0000000  0.5000000
                       0.0000000  0.0000000  0.0000000     0.0000000  0.0000000  0.5000000
                       0.0000000  0.0000000  0.0000000     0.0000000  0.0000000  0.5000000
                       0.0000000  0.0000000  0.0000000     0.0000000  0.0000000  0.5000000
                       0.0000000  0.0000000  0.0000000     0.0000000  0.0000000  0.5000000
                       0.0000000  0.0000000  0.0000000     0.0000000  0.0000000  0.5000000
                       0.0000000  0.0000000  0.0000000     0.0000000  0.0000000  0.5000000
                       0.0000000  0.0000000  0.0000000     0.0000000  0.0000000  0.5000000
                       0.0000000  0.0000000  0.0000000     0.0000000  0.0000000  0.5000000
                       0.0000000  0.0000000  0.0000000     0.0000000  0.0000000  0.5000000
                       0.0000000  0.0000000  0.0000000     0.0000000  0.0000000  0.5000000
                       0.0000000  0.0000000  0.0000000     0.0000000  0.0000000  0.5000000
            tnons2     0.0000000  0.0000000  0.0000000     0.0000000  0.0000000  0.5000000
                       0.0000000  0.0000000  0.0000000     0.0000000  0.0000000  0.5000000
                       0.0000000  0.0000000  0.0000000     0.0000000  0.0000000  0.5000000
                       0.0000000  0.0000000  0.0000000     0.0000000  0.0000000  0.5000000
                       0.0000000  0.0000000  0.0000000     0.0000000  0.0000000  0.5000000
                       0.0000000  0.0000000  0.0000000     0.0000000  0.0000000  0.5000000
                       0.0000000  0.0000000  0.0000000     0.0000000  0.0000000  0.5000000
                       0.0000000  0.0000000  0.0000000     0.0000000  0.0000000  0.5000000
                       0.0000000  0.0000000  0.0000000     0.0000000  0.0000000  0.5000000
                       0.0000000  0.0000000  0.0000000     0.0000000  0.0000000  0.5000000
                       0.0000000  0.0000000  0.0000000     0.0000000  0.0000000  0.5000000
                       0.0000000  0.0000000  0.0000000     0.0000000  0.0000000  0.5000000
            tnons3     0.0000000  0.0000000  0.0000000     0.0000000  0.0000000  0.5000000
                       0.0000000  0.0000000  0.0000000     0.0000000  0.0000000  0.5000000
                       0.0000000  0.0000000  0.0000000     0.0000000  0.0000000  0.5000000
                       0.0000000  0.0000000  0.0000000     0.0000000  0.0000000  0.5000000
                       0.0000000  0.0000000  0.0000000     0.0000000  0.0000000  0.5000000
                       0.0000000  0.0000000  0.0000000     0.0000000  0.0000000  0.5000000
                       0.0000000  0.0000000  0.0000000     0.0000000  0.0000000  0.5000000
                       0.0000000  0.0000000  0.0000000     0.0000000  0.0000000  0.5000000
                       0.0000000  0.0000000  0.0000000     0.0000000  0.0000000  0.5000000
                       0.0000000  0.0000000  0.0000000     0.0000000  0.0000000  0.5000000
                       0.0000000  0.0000000  0.0000000     0.0000000  0.0000000  0.5000000
                       0.0000000  0.0000000  0.0000000     0.0000000  0.0000000  0.5000000
            tnons4     0.0000000  0.0000000  0.0000000     0.0000000  0.0000000  0.5000000
            tnons5     0.0000000  0.0000000  0.0000000     0.0000000  0.0000000  0.5000000
            tnons6     0.0000000  0.0000000  0.0000000     0.0000000  0.0000000  0.5000000
           tolvrs      1.00000000E-07
           tsmear      1.50000000E-02 Hartree
            typat      1  1  2  2
            upawu1     0.00000000E+00  0.00000000E+00 Hartree
            upawu2     3.00000000E-01  0.00000000E+00 Hartree
            upawu3     3.00000000E-01  0.00000000E+00 Hartree
            upawu4     3.00000000E-01  0.00000000E+00 Hartree
            upawu5     0.00000000E+00  0.00000000E+00 Hartree
            upawu6     3.00000000E-01  0.00000000E+00 Hartree
        usedmatpu1          0
        usedmatpu2          3
        usedmatpu3          3
        usedmatpu4          3
        usedmatpu5          3
        usedmatpu6          3
          usepawu1          0
          usepawu2          1
          usepawu3          1
          usepawu4          1
          usepawu5          1
          usepawu6          1
           useylm           1
              wtk1       0.25000    0.50000    0.25000
              wtk2       0.25000    0.50000    0.25000
              wtk3       0.25000    0.50000    0.25000
              wtk4       0.12500    0.12500    0.12500    0.12500    0.12500    0.12500
                         0.12500    0.12500
              wtk5       0.12500    0.12500    0.12500    0.12500    0.12500    0.12500
                         0.12500    0.12500
              wtk6       0.12500    0.12500    0.12500    0.12500    0.12500    0.12500
                         0.12500    0.12500
           xangst      0.0000000000E+00  0.0000000000E+00  0.0000000000E+00
                       2.0955417460E+00  2.0955417460E+00  0.0000000000E+00
                       2.0955417460E+00  2.0955417460E+00  2.0955417460E+00
                       4.1910834920E+00  4.1910834920E+00  2.0955417460E+00
            xcart      0.0000000000E+00  0.0000000000E+00  0.0000000000E+00
                       3.9600000000E+00  3.9600000000E+00  0.0000000000E+00
                       3.9600000000E+00  3.9600000000E+00  3.9600000000E+00
                       7.9200000000E+00  7.9200000000E+00  3.9600000000E+00
             xred      0.0000000000E+00  0.0000000000E+00  0.0000000000E+00
                       0.0000000000E+00  0.0000000000E+00  5.0000000000E-01
                       5.0000000000E-01  5.0000000000E-01  2.5000000000E-01
                       5.0000000000E-01  5.0000000000E-01  7.5000000000E-01
            znucl       28.00000    8.00000

================================================================================

 chkinp: Checking input parameters for consistency, jdtset=   1.

 chkinp: Checking input parameters for consistency, jdtset=   2.

 chkinp: Checking input parameters for consistency, jdtset=   3.

 chkinp: Checking input parameters for consistency, jdtset=   4.

 chkinp: Checking input parameters for consistency, jdtset=   5.

 chkinp: Checking input parameters for consistency, jdtset=   6.

================================================================================
== DATASET  1 ==================================================================
-   nproc =    1

 Exchange-correlation functional for the present dataset will be:
  LDA: Perdew-Wang 92 LSD fit to Ceperley-Alder data - ixc=7
 Citation for XC functional:
  J.P.Perdew and Y.Wang, PRB 45, 13244 (1992)

 Real(R)+Recip(G) space primitive vectors, cartesian coordinates (Bohr,Bohr^-1):
 R(1)=  0.0000000  3.9600000  3.9600000  G(1)= -0.1262626  0.1262626  0.1262626
 R(2)=  3.9600000  0.0000000  3.9600000  G(2)=  0.1262626 -0.1262626  0.1262626
 R(3)=  7.9200000  7.9200000  0.0000000  G(3)=  0.0631313  0.0631313 -0.0631313
 Unit cell volume ucvol=  2.4839654E+02 bohr^3
 Angles (23,13,12)=  6.00000000E+01  6.00000000E+01  6.00000000E+01 degrees

 Coarse grid specifications (used for wave-functions):

 getcut: wavevector=  0.0000  0.0000  0.0000  ngfft=  16  16  32
         ecut(hartree)=      8.000   => boxcut(ratio)=   2.24388

 getcut : COMMENT -
  Note that boxcut > 2.2 ; recall that boxcut=Gcut(box)/Gcut(sphere) = 2
  is sufficient for exact treatment of convolution.
  Such a large boxcut is a waste : you could raise ecut
  e.g. ecut=   10.069997 Hartrees makes boxcut=2


 Fine grid specifications (used for densities):

 getcut: wavevector=  0.0000  0.0000  0.0000  ngfft=  16  16  32
         ecut(hartree)=     10.000   => boxcut(ratio)=   2.00699

--- Pseudopotential description ------------------------------------------------
- pspini: atom type   1  psp file is /data/ABINIT/testf_gcc47/torrent_7.10.4-public/tests/Psps_for_tests/28ni.paw
- pspatm: opening atomic psp file    /data/ABINIT/testf_gcc47/torrent_7.10.4-public/tests/Psps_for_tests/28ni.paw
- Paw atomic data for element Ni - Generated by AtomPAW (N. Holzwarth) + AtomPAW2Abinit v3.0.5
- 28.00000  18.00000  20061204                znucl, zion, pspdat
    7    7    2    0       350   0.00000      pspcod,pspxc,lmax,lloc,mmax,r2well
 Pseudopotential format is: paw3
 basis_size (lnmax)=  5 (lmn_size= 13), orbitals=   0   0   1   1   2
 Spheres core radius: rc_sph= 2.30000000
 3 radial meshes are used:
  - mesh 1: r(i)=AA*exp(BB*(i-2)), size= 350 , AA= 0.11804E-04 BB= 0.35000E-01
  - mesh 2: r(i)=step*(i-1), size= 921 , step= 0.25000E-02
  - mesh 3: r(i)=AA*exp(BB*(i-2)), size= 391 , AA= 0.11804E-04 BB= 0.35000E-01
 Shapefunction is SIN type: shapef(r)=[sin(pi*r/rshp)/(pi*r/rshp)]**2
 Radius for shape functions = sphere core radius
 Radial grid used for partial waves is grid 1
 Radial grid used for projectors is grid  2
 Radial grid used for (t)core density is grid 1
 Radial grid used for Vloc is grid 3

 pawpsp_calc: WARNING -
  Atomic data could produce inaccurate results:
    Wavefunctions and pseudo-wavefunctions should
    be given on a radial mesh larger than the PAW
    spheres (at least 2 additional points) !
  Action: check your pseudopotential file.
 Compensation charge density is taken into account in XC energy/potential
 pspatm: atomic psp has been read  and splines computed

- pspini: atom type   2  psp file is /data/ABINIT/testf_gcc47/torrent_7.10.4-public/tests/Psps_for_tests/8o.2.paw
- pspatm: opening atomic psp file    /data/ABINIT/testf_gcc47/torrent_7.10.4-public/tests/Psps_for_tests/8o.2.paw
- Paw atomic data extracted from US-psp (D.Vanderbilt): Oxygen
-  8.00000   6.00000  20050722                znucl, zion, pspdat
    7   11    2    0       489   0.00000      pspcod,pspxc,lmax,lloc,mmax,r2well
 Pseudopotential format is: paw3
 basis_size (lnmax)=  6 (lmn_size= 18), orbitals=   0   0   1   1   2   2
 Spheres core radius: rc_sph= 1.21105161
 4 radial meshes are used:
  - mesh 1: r(i)=AA*[exp(BB*(i-1))-1], size= 489 , AA= 0.30984E-03 BB= 0.16949E-01
  - mesh 2: r(i)=AA*[exp(BB*(i-1))-1], size= 548 , AA= 0.30984E-03 BB= 0.16949E-01
  - mesh 3: r(i)=AA*[exp(BB*(i-1))-1], size= 509 , AA= 0.30984E-03 BB= 0.16949E-01
  - mesh 4: r(i)=AA*[exp(BB*(i-1))-1], size= 613 , AA= 0.30984E-03 BB= 0.16949E-01
 Shapefunction is SIN type: shapef(r)=[sin(pi*r/rshp)/(pi*r/rshp)]**2
 Radius for shape functions = sphere core radius
 Radial grid used for partial waves is grid 1
 Radial grid used for projectors is grid  2
 Radial grid used for (t)core density is grid 3
 Radial grid used for Vloc is grid 4

 pawpsp_calc: WARNING -
  Atomic data could produce inaccurate results:
    Wavefunctions and pseudo-wavefunctions should
    be given on a radial mesh larger than the PAW
    spheres (at least 2 additional points) !
  Action: check your pseudopotential file.
 Compensation charge density is taken into account in XC energy/potential
 pspatm: atomic psp has been read  and splines computed

   5.32753584E+03                                ecore*ucvol(ha*bohr**3)
--------------------------------------------------------------------------------

P newkpt: treating     28 bands with npw=     269 for ikpt=   1 by node    0
P newkpt: treating     28 bands with npw=     268 for ikpt=   2 by node    0
P newkpt: treating     28 bands with npw=     277 for ikpt=   3 by node    0

_setup2: Arith. and geom. avg. npw (full set) are     270.500     270.474

================================================================================

     iter   Etot(hartree)      deltaE(h)  residm     nres2    diffor    maxfor
 ETOT  1  -366.02601880451    -3.660E+02 8.116E+00 2.320E+01 8.300E-32 8.300E-32
 ETOT  2  -371.14399161076    -5.118E+00 3.547E-02 1.322E+01 4.462E-28 4.462E-28
 ETOT  3  -370.94084395913     2.031E-01 2.029E-03 4.642E+00 9.041E-28 6.011E-28
 ETOT  4  -370.84698494431     9.386E-02 3.477E-03 2.094E+00 1.105E-27 5.197E-28
 ETOT  5  -370.82841911165     1.857E-02 4.615E-03 8.657E-01 3.641E-28 8.685E-28
 ETOT  6  -370.82563301198     2.786E-03 2.089E-03 3.102E-01 4.202E-28 1.010E-27
 ETOT  7  -370.81662025452     9.013E-03 6.834E-04 2.390E-03 1.115E-27 2.535E-28
 ETOT  8  -370.81678645065    -1.662E-04 6.897E-05 1.262E-03 7.563E-28 5.559E-28
 ETOT  9  -370.81679390402    -7.453E-06 2.465E-05 2.079E-03 1.346E-27 8.058E-28
 ETOT 10  -370.81676270107     3.120E-05 1.109E-05 3.766E-05 8.841E-28 3.183E-28
 ETOT 11  -370.81676302725    -3.262E-07 1.980E-06 3.130E-05 3.232E-28 7.533E-29
 ETOT 12  -370.81676278320     2.441E-07 1.155E-06 3.088E-06 7.768E-29 5.536E-30
 ETOT 13  -370.81676275148     3.172E-08 2.261E-07 4.942E-07 7.230E-30 1.079E-29
 ETOT 14  -370.81676275017     1.305E-09 1.347E-07 5.522E-08 2.092E-29 1.013E-29

 At SCF step   14       nres2   =  5.52E-08 < tolvrs=  1.00E-07 =>converged.

 Cartesian components of stress tensor (hartree/bohr^3)
  sigma(1 1)=  2.52749842E-02  sigma(3 2)= -1.64485226E-04
  sigma(2 2)=  2.52749842E-02  sigma(3 1)= -1.64485226E-04
  sigma(3 3)=  2.52749842E-02  sigma(2 1)=  1.64485226E-04


 PAW TEST:
 ==== Compensation charge inside spheres ============
 The following values must be close to each other ...
 Compensation charge over spherical meshes =     21.863447126424862
 Compensation charge over fft grid         =     21.864839547631885

 ==== Results concerning PAW augmentation regions ====

 Total pseudopotential strength Dij (hartree):
 Atom #  1
  -2.93105  -0.97736   0.00000   0.00000   0.00000   0.00000   0.00000   0.00000  -0.00079   0.00079   0.00000   0.00079 ...
  -0.97736  -0.57339   0.00000   0.00000   0.00000   0.00000   0.00000   0.00000  -0.00024   0.00024   0.00000   0.00024 ...
   0.00000   0.00000  -2.37092   0.00072  -0.00072  -0.53071   0.00018  -0.00018   0.00000   0.00000   0.00000   0.00000 ...
   0.00000   0.00000   0.00072  -2.37092   0.00072   0.00018  -0.53071   0.00018   0.00000   0.00000   0.00000   0.00000 ...
   0.00000   0.00000  -0.00072   0.00072  -2.37092  -0.00018   0.00018  -0.53071   0.00000   0.00000   0.00000   0.00000 ...
   0.00000   0.00000  -0.53071   0.00018  -0.00018  -0.32444   0.00005  -0.00005   0.00000   0.00000   0.00000   0.00000 ...
   0.00000   0.00000   0.00018  -0.53071   0.00018   0.00005  -0.32444   0.00005   0.00000   0.00000   0.00000   0.00000 ...
   0.00000   0.00000  -0.00018   0.00018  -0.53071  -0.00005   0.00005  -0.32444   0.00000   0.00000   0.00000   0.00000 ...
  -0.00079  -0.00024   0.00000   0.00000   0.00000   0.00000   0.00000   0.00000  -0.43389   0.00044   0.00049   0.00044 ...
   0.00079   0.00024   0.00000   0.00000   0.00000   0.00000   0.00000   0.00000   0.00044  -0.43389   0.00025  -0.00044 ...
   0.00000   0.00000   0.00000   0.00000   0.00000   0.00000   0.00000   0.00000   0.00049   0.00025  -0.43960   0.00025 ...
   0.00079   0.00024   0.00000   0.00000   0.00000   0.00000   0.00000   0.00000   0.00044  -0.00044   0.00025  -0.43389 ...
   ...  only 12  components have been written...
 Atom #  4
   0.65282   1.09996  -0.00000   0.00000  -0.00000  -0.00000   0.00000  -0.00000  -0.00001   0.00001   0.00000   0.00001 ...
   1.09996   1.85033  -0.00000   0.00000  -0.00000  -0.00000   0.00000  -0.00000  -0.00002   0.00002   0.00000   0.00002 ...
  -0.00000  -0.00000  -0.32634  -0.00006   0.00006  -0.38032  -0.00009   0.00009   0.00000  -0.00000  -0.00000   0.00000 ...
   0.00000   0.00000  -0.00006  -0.32634  -0.00006  -0.00009  -0.38032  -0.00009   0.00000   0.00000  -0.00000   0.00000 ...
  -0.00000  -0.00000   0.00006  -0.00006  -0.32634   0.00009  -0.00009  -0.38032   0.00000   0.00000  -0.00000  -0.00000 ...
  -0.00000  -0.00000  -0.38032  -0.00009   0.00009  -0.41179  -0.00013   0.00013   0.00000  -0.00000  -0.00000   0.00000 ...
   0.00000   0.00000  -0.00009  -0.38032  -0.00009  -0.00013  -0.41179  -0.00013   0.00000   0.00000  -0.00000   0.00000 ...
  -0.00000  -0.00000   0.00009  -0.00009  -0.38032   0.00013  -0.00013  -0.41179   0.00000   0.00000  -0.00000  -0.00000 ...
  -0.00001  -0.00002   0.00000   0.00000   0.00000   0.00000   0.00000   0.00000  -0.01867  -0.00001  -0.00001  -0.00001 ...
   0.00001   0.00002  -0.00000   0.00000   0.00000  -0.00000   0.00000   0.00000  -0.00001  -0.01867  -0.00000   0.00001 ...
   0.00000   0.00000  -0.00000  -0.00000  -0.00000  -0.00000  -0.00000  -0.00000  -0.00001  -0.00000  -0.01879  -0.00000 ...
   0.00001   0.00002   0.00000   0.00000  -0.00000   0.00000   0.00000  -0.00000  -0.00001   0.00001  -0.00000  -0.01867 ...
   ...  only 12  components have been written...


 Augmentation waves occupancies Rhoij:
 Atom #  1
   2.00707  -0.06778   0.00000   0.00000   0.00000   0.00000   0.00000   0.00000   0.00061  -0.00061   0.00000  -0.00061 ...
  -0.06778   0.30116   0.00000   0.00000   0.00000   0.00000   0.00000   0.00000  -0.00078   0.00078   0.00000   0.00078 ...
   0.00000   0.00000   1.70657   0.00137  -0.00137   0.42748  -0.00212   0.00212   0.00000   0.00000   0.00000   0.00000 ...
   0.00000   0.00000   0.00137   1.70657   0.00137  -0.00212   0.42748  -0.00212   0.00000   0.00000   0.00000   0.00000 ...
   0.00000   0.00000  -0.00137   0.00137   1.70657   0.00212  -0.00212   0.42748   0.00000   0.00000   0.00000   0.00000 ...
   0.00000   0.00000   0.42748  -0.00212   0.00212   0.27961   0.00040  -0.00040   0.00000   0.00000   0.00000   0.00000 ...
   0.00000   0.00000  -0.00212   0.42748  -0.00212   0.00040   0.27961   0.00040   0.00000   0.00000   0.00000   0.00000 ...
   0.00000   0.00000   0.00212  -0.00212   0.42748  -0.00040   0.00040   0.27961   0.00000   0.00000   0.00000   0.00000 ...
   0.00061  -0.00078   0.00000   0.00000   0.00000   0.00000   0.00000   0.00000   1.82431   0.00615   0.00607   0.00615 ...
  -0.00061   0.00078   0.00000   0.00000   0.00000   0.00000   0.00000   0.00000   0.00615   1.82431   0.00303  -0.00615 ...
   0.00000   0.00000   0.00000   0.00000   0.00000   0.00000   0.00000   0.00000   0.00607   0.00303   1.36185   0.00303 ...
  -0.00061   0.00078   0.00000   0.00000   0.00000   0.00000   0.00000   0.00000   0.00615  -0.00615   0.00303   1.82431 ...
   ...  only 12  components have been written...
 Atom #  4
   2.46107  -0.22718  -0.00000   0.00000  -0.00000   0.00000  -0.00000   0.00000   0.01786  -0.01786   0.00000  -0.01786 ...
  -0.22718   0.07711   0.00000  -0.00000   0.00000  -0.00000   0.00000  -0.00000  -0.00438   0.00438   0.00000   0.00438 ...
  -0.00000   0.00000   4.19738  -0.02890   0.02890  -1.40372   0.01395  -0.01395   0.00000  -0.00000  -0.00000   0.00000 ...
   0.00000  -0.00000  -0.02890   4.19738  -0.02890   0.01395  -1.40372   0.01395   0.00000   0.00000  -0.00000   0.00000 ...
  -0.00000   0.00000   0.02890  -0.02890   4.19738  -0.01395   0.01395  -1.40372   0.00000   0.00000  -0.00000  -0.00000 ...
   0.00000  -0.00000  -1.40372   0.01395  -0.01395   0.48413  -0.00690   0.00690  -0.00000   0.00000   0.00000  -0.00000 ...
  -0.00000   0.00000   0.01395  -1.40372   0.01395  -0.00690   0.48413  -0.00690  -0.00000  -0.00000   0.00000  -0.00000 ...
   0.00000  -0.00000  -0.01395   0.01395  -1.40372   0.00690  -0.00690   0.48413  -0.00000  -0.00000   0.00000   0.00000 ...
   0.01786  -0.00438   0.00000   0.00000   0.00000  -0.00000  -0.00000  -0.00000   0.33385   0.02033  -0.00582   0.02033 ...
  -0.01786   0.00438  -0.00000   0.00000   0.00000   0.00000  -0.00000  -0.00000   0.02033   0.33385  -0.00291  -0.02033 ...
   0.00000   0.00000  -0.00000  -0.00000  -0.00000   0.00000   0.00000   0.00000  -0.00582  -0.00291   0.67470  -0.00291 ...
  -0.01786   0.00438   0.00000   0.00000  -0.00000  -0.00000  -0.00000   0.00000   0.02033  -0.02033  -0.00291   0.33385 ...
   ...  only 12  components have been written...


================================================================================

 ----iterations are completed or convergence reached----

 Mean square residual over all n,k,spin=   1.8312E-09; max=  1.3472E-07
   0.2500  0.2500  0.2500    1  1.34722E-07 kpt; spin; max resid(k); each band:
  1.80E-10 1.74E-10 3.15E-10 3.23E-10 3.27E-10 3.12E-10 3.08E-10 3.06E-10
  2.44E-11 2.85E-11 1.86E-10 2.57E-10 2.44E-10 3.13E-10 2.80E-10 3.06E-10
  2.11E-10 2.32E-10 2.43E-10 2.23E-10 2.21E-10 2.81E-10 2.22E-10 2.63E-10
  2.55E-10 2.81E-10 4.75E-11 1.35E-07
  -0.2500  0.2500  0.2500    1  3.22429E-10 kpt; spin; max resid(k); each band:
  1.65E-10 1.84E-10 3.16E-10 3.22E-10 3.14E-10 3.15E-10 3.14E-10 3.11E-10
  2.72E-11 3.73E-11 1.94E-10 1.72E-10 3.01E-10 2.17E-10 2.65E-10 2.65E-10
  2.22E-10 2.42E-10 2.30E-10 2.09E-10 2.25E-10 2.34E-10 2.49E-10 2.61E-10
  2.77E-10 2.75E-10 6.20E-11 5.43E-11
  -0.2500 -0.2500  0.2500    1  3.49086E-10 kpt; spin; max resid(k); each band:
  1.74E-10 1.81E-10 3.24E-10 3.20E-10 3.29E-10 3.12E-10 3.30E-10 3.15E-10
  2.28E-11 3.10E-11 2.16E-10 2.04E-10 3.49E-10 2.80E-10 2.60E-10 2.64E-10
  2.41E-10 2.23E-10 2.14E-10 2.30E-10 2.31E-10 2.29E-10 2.79E-10 2.61E-10
  2.69E-10 2.87E-10 4.06E-11 6.10E-11
 reduced coordinates (array xred) for    4 atoms
       0.000000000000      0.000000000000      0.000000000000
       0.000000000000      0.000000000000      0.500000000000
       0.500000000000      0.500000000000      0.250000000000
       0.500000000000      0.500000000000      0.750000000000
 rms dE/dt=  2.3094E-29; max dE/dt=  5.0487E-29; dE/dt below (all hartree)
    1      -0.000000000000     -0.000000000000     -0.000000000000
    2       0.000000000000      0.000000000000     -0.000000000000
    3      -0.000000000000      0.000000000000      0.000000000000
    4       0.000000000000      0.000000000000      0.000000000000

 cartesian coordinates (angstrom) at end:
    1      0.00000000000000     0.00000000000000     0.00000000000000
    2      2.09554174601640     2.09554174601640     0.00000000000000
    3      2.09554174601640     2.09554174601640     2.09554174601640
    4      4.19108349203280     4.19108349203280     2.09554174601640

 cartesian forces (hartree/bohr) at end:
    1     -0.00000000000000     0.00000000000000     0.00000000000000
    2      0.00000000000000    -0.00000000000000    -0.00000000000000
    3     -0.00000000000000     0.00000000000000     0.00000000000000
    4     -0.00000000000000    -0.00000000000000     0.00000000000000
 frms,max,avg= 3.8372430E-30 1.0126371E-29   0.000E+00  0.000E+00  0.000E+00 h/b

 cartesian forces (eV/Angstrom) at end:
    1     -0.00000000000000     0.00000000000000     0.00000000000000
    2      0.00000000000000    -0.00000000000000    -0.00000000000000
    3     -0.00000000000000     0.00000000000000     0.00000000000000
    4     -0.00000000000000    -0.00000000000000     0.00000000000000
 frms,max,avg= 1.9731895E-28 5.2071889E-28   0.000E+00  0.000E+00  0.000E+00 e/A
 length scales=  7.920000000000  7.920000000000  7.920000000000 bohr
              =  4.191083492033  4.191083492033  4.191083492033 angstroms
 Fermi (or HOMO) energy (hartree) =   0.17948   Average Vxc (hartree)=  -0.52303
 Eigenvalues (hartree) for nkpt=   3  k points:
 kpt#   1, nband= 28, wtk=  0.25000, kpt=  0.2500  0.2500  0.2500 (reduced coord)
  -3.58797  -3.58141  -2.18457  -2.18256  -2.18138  -2.17836  -2.17383  -2.16617
  -0.52706  -0.49622  -0.03770  -0.01130   0.00316   0.00509   0.03640   0.04216
   0.08624   0.10859   0.12406   0.13001   0.13515   0.15164   0.16364   0.17530
   0.18148   0.22928   0.40217   0.59824
      occupation numbers for kpt#   1
   2.00000   2.00000   2.00000   2.00000   2.00000   2.00000   2.00000   2.00000
   2.00000   2.00000   2.00000   2.00000   2.00000   2.00000   2.00000   2.00000
   2.00000   2.00000   2.00000   2.00000   1.99997   1.99133   1.86459   1.30605
   0.85032   0.00000   0.00000   0.00000
 kpt#   2, nband= 28, wtk=  0.50000, kpt= -0.2500  0.2500  0.2500 (reduced coord)
  -3.58540  -3.58286  -2.18610  -2.17864  -2.17800  -2.17419  -2.17362  -2.17185
  -0.50276  -0.49616  -0.04517  -0.01898  -0.00094   0.00015   0.01453   0.01544
   0.10701   0.11633   0.12764   0.13465   0.14355   0.15318   0.16029   0.17268
   0.19990   0.21525   0.53541   0.56145
      occupation numbers for kpt#   2
   2.00000   2.00000   2.00000   2.00000   2.00000   2.00000   2.00000   2.00000
   2.00000   2.00000   2.00000   2.00000   2.00000   2.00000   2.00000   2.00000
   2.00000   2.00000   2.00000   1.99998   1.99929   1.98684   1.92959   1.47859
   0.05417   0.00074   0.00000   0.00000
 kpt#   3, nband= 28, wtk=  0.25000, kpt= -0.2500 -0.2500  0.2500 (reduced coord)
  -3.58798  -3.58631  -2.18584  -2.18441  -2.18404  -2.17946  -2.17893  -2.17786
  -0.51585  -0.51006  -0.03738  -0.03380   0.00480   0.02572   0.03089   0.04944
   0.07620   0.10361   0.11263   0.12395   0.12883   0.13714   0.15340   0.16477
   0.17607   0.20482   0.44320   0.49426
      occupation numbers for kpt#   3
   2.00000   2.00000   2.00000   2.00000   2.00000   2.00000   2.00000   2.00000
   2.00000   2.00000   2.00000   2.00000   2.00000   2.00000   2.00000   2.00000
   2.00000   2.00000   2.00000   2.00000   2.00000   1.99993   1.98605   1.83444
   1.25201   0.01689   0.00000   0.00000
 Total charge density [el/Bohr^3]
,     Maximum=    1.9560E+00  at reduced coord.    0.0000    0.0000    0.5000
,Next maximum=    1.9560E+00  at reduced coord.    0.0000    0.0000    0.0000
,     Minimum=    1.1044E-02  at reduced coord.    0.7500    0.7500    0.3750
,Next minimum=    1.1044E-02  at reduced coord.    0.2500    0.2500    0.6250
,  Integrated=    4.8001E+01

--------------------------------------------------------------------------------
 Components of total free energy (in Hartree) :

    Kinetic energy  =  4.47271076032450E+01
    Hartree energy  =  5.42428014748801E+01
    XC energy       = -3.18980941527259E+01
    Ewald energy    = -2.38122809319194E+02
    PspCore energy  =  2.14477051759375E+01
    Loc. psp. energy= -1.48792953977040E+02
    Spherical terms = -7.24075503942678E+01
    >>>>> Internal E= -3.70803793589165E+02

    -kT*entropy     = -1.29981997527381E-02
    >>>>>>>>> Etotal= -3.70816791788918E+02

 "Double-counting" decomposition of free energy:
    Band energy     = -4.03433511005266E+01
    Ewald energy    = -2.38122809319194E+02
    PspCore energy  =  2.14477051759375E+01
    Dble-C XC-energy= -4.42682368238779E+01
    Spherical terms = -6.95170724827566E+01
    >>>>> Internal E= -3.70803764550417E+02

    -kT*entropy     = -1.29981997527381E-02
    >>>> Etotal (DC)= -3.70816762750170E+02

  >Total energy in eV           = -1.00904380631019E+04
  >Total DC energy in eV        = -1.00904372729174E+04
--------------------------------------------------------------------------------

 Cartesian components of stress tensor (hartree/bohr^3)
  sigma(1 1)=  2.52749842E-02  sigma(3 2)= -1.64485226E-04
  sigma(2 2)=  2.52749842E-02  sigma(3 1)= -1.64485226E-04
  sigma(3 3)=  2.52749842E-02  sigma(2 1)=  1.64485226E-04

-Cartesian components of stress tensor (GPa)         [Pressure= -7.4362E+02 GPa]
- sigma(1 1)=  7.43615584E+02  sigma(3 2)= -4.83932162E+00
- sigma(2 2)=  7.43615584E+02  sigma(3 1)= -4.83932162E+00
- sigma(3 3)=  7.43615584E+02  sigma(2 1)=  4.83932162E+00

================================================================================
== DATASET  2 ==================================================================
-   nproc =    1

 Exchange-correlation functional for the present dataset will be:
  LDA: Perdew-Wang 92 LSD fit to Ceperley-Alder data - ixc=7
 Citation for XC functional:
  J.P.Perdew and Y.Wang, PRB 45, 13244 (1992)

 Real(R)+Recip(G) space primitive vectors, cartesian coordinates (Bohr,Bohr^-1):
 R(1)=  0.0000000  3.9600000  3.9600000  G(1)= -0.1262626  0.1262626  0.1262626
 R(2)=  3.9600000  0.0000000  3.9600000  G(2)=  0.1262626 -0.1262626  0.1262626
 R(3)=  7.9200000  7.9200000  0.0000000  G(3)=  0.0631313  0.0631313 -0.0631313
 Unit cell volume ucvol=  2.4839654E+02 bohr^3
 Angles (23,13,12)=  6.00000000E+01  6.00000000E+01  6.00000000E+01 degrees

 Coarse grid specifications (used for wave-functions):

 getcut: wavevector=  0.0000  0.0000  0.0000  ngfft=  16  16  32
         ecut(hartree)=      8.000   => boxcut(ratio)=   2.24388

 getcut : COMMENT -
  Note that boxcut > 2.2 ; recall that boxcut=Gcut(box)/Gcut(sphere) = 2
  is sufficient for exact treatment of convolution.
  Such a large boxcut is a waste : you could raise ecut
  e.g. ecut=   10.069997 Hartrees makes boxcut=2


 Fine grid specifications (used for densities):

 getcut: wavevector=  0.0000  0.0000  0.0000  ngfft=  16  16  32
[...]
                       1.000000  1.000000  1.000000  1.000000  1.000000  1.000000
                       1.000000  1.000000  1.000000  1.000000  1.000000  1.000000
                       0.000000  0.000000  0.000000  0.000000  0.000000  0.000000
                       0.000000  0.000000  0.000000  0.000000  0.000000  0.000000
                       1.000000  1.000000  1.000000  1.000000  1.000000  1.000000
                       1.000000  1.000000  1.000000  1.000000  1.000000  1.000000
                       1.000000  1.000000  1.000000  1.000000  1.000000  1.000000
                       1.000000  1.000000  1.000000  1.000000  1.000000  1.000000
                       1.000000  1.000000  1.000000  1.000000  1.000000  1.000000
                       1.000000  1.000000  1.000000  1.000000  1.000000  1.000000
                       1.000000  1.000000  1.000000  1.000000  1.000000  1.000000
                       1.000000  1.000000  1.000000  1.000000  1.000000  1.000000
                       0.000000  0.000000  0.000000  0.000000  0.000000  0.000000
                       0.000000  0.000000  0.000000  0.000000  0.000000  0.000000
                       1.000000  1.000000  1.000000  1.000000  1.000000  1.000000
                       1.000000  1.000000  1.000000  1.000000  1.000000  1.000000
                       1.000000  1.000000  1.000000  1.000000  1.000000  1.000000
                       1.000000  1.000000  1.000000  1.000000  1.000000  1.000000
                       1.000000  1.000000  1.000000  1.000000  1.000000  1.000000
                       1.000000  1.000000  1.000000  1.000000  1.000000  1.000000
                       1.000000  1.000000  1.000000  1.000000  1.000000  1.000000
                       1.000000  1.000000  1.000000  1.000000  1.000000  1.000000
                       0.000000  0.000000  0.000000  0.000000  0.000000  0.000000
                       0.000000  0.000000  0.000000  0.000000  0.000000  0.000000
                       1.000000  1.000000  1.000000  1.000000  1.000000  1.000000
                       1.000000  1.000000  1.000000  1.000000  1.000000  1.000000
                       1.000000  1.000000  1.000000  1.000000  1.000000  1.000000
                       1.000000  1.000000  1.000000  1.000000  1.000000  1.000000
                       1.000000  1.000000  1.000000  1.000000  1.000000  1.000000
                       1.000000  1.000000  1.000000  1.000000  1.000000  1.000000
                       1.000000  1.000000  1.000000  1.000000  1.000000  1.000000
                       1.000000  1.000000  1.000000  1.000000  1.000000  1.000000
                       0.000000  0.000000  0.000000  0.000000  0.000000  0.000000
                       0.000000  0.000000  0.000000  0.000000  0.000000  0.000000
                       1.000000  1.000000  1.000000  1.000000  1.000000  1.000000
                       1.000000  1.000000  1.000000  1.000000  1.000000  1.000000
                       1.000000  1.000000  1.000000  1.000000  1.000000  1.000000
                       1.000000  1.000000  1.000000  1.000000  1.000000  1.000000
                       1.000000  1.000000  1.000000  1.000000  1.000000  1.000000
                       1.000000  1.000000  1.000000  1.000000  1.000000  1.000000
                       1.000000  1.000000  1.000000  1.000000  1.000000  1.000000
                       1.000000  1.000000  1.000000  1.000000  1.000000  1.000000
                       0.000000  0.000000  0.000000  0.000000  0.000000  0.000000
                       0.000000  0.000000  0.000000  0.000000  0.000000  0.000000
           occopt           7
        optforces           1
        pawcpxocc1          1
        pawcpxocc2          1
        pawcpxocc3          1
        pawcpxocc4          2
        pawcpxocc5          2
        pawcpxocc6          2
        pawecutdg      1.00000000E+01 Hartree
        pawprtvol           3
        pawspnorb1          0
        pawspnorb2          0
        pawspnorb3          0
        pawspnorb4          0
        pawspnorb5          0
        pawspnorb6          1
           prtden           0
        prtdensph1          0
        prtdensph2          0
        prtdensph3          1
        prtdensph4          0
        prtdensph5          0
        prtdensph6          0
           prteig           0
            prtwf           0
            rprim      0.0000000000E+00  5.0000000000E-01  5.0000000000E-01
                       5.0000000000E-01  0.0000000000E+00  5.0000000000E-01
                       1.0000000000E+00  1.0000000000E+00  0.0000000000E+00
           shiftk      5.00000000E-01  5.00000000E-01  5.00000000E-01
          spgroup1        166
          spgroup2        166
          spgroup3        166
          spgroup4          0
          spgroup5          0
          spgroup6          0
           spinat      0.0000000000E+00  0.0000000000E+00  1.0000000000E+00
                       0.0000000000E+00  0.0000000000E+00 -1.0000000000E+00
                       0.0000000000E+00  0.0000000000E+00  0.0000000000E+00
                       0.0000000000E+00  0.0000000000E+00  0.0000000000E+00
           strten1     2.5274984219E-02  2.5274984219E-02  2.5274984219E-02
                      -1.6448522621E-04 -1.6448522621E-04  1.6448522621E-04
           strten2     2.6631712973E-02  2.6631712973E-02  2.6631712973E-02
                      -1.1642366120E-04 -1.1642366120E-04  1.1642366120E-04
           strten3     2.6629064184E-02  2.6629064184E-02  2.6629064184E-02
                      -1.1640047479E-04 -1.1640047479E-04  1.1640047479E-04
           strten4     2.6768946768E-02  2.6768946756E-02  2.6940391383E-02
                      -1.3002323387E-04 -1.3004018185E-04  6.6838952546E-05
           strten5     2.5308952489E-02  2.5308949662E-02  2.5200991637E-02
                      -2.1074849265E-04 -2.1073345589E-04  7.1746306118E-05
           strten6     2.6768760460E-02  2.6768714816E-02  2.6944252470E-02
                      -1.3054094795E-04 -1.3057400200E-04  6.7143653215E-05
           symafm1       1   -1    1   -1    1   -1    1   -1    1   -1
                         1   -1    1   -1    1   -1    1   -1    1   -1
                         1   -1    1   -1
           symafm2       1   -1    1   -1    1   -1    1   -1    1   -1
                         1   -1    1   -1    1   -1    1   -1    1   -1
                         1   -1    1   -1
           symafm3       1   -1    1   -1    1   -1    1   -1    1   -1
                         1   -1    1   -1    1   -1    1   -1    1   -1
                         1   -1    1   -1
           symafm4       1   -1
           symafm5       1   -1
           symafm6       1   -1
           symrel1     1  0  0   0  1  0   0  0  1       1  0  0   0  1  0   0  0  1
                      -1  0  0   0 -1  0   0  0 -1      -1  0  0   0 -1  0   0  0 -1
                       0  1  0   1  0  0   0  0  1       0  1  0   1  0  0   0  0  1
                       0 -1  0  -1  0  0   0  0 -1       0 -1  0  -1  0  0   0  0 -1
                       0 -1  0   1 -1  0   0 -2  1       0 -1  0   1 -1  0   0 -2  1
                       0  1  0  -1  1  0   0  2 -1       0  1  0  -1  1  0   0  2 -1
                       1 -1  0   0 -1  0   0 -2  1       1 -1  0   0 -1  0   0 -2  1
                      -1  1  0   0  1  0   0  2 -1      -1  1  0   0  1  0   0  2 -1
                      -1  1  0  -1  0  0  -2  0  1      -1  1  0  -1  0  0  -2  0  1
                       1 -1  0   1  0  0   2  0 -1       1 -1  0   1  0  0   2  0 -1
                      -1  0  0  -1  1  0  -2  0  1      -1  0  0  -1  1  0  -2  0  1
                       1  0  0   1 -1  0   2  0 -1       1  0  0   1 -1  0   2  0 -1
           symrel2     1  0  0   0  1  0   0  0  1       1  0  0   0  1  0   0  0  1
                      -1  0  0   0 -1  0   0  0 -1      -1  0  0   0 -1  0   0  0 -1
                       0  1  0   1  0  0   0  0  1       0  1  0   1  0  0   0  0  1
                       0 -1  0  -1  0  0   0  0 -1       0 -1  0  -1  0  0   0  0 -1
                       0 -1  0   1 -1  0   0 -2  1       0 -1  0   1 -1  0   0 -2  1
                       0  1  0  -1  1  0   0  2 -1       0  1  0  -1  1  0   0  2 -1
                       1 -1  0   0 -1  0   0 -2  1       1 -1  0   0 -1  0   0 -2  1
                      -1  1  0   0  1  0   0  2 -1      -1  1  0   0  1  0   0  2 -1
                      -1  1  0  -1  0  0  -2  0  1      -1  1  0  -1  0  0  -2  0  1
                       1 -1  0   1  0  0   2  0 -1       1 -1  0   1  0  0   2  0 -1
                      -1  0  0  -1  1  0  -2  0  1      -1  0  0  -1  1  0  -2  0  1
                       1  0  0   1 -1  0   2  0 -1       1  0  0   1 -1  0   2  0 -1
           symrel3     1  0  0   0  1  0   0  0  1       1  0  0   0  1  0   0  0  1
                      -1  0  0   0 -1  0   0  0 -1      -1  0  0   0 -1  0   0  0 -1
                       0  1  0   1  0  0   0  0  1       0  1  0   1  0  0   0  0  1
                       0 -1  0  -1  0  0   0  0 -1       0 -1  0  -1  0  0   0  0 -1
                       0 -1  0   1 -1  0   0 -2  1       0 -1  0   1 -1  0   0 -2  1
                       0  1  0  -1  1  0   0  2 -1       0  1  0  -1  1  0   0  2 -1
                       1 -1  0   0 -1  0   0 -2  1       1 -1  0   0 -1  0   0 -2  1
                      -1  1  0   0  1  0   0  2 -1      -1  1  0   0  1  0   0  2 -1
                      -1  1  0  -1  0  0  -2  0  1      -1  1  0  -1  0  0  -2  0  1
                       1 -1  0   1  0  0   2  0 -1       1 -1  0   1  0  0   2  0 -1
                      -1  0  0  -1  1  0  -2  0  1      -1  0  0  -1  1  0  -2  0  1
                       1  0  0   1 -1  0   2  0 -1       1  0  0   1 -1  0   2  0 -1
           symrel4     1  0  0   0  1  0   0  0  1       1  0  0   0  1  0   0  0  1
           symrel5     1  0  0   0  1  0   0  0  1       1  0  0   0  1  0   0  0  1
           symrel6     1  0  0   0  1  0   0  0  1       1  0  0   0  1  0   0  0  1
            tnons1     0.0000000  0.0000000  0.0000000     0.0000000  0.0000000  0.5000000
                       0.0000000  0.0000000  0.0000000     0.0000000  0.0000000  0.5000000
                       0.0000000  0.0000000  0.0000000     0.0000000  0.0000000  0.5000000
                       0.0000000  0.0000000  0.0000000     0.0000000  0.0000000  0.5000000
                       0.0000000  0.0000000  0.0000000     0.0000000  0.0000000  0.5000000
                       0.0000000  0.0000000  0.0000000     0.0000000  0.0000000  0.5000000
                       0.0000000  0.0000000  0.0000000     0.0000000  0.0000000  0.5000000
                       0.0000000  0.0000000  0.0000000     0.0000000  0.0000000  0.5000000
                       0.0000000  0.0000000  0.0000000     0.0000000  0.0000000  0.5000000
                       0.0000000  0.0000000  0.0000000     0.0000000  0.0000000  0.5000000
                       0.0000000  0.0000000  0.0000000     0.0000000  0.0000000  0.5000000
                       0.0000000  0.0000000  0.0000000     0.0000000  0.0000000  0.5000000
            tnons2     0.0000000  0.0000000  0.0000000     0.0000000  0.0000000  0.5000000
                       0.0000000  0.0000000  0.0000000     0.0000000  0.0000000  0.5000000
                       0.0000000  0.0000000  0.0000000     0.0000000  0.0000000  0.5000000
                       0.0000000  0.0000000  0.0000000     0.0000000  0.0000000  0.5000000
                       0.0000000  0.0000000  0.0000000     0.0000000  0.0000000  0.5000000
                       0.0000000  0.0000000  0.0000000     0.0000000  0.0000000  0.5000000
                       0.0000000  0.0000000  0.0000000     0.0000000  0.0000000  0.5000000
                       0.0000000  0.0000000  0.0000000     0.0000000  0.0000000  0.5000000
                       0.0000000  0.0000000  0.0000000     0.0000000  0.0000000  0.5000000
                       0.0000000  0.0000000  0.0000000     0.0000000  0.0000000  0.5000000
                       0.0000000  0.0000000  0.0000000     0.0000000  0.0000000  0.5000000
                       0.0000000  0.0000000  0.0000000     0.0000000  0.0000000  0.5000000
            tnons3     0.0000000  0.0000000  0.0000000     0.0000000  0.0000000  0.5000000
                       0.0000000  0.0000000  0.0000000     0.0000000  0.0000000  0.5000000
                       0.0000000  0.0000000  0.0000000     0.0000000  0.0000000  0.5000000
                       0.0000000  0.0000000  0.0000000     0.0000000  0.0000000  0.5000000
                       0.0000000  0.0000000  0.0000000     0.0000000  0.0000000  0.5000000
                       0.0000000  0.0000000  0.0000000     0.0000000  0.0000000  0.5000000
                       0.0000000  0.0000000  0.0000000     0.0000000  0.0000000  0.5000000
                       0.0000000  0.0000000  0.0000000     0.0000000  0.0000000  0.5000000
                       0.0000000  0.0000000  0.0000000     0.0000000  0.0000000  0.5000000
                       0.0000000  0.0000000  0.0000000     0.0000000  0.0000000  0.5000000
                       0.0000000  0.0000000  0.0000000     0.0000000  0.0000000  0.5000000
                       0.0000000  0.0000000  0.0000000     0.0000000  0.0000000  0.5000000
            tnons4     0.0000000  0.0000000  0.0000000     0.0000000  0.0000000  0.5000000
            tnons5     0.0000000  0.0000000  0.0000000     0.0000000  0.0000000  0.5000000
            tnons6     0.0000000  0.0000000  0.0000000     0.0000000  0.0000000  0.5000000
           tolvrs      1.00000000E-07
           tsmear      1.50000000E-02 Hartree
            typat      1  1  2  2
            upawu1     0.00000000E+00  0.00000000E+00 Hartree
            upawu2     3.00000000E-01  0.00000000E+00 Hartree
            upawu3     3.00000000E-01  0.00000000E+00 Hartree
            upawu4     3.00000000E-01  0.00000000E+00 Hartree
            upawu5     0.00000000E+00  0.00000000E+00 Hartree
            upawu6     3.00000000E-01  0.00000000E+00 Hartree
        usedmatpu1          0
        usedmatpu2          3
        usedmatpu3          3
        usedmatpu4          3
        usedmatpu5          3
        usedmatpu6          3
          usepawu1          0
          usepawu2          1
          usepawu3          1
          usepawu4          1
          usepawu5          1
          usepawu6          1
           useylm           1
              wtk1       0.25000    0.50000    0.25000
              wtk2       0.25000    0.50000    0.25000
              wtk3       0.25000    0.50000    0.25000
              wtk4       0.12500    0.12500    0.12500    0.12500    0.12500    0.12500
                         0.12500    0.12500
              wtk5       0.12500    0.12500    0.12500    0.12500    0.12500    0.12500
                         0.12500    0.12500
              wtk6       0.12500    0.12500    0.12500    0.12500    0.12500    0.12500
                         0.12500    0.12500
           xangst      0.0000000000E+00  0.0000000000E+00  0.0000000000E+00
                       2.0955417460E+00  2.0955417460E+00  0.0000000000E+00
                       2.0955417460E+00  2.0955417460E+00  2.0955417460E+00
                       4.1910834920E+00  4.1910834920E+00  2.0955417460E+00
            xcart      0.0000000000E+00  0.0000000000E+00  0.0000000000E+00
                       3.9600000000E+00  3.9600000000E+00  0.0000000000E+00
                       3.9600000000E+00  3.9600000000E+00  3.9600000000E+00
                       7.9200000000E+00  7.9200000000E+00  3.9600000000E+00
             xred      0.0000000000E+00  0.0000000000E+00  0.0000000000E+00
                       0.0000000000E+00  0.0000000000E+00  5.0000000000E-01
                       5.0000000000E-01  5.0000000000E-01  2.5000000000E-01
                       5.0000000000E-01  5.0000000000E-01  7.5000000000E-01
            znucl       28.00000    8.00000

================================================================================


- Timing analysis has been suppressed with timopt=0



================================================================================

 Suggested references for the acknowledgment of ABINIT usage.

 The users of ABINIT have little formal obligations with respect to the ABINIT group
 (those specified in the GNU General Public License, http://www.gnu.org/copyleft/gpl.txt).
 However, it is common practice in the scientific literature,
 to acknowledge the efforts of people that have made the research possible.
 In this spirit, please find below suggested citations of work written by ABINIT developers,
 corresponding to implementations inside of ABINIT that you have used in the present run.
 Note also that it will be of great value to readers of publications presenting these results,
 to read papers enabling them to understand the theoretical formalism and details
 of the ABINIT implementation.
 For information on why they are suggested, see also http://www.abinit.org/about/?text=acknowledgments.

 [1] Gamma and beta cerium: LDA+U calculations of ground-state parameters.
 B. Amadon, F. Jollet and M. Torrent, Phys. Rev. B 77, 155104 (2008).
 Comment : LDA+U calculations, usepawu/=0. Strong suggestion to cite this paper.

 [2] Implementation of the Projector Augmented-Wave Method in the ABINIT code.
 M. Torrent, F. Jollet, F. Bottin, G. Zerah, and X. Gonze Comput. Mat. Science 42, 337, (2008).
 Comment : PAW calculations. Strong suggestion to cite this paper.

 [3] ABINIT : First-principles approach of materials and nanosystem properties.
 X. Gonze, B. Amadon, P.-M. Anglade, J.-M. Beuken, F. Bottin, P. Boulanger, F. Bruneval,
 D. Caliste, R. Caracas, M. Cote, T. Deutsch, L. Genovese, Ph. Ghosez, M. Giantomassi
 S. Goedecker, D.R. Hamann, P. Hermet, F. Jollet, G. Jomard, S. Leroux, M. Mancini, S. Mazevet,
 M.J.T. Oliveira, G. Onida, Y. Pouillon, T. Rangel, G.-M. Rignanese, D. Sangalli, R. Shaltaf,
 M. Torrent, M.J. Verstraete, G. Zerah, J.W. Zwanziger
 Computer Phys. Comm. 180, 2582-2615 (2009).
 Comment : the third generic paper describing the ABINIT project.
 Note that a version of this paper, that is not formatted for Computer Phys. Comm. 
 is available at http://www.abinit.org/about/ABINIT_CPC_v10.pdf .
 The licence allows the authors to put it on the Web.

 [4] A brief introduction to the ABINIT software package.
 X. Gonze, G.-M. Rignanese, M. Verstraete, J.-M. Beuken, Y. Pouillon, R. Caracas, F. Jollet,
 M. Torrent, G. Zerah, M. Mikami, Ph. Ghosez, M. Veithen, J.-Y. Raty, V. Olevano, F. Bruneval,
 L. Reining, R. Godby, G. Onida, D.R. Hamann, and D.C. Allan.
 Z. Kristallogr. 220, 558-562 (2005).
 Comment : the second generic paper describing the ABINIT project. Note that this paper
 should be cited especially if you are using the GW part of ABINIT, as several authors
 of this part are not in the list of authors of the first or third paper.
 The .pdf of the latter paper is available at http://www.abinit.org/about/zfk_0505-06_558-562.pdf.
 Note that it should not redistributed (Copyright by Oldenburg Wissenshaftverlag,
 the licence allows the authors to put it on the Web).


 And optionally :

 [5] First-principles computation of material properties : the ABINIT software project. 
 X. Gonze, J.-M. Beuken, R. Caracas, F. Detraux, M. Fuchs, G.-M. Rignanese, L. Sindic,
 M. Verstraete, G. Zerah, F. Jollet, M. Torrent, A. Roy, M. Mikami, Ph. Ghosez, J.-Y. Raty, D.C. Allan.
 Computational Materials Science 25, 478-492 (2002). http://dx.doi.org/10.1016/S0927-0256(02)00325-7
 Comment : the original paper describing the ABINIT project.
-
- Proc.   0 individual time (sec): cpu=        140.3  wall=        147.5

================================================================================

 Calculation completed.
.Delivered   11 WARNINGs and   3 COMMENTs to log file.
+Overall time at end (sec) : cpu=        140.3  wall=        147.5
