
 **** DERIVATIVE DATABASE ****    
+DDB, Version number    100401

 Si EIGR2D file for elphon calculation                                                                                                                                                                                                                                   

    usepaw         0
     natom         2
      nkpt        32
    nsppol         1
      nsym         1
    ntypat         1
    occopt         1
     nband         5
     acell  0.10200586500707D+02  0.10200586500707D+02  0.10200586500707D+02
       amu  0.28085500000000D+02
   dilatmx  0.10000000000000D+01
      ecut  0.50000000000000D+01
    ecutsm  0.50000000000000D+00
     intxc         0
      iscf         7
       ixc         1
       kpt -0.25000000000000D+00  0.50000000000000D+00  0.00000000000000D+00
            0.50000000000000D+00 -0.25000000000000D+00  0.00000000000000D+00
           -0.25000000000000D+00 -0.25000000000000D+00  0.25000000000000D+00
           -0.25000000000000D+00  0.00000000000000D+00  0.00000000000000D+00
            0.50000000000000D+00  0.25000000000000D+00  0.00000000000000D+00
           -0.25000000000000D+00  0.25000000000000D+00  0.25000000000000D+00
            0.25000000000000D+00  0.50000000000000D+00  0.00000000000000D+00
            0.50000000000000D+00  0.50000000000000D+00  0.25000000000000D+00
           -0.25000000000000D+00  0.50000000000000D+00  0.50000000000000D+00
            0.00000000000000D+00 -0.25000000000000D+00  0.00000000000000D+00
            0.25000000000000D+00 -0.25000000000000D+00  0.25000000000000D+00
            0.50000000000000D+00 -0.25000000000000D+00  0.50000000000000D+00
           -0.25000000000000D+00 -0.25000000000000D+00 -0.25000000000000D+00
            0.25000000000000D+00  0.00000000000000D+00  0.00000000000000D+00
            0.50000000000000D+00  0.00000000000000D+00  0.25000000000000D+00
           -0.25000000000000D+00  0.00000000000000D+00  0.50000000000000D+00
            0.00000000000000D+00  0.25000000000000D+00  0.00000000000000D+00
            0.25000000000000D+00  0.25000000000000D+00  0.25000000000000D+00
            0.50000000000000D+00  0.25000000000000D+00  0.50000000000000D+00
           -0.25000000000000D+00  0.25000000000000D+00 -0.25000000000000D+00
            0.00000000000000D+00  0.50000000000000D+00  0.25000000000000D+00
            0.25000000000000D+00  0.50000000000000D+00  0.50000000000000D+00
            0.50000000000000D+00  0.50000000000000D+00 -0.25000000000000D+00
            0.00000000000000D+00 -0.25000000000000D+00  0.50000000000000D+00
            0.25000000000000D+00 -0.25000000000000D+00 -0.25000000000000D+00
            0.00000000000000D+00  0.00000000000000D+00  0.25000000000000D+00
            0.25000000000000D+00  0.00000000000000D+00  0.50000000000000D+00
            0.50000000000000D+00  0.00000000000000D+00 -0.25000000000000D+00
            0.00000000000000D+00  0.25000000000000D+00  0.50000000000000D+00
            0.25000000000000D+00  0.25000000000000D+00 -0.25000000000000D+00
            0.00000000000000D+00  0.50000000000000D+00 -0.25000000000000D+00
            0.00000000000000D+00  0.00000000000000D+00 -0.25000000000000D+00
    kptnrm  0.10000000000000D+01
     ngfft        16   16   16
    nspden         1
   nspinor         1
       occ  0.20000000000000D+01  0.20000000000000D+01  0.20000000000000D+01
            0.20000000000000D+01  0.00000000000000D+00
     rprim  0.00000000000000D+00  0.50000000000000D+00  0.50000000000000D+00
            0.50000000000000D+00  0.00000000000000D+00  0.50000000000000D+00
            0.50000000000000D+00  0.50000000000000D+00  0.00000000000000D+00
     sciss  0.00000000000000D+00
    spinat  0.00000000000000D+00  0.00000000000000D+00  0.00000000000000D+00
            0.00000000000000D+00  0.00000000000000D+00  0.00000000000000D+00
    symafm         1
    symrel         1    0    0    0    1    0    0    0    1
     tnons  0.00000000000000D+00  0.00000000000000D+00  0.00000000000000D+00
    tolwfr  0.10000000000000D+01
   tphysel  0.00000000000000D+00
    tsmear  0.40000000000000D-01
     typat         1    1
       wtk  0.31250000000000D-01  0.31250000000000D-01  0.31250000000000D-01
            0.31250000000000D-01  0.31250000000000D-01  0.31250000000000D-01
            0.31250000000000D-01  0.31250000000000D-01  0.31250000000000D-01
            0.31250000000000D-01  0.31250000000000D-01  0.31250000000000D-01
            0.31250000000000D-01  0.31250000000000D-01  0.31250000000000D-01
            0.31250000000000D-01  0.31250000000000D-01  0.31250000000000D-01
            0.31250000000000D-01  0.31250000000000D-01  0.31250000000000D-01
            0.31250000000000D-01  0.31250000000000D-01  0.31250000000000D-01
            0.31250000000000D-01  0.31250000000000D-01  0.31250000000000D-01
            0.31250000000000D-01  0.31250000000000D-01  0.31250000000000D-01
            0.31250000000000D-01  0.31250000000000D-01
      xred  0.00000000000000D+00  0.00000000000000D+00  0.00000000000000D+00
            0.25000000000000D+00  0.25000000000000D+00  0.25000000000000D+00
     znucl  0.14000000000000D+02
      zion  0.40000000000000D+01
 
  Description of the potentials (KB energies)
  vrsio8 (for pseudopotentials)=100401
  usepaw =  0
  dimekb =  2       lmnmax=  2
  Atom type=    1   pspso=  0   nekb=   2
  iln lpsang iproj  ekb(:)
     1     0     1     3.2879487E+00  0.0000000E+00
     2     1     1     0.0000000E+00  1.8498858E+00
 
 **** Database of total energy derivatives ****
 Number of data blocks=    2
  
 2nd eigenvalue derivatives   - # elements :      36
 qpt  0.00000000E+00  0.00000000E+00  0.00000000E+00   1.0
 K-point: -2.50000000E-01  5.00000000E-01  0.00000000E+00
 Band:  1
   1   1   1   1 -0.31471783353713D+01 -0.21467203015213D-16
   2   1   1   1 -0.17593245116824D+01 -0.47042167487444D-01
   3   1   1   1 -0.14449681161819D+01 -0.44857166900686D-06
   1   2   1   1  0.13722330184409D+01 -0.36738931209410D-01
   2   2   1   1  0.81750255866525D+00 -0.10374092047034D+00
   3   2   1   1  0.57947399737072D+00 -0.15276147536511D+00
   1   1   2   1 -0.17593245116824D+01  0.47042167487444D-01
   2   1   2   1 -0.29000279672446D+01 -0.17347234759768D-16
   3   1   2   1 -0.14449680478434D+01 -0.78118703935927D-06
   1   2   2   1  0.81750276638585D+00 -0.10374426199018D+00
   2   2   2   1  0.84250183209471D+00  0.28561058218675D+00
   3   2   2   1  0.57947440905787D+00 -0.15276163596969D+00
   1   1   3   1 -0.14449681161819D+01  0.44857166900339D-06
   2   1   3   1 -0.14449680478434D+01  0.78118703935754D-06
   3   1   3   1 -0.28899375100861D+01 -0.55511151231258D-16
   1   2   3   1  0.57947388036204D+00 -0.15276169807084D+00
   2   2   3   1  0.57947432819221D+00 -0.15276196969396D+00
   3   2   3   1  0.11589487856181D+01 -0.30552218289802D+00
   1   1   1   2  0.13722330184409D+01  0.36738931209410D-01
   2   1   1   2  0.81750276638585D+00  0.10374426199018D+00
   3   1   1   2  0.57947388036204D+00  0.15276169807084D+00
   1   2   1   2 -0.31471868687900D+01 -0.81098322501916D-16
   2   2   1   2 -0.17593264167633D+01  0.47038737474444D-01
   3   2   1   2 -0.14449743915334D+01  0.24740607800337D-06
   1   1   2   2  0.81750255866525D+00  0.10374092047034D+00
   2   1   2   2  0.84250183209471D+00 -0.28561058218675D+00
   3   1   2   2  0.57947432819221D+00  0.15276196969396D+00
   1   2   2   2 -0.17593264167633D+01 -0.47038737474444D-01
   2   2   2   2 -0.29000358397595D+01  0.30357660829594D-16
   3   2   2   2 -0.14449742034689D+01  0.50428599747655D-06
   1   1   3   2  0.57947399737072D+00  0.15276147536511D+00
   2   1   3   2  0.57947440905787D+00  0.15276163596969D+00
   3   1   3   2  0.11589487856181D+01  0.30552218289802D+00
   1   2   3   2 -0.14449743915334D+01 -0.24740607794092D-06
   2   2   3   2 -0.14449742034689D+01 -0.50428599745573D-06
   3   2   3   2 -0.28899488339131D+01  0.71991024253037D-16
 Band:  2
   1   1   1   1 -0.17173584728460D+01  0.11796119636642D-15
   2   1   1   1 -0.71406145676374D+00 -0.45312555269682D-01
   3   1   1   1 -0.12293565823721D+01 -0.73002654483585D-06
   1   2   1   1 -0.42300954946480D+00  0.14486287118474D+00
   2   2   1   1 -0.30196230530550D+00  0.33053045076975D+00
   3   2   1   1  0.24977371920959D+00  0.18280723742589D+00
   1   1   2   1 -0.71406145676374D+00  0.45312555269682D-01
   2   1   2   1 -0.21801166959300D+01 -0.13877787807814D-15
   3   1   2   1 -0.12293569459425D+01 -0.10657076946307D-05
   1   2   2   1 -0.30196221007022D+00  0.33052490022427D+00
   2   2   2   1  0.38447360812460D+00  0.69531521680701D+00
   3   2   2   1  0.24977333945657D+00  0.18280710686520D+00
   1   1   3   1 -0.12293565823721D+01  0.73002654479595D-06
   2   1   3   1 -0.12293569459425D+01  0.10657076946654D-05
   3   1   3   1 -0.24587129217059D+01  0.11275702593849D-15
   1   2   3   1  0.24977401862681D+00  0.18280685584680D+00
   2   2   3   1  0.24977370586169D+00  0.18280618185378D+00
   3   2   3   1  0.49954779010708D+00  0.36561500653148D+00
   1   1   1   2 -0.42300954946480D+00 -0.14486287118474D+00
   2   1   1   2 -0.30196221007022D+00 -0.33052490022427D+00
   3   1   1   2  0.24977401862681D+00 -0.18280685584680D+00
   1   2   1   2 -0.17173470419811D+01 -0.62450045135165D-16
   2   2   1   2 -0.71406010819344D+00  0.45306649473816D-01
   3   2   1   2 -0.12293463746320D+01  0.37038201374879D-06
   1   1   2   2 -0.30196230530550D+00 -0.33053045076975D+00
   2   1   2   2  0.38447360812460D+00 -0.69531521680701D+00
   3   1   2   2  0.24977370586169D+00 -0.18280618185378D+00
   1   2   2   2 -0.71406010819344D+00 -0.45306649473816D-01
   2   2   2   2 -0.21801143600829D+01 -0.11449174941447D-15
   3   2   2   2 -0.12293470436946D+01  0.41453496451427D-06
   1   1   3   2  0.24977371920959D+00 -0.18280723742589D+00
   2   1   3   2  0.24977333945657D+00 -0.18280710686520D+00
   3   1   3   2  0.49954779010708D+00 -0.36561500653148D+00
   1   2   3   2 -0.12293463746320D+01 -0.37038201379737D-06
   2   2   3   2 -0.12293470436946D+01 -0.41453496450040D-06
   3   2   3   2 -0.24586927840747D+01 -0.57245874707235D-16
 Band:  3
   1   1   1   1 -0.24742877533174D+01 -0.42587461335231D-15
   2   1   1   1 -0.10932484092868D+01 -0.10758912961294D+00
   3   1   1   1 -0.14286378716583D+01 -0.12030062299633D-05
   1   2   1   1  0.50779884860697D+00  0.39543665709656D+00
   2   2   1   1  0.30646087881420D+00  0.15523271299461D+00
   3   2   1   1  0.76424621905303D+00  0.23821587187239D+00
   1   1   2   1 -0.10932484092868D+01  0.10758912961294D+00
   2   1   2   1 -0.20587992229240D+01  0.10755285551056D-15
   3   1   2   1 -0.14286379755672D+01 -0.27422542838378D-06
   1   2   2   1  0.30646084643757D+00  0.15523135899297D+00
   2   2   2   1  0.28830445278024D+00 -0.62179995950076D-01
   3   2   2   1  0.76424682034270D+00  0.23821510308579D+00
   1   1   3   1 -0.14286378716583D+01  0.12030062300952D-05
   2   1   3   1 -0.14286379755672D+01  0.27422542850174D-06
   3   1   3   1 -0.28572772542539D+01  0.12143064331838D-16
   1   2   3   1  0.76424699023012D+00  0.23821364742523D+00
   2   2   3   1  0.76424736137352D+00  0.23821485090135D+00
   3   2   3   1  0.15284946445332D+01  0.47642973847927D+00
   1   1   1   2  0.50779884860697D+00 -0.39543665709656D+00
   2   1   1   2  0.30646084643757D+00 -0.15523135899297D+00
   3   1   1   2  0.76424699023012D+00 -0.23821364742523D+00
   1   2   1   2 -0.24742985906696D+01  0.16132928326584D-15
   2   2   1   2 -0.10932476309042D+01  0.10758282208991D+00
   3   2   1   2 -0.14286335895932D+01 -0.94086258450692D-06
   1   1   2   2  0.30646087881420D+00 -0.15523271299461D+00
   2   1   2   2  0.28830445278024D+00  0.62179995950076D-01
   3   1   2   2  0.76424736137352D+00 -0.23821485090135D+00
   1   2   2   2 -0.10932476309042D+01 -0.10758282208991D+00
   2   2   2   2 -0.20587976671101D+01 -0.38163916471490D-16
   3   2   2   2 -0.14286330104852D+01 -0.13564264061228D-06
   1   1   3   2  0.76424621905303D+00 -0.23821587187239D+00
   2   1   3   2  0.76424682034270D+00 -0.23821510308579D+00
   3   1   3   2  0.15284946445332D+01 -0.47642973847927D+00
   1   2   3   2 -0.14286335895932D+01  0.94086258448957D-06
   2   2   3   2 -0.14286330104852D+01  0.13564264057065D-06
   3   2   3   2 -0.28572669457045D+01  0.17347234759768D-17
 Band:  4
   1   1   1   1 -0.17928633086966D+01 -0.10061396160665D-15
   2   1   1   1 -0.10139650050440D+01  0.26843556524152D-01
   3   1   1   1 -0.91225253956436D+00 -0.98911812052381D-06
   1   2   1   1 -0.26704421766026D+00 -0.31078566694713D+00
   2   2   1   1 -0.20721181985095D+00 -0.25154698683451D-01
   3   2   1   1 -0.13742881841433D+01  0.23879582175076D-01
   1   1   2   1 -0.10139650050440D+01 -0.26843556524152D-01
   2   1   2   1 -0.17845879358474D+01  0.85868812060852D-16
   3   1   2   1 -0.91225216016992D+00 -0.26558398783218D-06
   1   2   2   1 -0.20721187533846D+00 -0.25155219185851D-01
   2   2   2   1 -0.17168089918419D+00  0.72969260900417D-01
   3   2   2   1 -0.13742883252473D+01  0.23878820313622D-01
   1   1   3   1 -0.91225253956436D+00  0.98911812018727D-06
   2   1   3   1 -0.91225216016992D+00  0.26558398758498D-06
   3   1   3   1 -0.18245021990558D+01 -0.16653345369377D-15
   1   2   3   1 -0.13742891556445D+01  0.23877972701355D-01
   2   2   3   1 -0.13742892282055D+01  0.23878255962912D-01
   3   2   3   1 -0.27485792332352D+01  0.47757373805555D-01
   1   1   1   2 -0.26704421766026D+00  0.31078566694713D+00
   2   1   1   2 -0.20721187533846D+00  0.25155219185851D-01
   3   1   1   2 -0.13742891556445D+01 -0.23877972701355D-01
   1   2   1   2 -0.17928743989717D+01  0.12836953722228D-15
   2   2   1   2 -0.10139763918520D+01 -0.26844265792471D-01
   3   2   1   2 -0.91227748002850D+00 -0.95414351502549D-06
   1   1   2   2 -0.20721181985095D+00  0.25154698683451D-01
   2   1   2   2 -0.17168089918419D+00 -0.72969260900417D-01
   3   1   2   2 -0.13742892282055D+01 -0.23878255962912D-01
   1   2   2   2 -0.10139763918520D+01  0.26844265792472D-01
   2   2   2   2 -0.17845987911904D+01  0.62450045135165D-16
   3   2   2   2 -0.91227745118156D+00 -0.34917099980976D-06
   1   1   3   2 -0.13742881841433D+01 -0.23879582175076D-01
   2   1   3   2 -0.13742883252473D+01 -0.23878820313622D-01
   3   1   3   2 -0.27485792332352D+01 -0.47757373805554D-01
   1   2   3   2 -0.91227748002850D+00  0.95414351552683D-06
   2   2   3   2 -0.91227745118156D+00  0.34917099990951D-06
   3   2   3   2 -0.18245544134049D+01 -0.10408340855861D-16
 Band:  5
   1   1   1   1 -0.24163466953165D+01  0.24980018054066D-15
   2   1   1   1 -0.13272548266393D+01  0.83517282757614D-01
   3   1   1   1 -0.74387449701755D+00  0.13321272938337D-06
   1   2   1   1  0.74596051033220D+00 -0.10544842979264D+00
   2   2   1   1  0.86508190628121D+00 -0.62896394416116D-01
   3   2   1   1  0.13655761606868D+01 -0.22920235866979D+00
   1   1   2   1 -0.13272548266393D+01 -0.83517282757614D-01
   2   1   2   1 -0.19039880328496D+01 -0.12229800505636D-15
   3   1   2   1 -0.74387462946789D+00  0.63188752654730D-07
   1   2   2   1  0.86508179539725D+00 -0.62896463875572D-01
   2   2   2   1  0.76844419867152D+00  0.98977390623993D-03
   3   2   2   1  0.13655762445933D+01 -0.22920242176283D+00
   1   1   3   1 -0.74387449701755D+00 -0.13321272871724D-06
   2   1   3   1 -0.74387462946789D+00 -0.63188752460441D-07
   3   1   3   1 -0.14877492077103D+01  0.31225022567583D-16
   1   2   3   1  0.13655760018717D+01 -0.22920247344353D+00
   2   2   3   1  0.13655761834499D+01 -0.22920250316932D+00
   3   2   3   1  0.27311513976701D+01 -0.45840510032463D+00
   1   1   1   2  0.74596051033220D+00  0.10544842979263D+00
   2   1   1   2  0.86508179539725D+00  0.62896463875572D-01
   3   1   1   2  0.13655760018717D+01  0.22920247344353D+00
   1   2   1   2 -0.24163381922472D+01 -0.36082248300318D-15
   2   2   1   2 -0.13272483401706D+01 -0.83517307440409D-01
   3   2   1   2 -0.74386519819084D+00 -0.15011029425026D-06
   1   1   2   2  0.86508190628121D+00  0.62896394416115D-01
   2   1   2   2  0.76844419867152D+00 -0.98977390624026D-03
   3   1   2   2  0.13655761834499D+01  0.22920250316932D+00
   1   2   2   2 -0.13272483401706D+01  0.83517307440409D-01
   2   2   2   2 -0.19039801925592D+01 -0.81532003370910D-16
   3   2   2   2 -0.74386537124534D+00 -0.44625131375631D-07
   1   1   3   2  0.13655761606868D+01  0.22920235866979D+00
   2   1   3   2  0.13655762445933D+01  0.22920242176283D+00
   3   1   3   2  0.27311513976701D+01  0.45840510032463D+00
   1   2   3   2 -0.74386519819084D+00  0.15011029488863D-06
   2   2   3   2 -0.74386537124534D+00  0.44625132447691D-07
   3   2   3   2 -0.14877315456518D+01 -0.41633363423443D-16
 K-point:  5.00000000E-01 -2.50000000E-01  0.00000000E+00
 Band:  1
   1   1   1   1 -0.29000284225946D+01 -0.90205620750794D-16
   2   1   1   1 -0.17593252281069D+01  0.47042654066089D-01
   3   1   1   1 -0.14449683386986D+01 -0.58923841402315D-06
   1   2   1   1  0.84250301304078D+00  0.28560984620964D+00
   2   2   1   1  0.81750257856659D+00 -0.10374370885621D+00
   3   2   1   1  0.57947426371130D+00 -0.15276162007464D+00
   1   1   2   1 -0.17593252281069D+01 -0.47042654066089D-01
   2   1   2   1 -0.31471792630893D+01 -0.60715321659188D-17
   3   1   2   1 -0.14449684650402D+01 -0.53454210939237D-06
   1   2   2   1  0.81750275878560D+00 -0.10374108625619D+00
   2   2   2   1  0.13722328860355D+01 -0.36738185050987D-01
   3   2   2   1  0.57947426350948D+00 -0.15276150341397D+00
   1   1   3   1 -0.14449683386986D+01  0.58923841400580D-06
   2   1   3   1 -0.14449684650402D+01  0.53454210943053D-06
   3   1   3   1 -0.28899380566760D+01  0.19949319973733D-16
   1   2   3   1  0.57947419512098D+00 -0.15276195896554D+00
   2   2   3   1  0.57947415306233D+00 -0.15276172000465D+00
   3   2   3   1  0.11589489697464D+01 -0.30552226821798D+00
   1   1   1   2  0.84250301304078D+00 -0.28560984620964D+00
   2   1   1   2  0.81750275878560D+00  0.10374108625619D+00
   3   1   1   2  0.57947419512098D+00  0.15276195896554D+00
   1   2   1   2 -0.29000367501910D+01 -0.66786853825107D-16
   2   2   1   2 -0.17593266326478D+01 -0.47040022592819D-01
   3   2   1   2 -0.14449741595608D+01  0.31485487365757D-06
   1   1   2   2  0.81750257856659D+00  0.10374370885621D+00
   2   1   2   2  0.13722328860355D+01  0.36738185050987D-01
   3   1   2   2  0.57947415306233D+00  0.15276172000465D+00
   1   2   2   2 -0.17593266326478D+01  0.47040022592819D-01
   2   2   2   2 -0.31471856921065D+01 -0.19428902930940D-15
   3   2   2   2 -0.14449743748025D+01  0.34242618561880D-06
   1   1   3   2  0.57947426371130D+00  0.15276162007464D+00
   2   1   3   2  0.57947426350948D+00  0.15276150341397D+00
   3   1   3   2  0.11589489697464D+01  0.30552226821798D+00
   1   2   3   2 -0.14449741595608D+01 -0.31485487341905D-06
   2   2   3   2 -0.14449743748025D+01 -0.34242618574023D-06
   3   2   3   2 -0.28899486722978D+01 -0.40766001685455D-16
 Band:  2
   1   1   1   1 -0.21801153498181D+01 -0.55511151231258D-16
   2   1   1   1 -0.71405979909011D+00  0.45312413739919D-01
   3   1   1   1 -0.12293561385372D+01 -0.11133197745281D-05
   1   2   1   1  0.38447151289934D+00  0.69531420527087D+00
   2   2   1   1 -0.30196154867623D+00  0.33052589219473D+00
   3   2   1   1  0.24977323029507D+00  0.18280715117317D+00
   1   1   2   1 -0.71405979909011D+00 -0.45312413739919D-01
   2   1   2   1 -0.17173571823354D+01  0.95409791178724D-16
   3   1   2   1 -0.12293558080664D+01 -0.49119838690622D-06
   1   2   2   1 -0.30196213010851D+00  0.33052962980905D+00
   2   2   2   1 -0.42300947989791D+00  0.14486364578076D+00
   3   2   2   1  0.24977401928122D+00  0.18280717880267D+00
   1   1   3   1 -0.12293561385372D+01  0.11133197744725D-05
   2   1   3   1 -0.12293558080664D+01  0.49119838686285D-06
   3   1   3   1 -0.24587115658685D+01  0.20816681711722D-16
   1   2   3   1  0.24977360137280D+00  0.18280620291875D+00
   2   2   3   1  0.24977431604614D+00  0.18280678715866D+00
   3   2   3   1  0.49954775453167D+00  0.36561480967889D+00
   1   1   1   2  0.38447151289934D+00 -0.69531420527087D+00
   2   1   1   2 -0.30196213010851D+00 -0.33052962980905D+00
   3   1   1   2  0.24977360137280D+00 -0.18280620291875D+00
   1   2   1   2 -0.21801140771478D+01 -0.56898930012039D-15
   2   2   1   2 -0.71405960863079D+00 -0.45308462536353D-01
   3   2   1   2 -0.12293472261800D+01  0.44220547449985D-06
   1   1   2   2 -0.30196154867623D+00 -0.33052589219473D+00
   2   1   2   2 -0.42300947989791D+00 -0.14486364578076D+00
   3   1   2   2  0.24977431604614D+00 -0.18280678715866D+00
   1   2   2   2 -0.71405960863079D+00  0.45308462536352D-01
   2   2   2   2 -0.17173481845719D+01  0.10408340855861D-16
   3   2   2   2 -0.12293465596664D+01  0.12599287410380D-06
   1   1   3   2  0.24977323029507D+00 -0.18280715117317D+00
   2   1   3   2  0.24977401928122D+00 -0.18280717880267D+00
   3   1   3   2  0.49954775453167D+00 -0.36561480967889D+00
   1   2   3   2 -0.12293472261800D+01 -0.44220547449899D-06
   2   2   3   2 -0.12293465596664D+01 -0.12599287418186D-06
   3   2   3   2 -0.24586933761982D+01 -0.52041704279304D-17
 Band:  3
   1   1   1   1 -0.20588003518318D+01  0.24286128663675D-16
   2   1   1   1 -0.10932496593355D+01  0.10758880340273D+00
   3   1   1   1 -0.14286388465121D+01 -0.56036248294521D-06
   1   2   1   1  0.28830484864914D+00 -0.62179750083792D-01
   2   2   1   1  0.30646041564766D+00  0.15523157183532D+00
   3   2   1   1  0.76424691679252D+00  0.23821558968013D+00
   1   1   2   1 -0.10932496593355D+01 -0.10758880340273D+00
   2   1   2   1 -0.24742882883129D+01 -0.22551405187698D-15
   3   1   2   1 -0.14286384450800D+01 -0.12182149052744D-05
   1   2   2   1  0.30646047267570D+00  0.15523279375839D+00
   2   2   2   1  0.50779971891042D+00  0.39543695776726D+00
   3   2   2   1  0.76424621348421D+00  0.23821588475031D+00
   1   1   3   1 -0.14286388465121D+01  0.56036248294868D-06
   2   1   3   1 -0.14286384450800D+01  0.12182149054965D-05
   3   1   3   1 -0.28572785885968D+01 -0.34694469519536D-17
   1   2   3   1  0.76424748112788D+00  0.23821541433930D+00
   2   2   3   1  0.76424702294563D+00  0.23821378213758D+00
   3   2   3   1  0.15284949771287D+01  0.47643073385585D+00
   1   1   1   2  0.28830484864914D+00  0.62179750083792D-01
   2   1   1   2  0.30646047267570D+00 -0.15523279375839D+00
   3   1   1   2  0.76424748112788D+00 -0.23821541433930D+00
   1   2   1   2 -0.20587972349839D+01  0.62450045135165D-16
   2   2   1   2 -0.10932479486301D+01 -0.10758272938139D+00
   3   2   1   2 -0.14286334644963D+01  0.20646798196797D-06
   1   1   2   2  0.30646041564766D+00 -0.15523157183532D+00
   2   1   2   2  0.50779971891041D+00 -0.39543695776726D+00
   3   1   2   2  0.76424702294563D+00 -0.23821378213758D+00
   1   2   2   2 -0.10932479486301D+01  0.10758272938139D+00
   2   2   2   2 -0.24742987050876D+01  0.86736173798840D-17
   3   2   2   2 -0.14286336822314D+01 -0.83027600211701D-06
   1   1   3   2  0.76424691679252D+00 -0.23821558968013D+00
   2   1   3   2  0.76424621348421D+00 -0.23821588475031D+00
   3   1   3   2  0.15284949771287D+01 -0.47643073385585D+00
   1   2   3   2 -0.14286334644963D+01 -0.20646798189164D-06
   2   2   3   2 -0.14286336822314D+01  0.83027600212395D-06
   3   2   3   2 -0.28572673277541D+01  0.52041704279304D-17
 Band:  4
   1   1   1   1 -0.17845873407983D+01  0.86736173798840D-18
   2   1   1   1 -0.10139649675029D+01 -0.26843973046997D-01
   3   1   1   1 -0.91225200418501D+00 -0.47139433243605D-06
   1   2   1   1 -0.17168088949310D+00  0.72969708516306D-01
   2   2   1   1 -0.20721202197591D+00 -0.25154922340009D-01
   3   2   1   1 -0.13742887105558D+01  0.23879339141305D-01
   1   1   2   1 -0.10139649675029D+01  0.26843973046997D-01
   2   1   2   1 -0.17928639258377D+01 -0.34694469519536D-17
   3   1   2   1 -0.91225255083192D+00 -0.66988731318655D-06
   1   2   2   1 -0.20721189997449D+00 -0.25154424274078D-01
   2   2   2   1 -0.26704458080798D+00 -0.31078597643714D+00
   3   2   2   1 -0.13742883849961D+01  0.23879633501380D-01
   1   1   3   1 -0.91225200418500D+00  0.47139433239962D-06
   2   1   3   1 -0.91225255083192D+00  0.66988731306859D-06
   3   1   3   1 -0.18245019992147D+01 -0.34694469519536D-16
   1   2   3   1 -0.13742896333524D+01  0.23878821272196D-01
   2   2   3   1 -0.13742893907557D+01  0.23878117527017D-01
   3   2   3   1 -0.27485798602454D+01  0.47757941279697D-01
   1   1   1   2 -0.17168088949310D+00 -0.72969708516306D-01
   2   1   1   2 -0.20721189997449D+00  0.25154424274078D-01
   3   1   1   2 -0.13742896333524D+01 -0.23878821272196D-01
   1   2   1   2 -0.17845983088224D+01  0.48572257327351D-16
   2   2   1   2 -0.10139761648159D+01  0.26844656390429D-01
   3   2   1   2 -0.91227692059339D+00 -0.10277860818615D-06
   1   1   2   2 -0.20721202197591D+00  0.25154922340009D-01
   2   1   2   2 -0.26704458080798D+00  0.31078597643714D+00
   3   1   2   2 -0.13742893907557D+01 -0.23878117527017D-01
   1   2   2   2 -0.10139761648159D+01 -0.26844656390428D-01
   2   2   2   2 -0.17928745256368D+01  0.16653345369377D-15
   3   2   2   2 -0.91227716390074D+00 -0.11872227288146D-05
   1   1   3   2 -0.13742887105558D+01 -0.23879339141305D-01
   2   1   3   2 -0.13742883849961D+01 -0.23879633501381D-01
   3   1   3   2 -0.27485798602454D+01 -0.47757941279697D-01
   1   2   3   2 -0.91227692059339D+00  0.10277860908474D-06
   2   2   3   2 -0.91227716390073D+00  0.11872227298000D-05
   3   2   3   2 -0.18245536565780D+01  0.14190038033490D-14
 Band:  5
   1   1   1   1 -0.19039870221795D+01  0.24286128663675D-15
   2   1   1   1 -0.13272548198550D+01 -0.83517332901286D-01
   3   1   1   1 -0.74387449491496D+00  0.11201007024226D-06
   1   2   1   1  0.76844446549891D+00  0.98990343882441D-03
   2   2   1   1  0.86508197081906D+00 -0.62896472601410D-01
   3   2   1   1  0.13655760977630D+01 -0.22920252879572D+00
   1   1   2   1 -0.13272548198550D+01  0.83517332901286D-01
   2   1   2   1 -0.24163476537186D+01 -0.12490009027033D-15
   3   1   2   1 -0.74387450808822D+00  0.51377023805104D-07
   1   2   2   1  0.86508200711882D+00 -0.62896371233460D-01
   2   2   2   1  0.74596029446408D+00 -0.10544857831875D+00
   3   2   2   1  0.13655764379100D+01 -0.22920250381785D+00
   1   1   3   1 -0.74387449491496D+00 -0.11201007033246D-06
   2   1   3   1 -0.74387450808822D+00 -0.51377024707160D-07
   3   1   3   1 -0.14877491284606D+01  0.52041704279304D-16
   1   2   3   1  0.13655760039012D+01 -0.22920258940231D+00
   2   2   3   1  0.13655762648158D+01 -0.22920257086995D+00
   3   2   3   1  0.27311515162087D+01 -0.45840526295750D+00
   1   1   1   2  0.76844446549891D+00 -0.98990343882403D-03
   2   1   1   2  0.86508200711882D+00  0.62896371233460D-01
   3   1   1   2  0.13655760039012D+01  0.22920258940231D+00
   1   2   1   2 -0.19039799083269D+01 -0.30878077872387D-15
   2   2   1   2 -0.13272483347404D+01  0.83517205840405D-01
   3   2   1   2 -0.74386536828040D+00 -0.90773269428938D-07
   1   1   2   2  0.86508197081906D+00  0.62896472601409D-01
   2   1   2   2  0.74596029446408D+00  0.10544857831875D+00
   3   1   2   2  0.13655762648158D+01  0.22920257086995D+00
   1   2   2   2 -0.13272483347404D+01 -0.83517205840406D-01
   2   2   2   2 -0.24163388195464D+01  0.13877787807814D-16
   3   2   2   2 -0.74386536253221D+00 -0.68352816570834D-07
   1   1   3   2  0.13655760977630D+01  0.22920252879572D+00
   2   1   3   2  0.13655764379100D+01  0.22920250381785D+00
   3   1   3   2  0.27311515162087D+01  0.45840526295750D+00
   1   2   3   2 -0.74386536828040D+00  0.90773270095072D-07
   2   2   3   2 -0.74386536253221D+00  0.68352817930857D-07
   3   2   3   2 -0.14877316753480D+01  0.93675067702748D-16
 K-point: -2.50000000E-01 -2.50000000E-01  2.50000000E-01
 Band:  1
   1   1   1   1 -0.31471789688777D+01 -0.39898639947467D-16
   2   1   1   1 -0.17022095979838D+01  0.23831614791145D-06
   3   1   1   1 -0.13878534198060D+01 -0.47042562821157D-01
   1   2   1   1  0.13722333407330D+01  0.36740063429570D-01
   2   2   1   1  0.79275839797543D+00 -0.11602062728472D+00
   3   2   1   1  0.55472976222624D+00 -0.67002978569946D-01
   1   1   2   1 -0.17022095979838D+01 -0.23831614791492D-06
   2   1   2   1 -0.31471792177716D+01 -0.43368086899420D-16
   3   1   2   1 -0.13878536025647D+01 -0.47042685149245D-01
   1   2   2   1  0.79275852096169D+00 -0.11602087709021D+00
   2   2   2   1  0.13722327914797D+01  0.36740789786476D-01
   3   2   2   1  0.55472982151104D+00 -0.67003039907206D-01
   1   1   3   1 -0.13878534198060D+01  0.47042562821157D-01
   2   1   3   1 -0.13878536025647D+01  0.47042685149244D-01
   3   1   3   1 -0.25285561852265D+01 -0.17347234759768D-16
   1   2   3   1  0.55472949400885D+00 -0.67006308916271D-01
   2   2   3   1  0.55472951544988D+00 -0.67006499078087D-01
   3   2   3   1  0.57973032578939D+00 -0.45635618813041D+00
   1   1   1   2  0.13722333407330D+01 -0.36740063429570D-01
   2   1   1   2  0.79275852096169D+00  0.11602087709021D+00
   3   1   1   2  0.55472949400885D+00  0.67006308916271D-01
   1   2   1   2 -0.31471869783871D+01 -0.16306400674182D-15
   2   2   1   2 -0.17022122035698D+01 -0.46891119137334D-06
   3   2   1   2 -0.13878601669276D+01  0.47039249131392D-01
   1   1   2   2  0.79275839797543D+00  0.11602062728472D+00
   2   1   2   2  0.13722327914797D+01 -0.36740789786477D-01
   3   1   2   2  0.55472951544988D+00  0.67006499078087D-01
   1   2   2   2 -0.17022122035698D+01  0.46891119129007D-06
   2   2   2   2 -0.31471857873580D+01 -0.20816681711722D-16
   3   2   2   2 -0.13878602050113D+01  0.47039283270706D-01
   1   1   3   2  0.55472976222624D+00  0.67002978569946D-01
   2   1   3   2  0.55472982151104D+00  0.67003039907206D-01
   3   1   3   2  0.57973032578939D+00  0.45635618813041D+00
   1   2   3   2 -0.13878601669276D+01 -0.47039249131392D-01
   2   2   3   2 -0.13878602050113D+01 -0.47039283270705D-01
   3   2   3   2 -0.25285692548392D+01  0.63967928176645D-16
 Band:  2
   1   1   1   1 -0.17173575715890D+01 -0.22768245622196D-16
   2   1   1   1 -0.48800124047429D+00 -0.72423741761517D-07
   3   1   1   1 -0.10032962524959D+01 -0.45312922300727D-01
   1   2   1   1 -0.42300941647028D+00 -0.14486171308470D+00
   2   2   1   1 -0.67278281560136D+00  0.37946384292341D-01
   3   2   1   1 -0.12104652485331D+00  0.18566630729564D+00
   1   1   2   1 -0.48800124047429D+00  0.72423741680419D-07
   2   1   2   1 -0.17173574261520D+01 -0.61365842962680D-16
   3   1   2   1 -0.10032957756949D+01 -0.45312733619965D-01
   1   2   2   1 -0.67278316379761D+00  0.37945932942510D-01
   2   2   2   1 -0.42300908489808D+00 -0.14486106748326D+00
   3   2   2   1 -0.12104588536042D+00  0.18566643610861D+00
   1   1   3   1 -0.10032962524959D+01  0.45312922300727D-01
   2   1   3   1 -0.10032957756949D+01  0.45312733619965D-01
   3   1   3   1 -0.24693532572433D+01 -0.23852447794681D-16
   1   2   3   1 -0.12104677511566D+00  0.18566060719480D+00
   2   2   3   1 -0.12104622539622D+00  0.18566008109586D+00
   3   2   3   1  0.56538596474149D+00 -0.17912209630186D+00
   1   1   1   2 -0.42300941647028D+00  0.14486171308470D+00
   2   1   1   2 -0.67278316379761D+00 -0.37945932942510D-01
   3   1   1   2 -0.12104677511566D+00 -0.18566060719480D+00
   1   2   1   2 -0.17173467880375D+01  0.19905951886834D-15
   2   2   1   2 -0.48800048723010D+00 -0.34588858899316D-06
   3   2   1   2 -0.10032871191809D+01  0.45307220980660D-01
   1   1   2   2 -0.67278281560136D+00 -0.37946384292342D-01
   2   1   2   2 -0.42300908489808D+00  0.14486106748326D+00
   3   1   2   2 -0.12104622539622D+00 -0.18566008109586D+00
   1   2   2   2 -0.48800048723010D+00  0.34588858901376D-06
   2   2   2   2 -0.17173469847046D+01 -0.32959746043559D-16
   3   2   2   2 -0.10032870259313D+01  0.45306677330504D-01
   1   1   3   2 -0.12104652485331D+00 -0.18566630729564D+00
   2   1   3   2 -0.12104588536042D+00 -0.18566643610861D+00
   3   1   3   2  0.56538596474149D+00  0.17912209630186D+00
   1   2   3   2 -0.10032871191809D+01 -0.45307220980660D-01
   2   2   3   2 -0.10032870259313D+01 -0.45306677330504D-01
   3   2   3   2 -0.24693433108970D+01 -0.66786853825107D-16
 Band:  3
   1   1   1   1 -0.24742905312071D+01 -0.20816681711722D-16
   2   1   1   1 -0.10456513692650D+01 -0.12120337403389D-05
   3   1   1   1 -0.13810403866367D+01 -0.10758976909351D+00
   1   2   1   1  0.50779926644879D+00 -0.39543710939857D+00
   2   2   1   1 -0.25644782485977D+00 -0.15721988434252D+00
   3   2   1   1  0.20133841849874D+00 -0.24020411942268D+00
   1   1   2   1 -0.10456513692650D+01  0.12120337400787D-05
   2   1   2   1 -0.24742911476842D+01 -0.31225022567583D-15
   3   1   2   1 -0.13810409037856D+01 -0.10758842355296D+00
   1   2   2   1 -0.25644875736715D+00 -0.15722260202301D+00
   2   2   2   1  0.50779817632679D+00 -0.39543585209500D+00
   3   2   2   1  0.20133810923069D+00 -0.24020450921845D+00
   1   1   3   1 -0.13810403866367D+01  0.10758976909351D+00
   2   1   3   1 -0.13810409037856D+01  0.10758842355296D+00
   3   1   3   1 -0.23465894148642D+01 -0.62796989830360D-15
   1   2   3   1  0.20133865814898D+00 -0.24020597895508D+00
   2   2   3   1  0.20133861252038D+00 -0.24020395483720D+00
   3   2   3   1  0.18318368959067D+00 -0.22792977275982D-01
   1   1   1   2  0.50779926644879D+00  0.39543710939857D+00
   2   1   1   2 -0.25644875736716D+00  0.15722260202301D+00
   3   1   1   2  0.20133865814898D+00  0.24020597895508D+00
   1   2   1   2 -0.24743008729627D+01 -0.17347234759768D-15
   2   2   1   2 -0.10456673610124D+01 -0.14313369264990D-05
   3   2   1   2 -0.13810512064140D+01  0.10758300403125D+00
   1   1   2   2 -0.25644782485977D+00  0.15721988434253D+00
   2   1   2   2  0.50779817632679D+00  0.39543585209500D+00
   3   1   2   2  0.20133861252038D+00  0.24020395483720D+00
   1   2   2   2 -0.10456673610124D+01  0.14313369264730D-05
   2   2   2   2 -0.24742993359787D+01 -0.16566609195579D-15
   3   2   2   2 -0.13810508948629D+01  0.10758381867884D+00
   1   1   3   2  0.20133841849874D+00  0.24020411942268D+00
   2   1   3   2  0.20133810923069D+00  0.24020450921845D+00
   3   1   3   2  0.18318368959068D+00  0.22792977275982D-01
   1   2   3   2 -0.13810512064140D+01 -0.10758300403125D+00
   2   2   3   2 -0.13810508948629D+01 -0.10758381867884D+00
   3   2   3   2 -0.23465994459669D+01  0.18041124150159D-15
 Band:  4
   1   1   1   1 -0.17928607199106D+01  0.87603535536829D-16
   2   1   1   1 -0.88061044586242D+00 -0.14746976699436D-05
   3   1   1   1 -0.77889843622892D+00  0.26843798549894D-01
   1   2   1   1 -0.26704545891197D+00  0.31078473015721D+00
   2   2   1   1  0.11072445094042D+01  0.33466486093912D+00
   3   2   1   1 -0.59832708075441D-01  0.28563100467709D+00
   1   1   2   1 -0.88061044586242D+00  0.14746976697754D-05
   2   1   2   1 -0.17928607967931D+01  0.12923689896027D-15
   3   1   2   1 -0.77889821624536D+00  0.26845117791525D-01
   1   2   2   1  0.11072456330222D+01  0.33466289488613D+00
   2   2   2   1 -0.26704357641683D+00  0.31078510959227D+00
   3   2   2   1 -0.59832633421950D-01  0.28563063845196D+00
   1   1   3   1 -0.77889843622892D+00 -0.26843798549894D-01
   2   1   3   1 -0.77889821624536D+00 -0.26845117791525D-01
   3   1   3   1 -0.15495211760515D+01 -0.16892434247422D-17
   1   2   3   1 -0.59832667950115D-01  0.28563037245992D+00
   2   2   3   1 -0.59832658663201D-01  0.28563129983682D+00
   3   2   3   1 -0.24301391227887D-01  0.18750694410827D+00
   1   1   1   2 -0.26704545891197D+00 -0.31078473015721D+00
   2   1   1   2  0.11072456330222D+01 -0.33466289488613D+00
   3   1   1   2 -0.59832667950115D-01 -0.28563037245992D+00
   1   2   1   2 -0.17928725071033D+01 -0.14745149545803D-16
   2   2   1   2 -0.88059556928807D+00 -0.89381084893792D-06
   3   2   1   2 -0.77889808162139D+00 -0.26844626800877D-01
   1   1   2   2  0.11072445094042D+01 -0.33466486093912D+00
   2   1   2   2 -0.26704357641683D+00 -0.31078510959227D+00
   3   1   2   2 -0.59832658663201D-01 -0.28563129983682D+00
   1   2   2   2 -0.88059556928807D+00  0.89381084894312D-06
   2   2   2   2 -0.17928755817833D+01  0.11622647289045D-15
   3   2   2   2 -0.77889829614882D+00 -0.26844327763490D-01
   1   1   3   2 -0.59832708075441D-01 -0.28563100467709D+00
   2   1   3   2 -0.59832633421950D-01 -0.28563063845196D+00
   3   1   3   2 -0.24301391227887D-01 -0.18750694410827D+00
   1   2   3   2 -0.77889808162139D+00  0.26844626800877D-01
   2   2   3   2 -0.77889829614882D+00  0.26844327763490D-01
   3   2   3   2 -0.15495203476941D+01 -0.12356265922367D-16
 Band:  5
   1   1   1   1 -0.24163465496664D+01  0.12490009027033D-15
   2   1   1   1 -0.16724714741576D+01  0.45603682772726D-07
   3   1   1   1 -0.10890927844766D+01  0.83517380880959D-01
   1   2   1   1  0.74596153737389D+00  0.10544812909250D+00
   2   2   1   1 -0.61961429490800D+00 -0.12375454825752D+00
   3   2   1   1 -0.11912173353823D+00  0.42552344179485D-01
   1   1   2   1 -0.16724714741576D+01 -0.45603683438859D-07
   2   1   2   1 -0.24163459968160D+01  0.20816681711722D-16
   3   1   2   1 -0.10890927354709D+01  0.83517309742223D-01
   1   2   2   1 -0.61961405150234D+00 -0.12375467354724D+00
   2   2   2   1  0.74596230714596D+00  0.10544792075978D+00
   3   2   2   1 -0.11912163148009D+00  0.42552240021039D-01
   1   1   3   1 -0.10890927844766D+01 -0.83517380880959D-01
   2   1   3   1 -0.10890927354709D+01 -0.83517309742224D-01
   3   1   3   1 -0.16658259081096D+01  0.13877787807814D-16
   1   2   3   1 -0.11912166134685D+00  0.42552143029342D-01
   2   2   3   1 -0.11912167636610D+00  0.42552102786261D-01
   3   2   3   1 -0.21575913952506D+00 -0.21333915730700D-01
   1   1   1   2  0.74596153737389D+00 -0.10544812909250D+00
   2   1   1   2 -0.61961405150234D+00  0.12375467354724D+00
   3   1   1   2 -0.11912166134685D+00 -0.42552143029342D-01
   1   2   1   2 -0.24163363805648D+01  0.48572257327351D-15
   2   2   1   2 -0.16724708605151D+01 -0.56776362379418D-07
   3   2   1   2 -0.10890898163217D+01 -0.83517532603228D-01
   1   1   2   2 -0.61961429490800D+00  0.12375454825752D+00
   2   1   2   2  0.74596230714596D+00 -0.10544792075978D+00
   3   1   2   2 -0.11912167636610D+00 -0.42552102786262D-01
   1   2   2   2 -0.16724708605151D+01  0.56776362140026D-07
   2   2   2   2 -0.24163366392041D+01 -0.15265566588596D-15
   3   2   2   2 -0.10890897608142D+01 -0.83517439326526D-01
   1   1   3   2 -0.11912173353823D+00 -0.42552344179485D-01
   2   1   3   2 -0.11912163148009D+00 -0.42552240021039D-01
   3   1   3   2 -0.21575913952506D+00  0.21333915730700D-01
   1   2   3   2 -0.10890898163217D+01  0.83517532603228D-01
   2   2   3   2 -0.10890897608142D+01  0.83517439326526D-01
   3   2   3   2 -0.16658207891680D+01  0.48572257327351D-16
 K-point: -2.50000000E-01  0.00000000E+00  0.00000000E+00
 Band:  1
   1   1   1   1 -0.23682207770386D+01 -0.58113236445223D-16
   2   1   1   1 -0.11714867859590D+01  0.17671796053402D-06
   3   1   1   1 -0.11714866671812D+01 -0.13743197246117D-06
   1   2   1   1  0.68817515271274D+00  0.12235757469793D+00
   2   2   1   1  0.36461111856927D+00 -0.61554671771269D-01
   3   2   1   1  0.36461103517508D+00 -0.61555126075368D-01
   1   1   2   1 -0.11714867859590D+01 -0.17671796055831D-06
   2   1   2   1 -0.23429741399506D+01  0.27321894746635D-16
   3   1   2   1 -0.11714867213685D+01  0.77930509708037D-08
   1   2   2   1  0.36461112487458D+00 -0.61554774360849D-01
   2   2   2   1  0.72922234269449D+00 -0.12310995005876D+00
   3   2   2   1  0.36461116831728D+00 -0.61554965496838D-01
   1   1   3   1 -0.11714866671812D+01  0.13743197247505D-06
   2   1   3   1 -0.11714867213685D+01 -0.77930509543238D-08
   3   1   3   1 -0.23429739624993D+01  0.16046192152785D-16
   1   2   3   1  0.36461103905513D+00 -0.61555190144132D-01
   2   2   3   1  0.36461116472664D+00 -0.61554965439057D-01
   3   2   3   1  0.72922250732264D+00 -0.12310996672626D+00
   1   1   1   2  0.68817515271274D+00 -0.12235757469793D+00
   2   1   1   2  0.36461112487458D+00  0.61554774360849D-01
   3   1   1   2  0.36461103905513D+00  0.61555190144131D-01
   1   2   1   2 -0.23682237678387D+01  0.76327832942980D-16
   2   2   1   2 -0.11714887671187D+01 -0.27629908105670D-06
   3   2   1   2 -0.11714887174713D+01  0.77989407217127D-07
   1   1   2   2  0.36461111856927D+00  0.61554671771269D-01
   2   1   2   2  0.72922234269449D+00  0.12310995005876D+00
   3   1   2   2  0.36461116472664D+00  0.61554965439057D-01
   1   2   2   2 -0.11714887671187D+01  0.27629908101854D-06
   2   2   2   2 -0.23429770547751D+01  0.57245874707235D-16
   3   2   2   2 -0.11714887692715D+01 -0.78600427658315D-08
   1   1   3   2  0.36461103517508D+00  0.61555126075368D-01
   2   1   3   2  0.36461116831728D+00  0.61554965496838D-01
   3   1   3   2  0.72922250732264D+00  0.12310996672626D+00
   1   2   3   2 -0.11714887174713D+01 -0.77989407265699D-07
   2   2   3   2 -0.11714887692715D+01  0.78600428415088D-08
   3   2   3   2 -0.23429774506974D+01  0.10516761073109D-15
 Band:  2
   1   1   1   1 -0.30174091180565D+01  0.52041704279304D-17
   2   1   1   1 -0.12783750747717D+01 -0.16234669610003D-06
   3   1   1   1 -0.12783761586040D+01 -0.35057654595044D-06
   1   2   1   1  0.68219278057155D+00  0.83480485754921D+00
   2   2   1   1  0.33398870642208D+00  0.22263005371486D+00
   3   2   1   1  0.33398797301371D+00  0.22262991702326D+00
   1   1   2   1 -0.12783750747717D+01  0.16234669617810D-06
   2   1   2   1 -0.25567523510985D+01 -0.24286128663675D-16
   3   1   2   1 -0.12783758522985D+01 -0.88928078118540D-08
   1   2   2   1  0.33398902303009D+00  0.22262882306304D+00
   2   2   2   1  0.66797673130607D+00  0.44525894076459D+00
   3   2   2   1  0.33398832044637D+00  0.22262939851751D+00
   1   1   3   1 -0.12783761586040D+01  0.35057654577090D-06
   2   1   3   1 -0.12783758522985D+01  0.88928078430790D-08
   3   1   3   1 -0.25567526173474D+01  0.79797279894933D-16
   1   2   3   1  0.33398814879360D+00  0.22262918002492D+00
   2   2   3   1  0.33398831474159D+00  0.22262939680968D+00
   3   2   3   1  0.66797722204865D+00  0.44525908287747D+00
   1   1   1   2  0.68219278057155D+00 -0.83480485754921D+00
   2   1   1   2  0.33398902303009D+00 -0.22262882306304D+00
   3   1   1   2  0.33398814879360D+00 -0.22262918002492D+00
   1   2   1   2 -0.30174150017562D+01 -0.41980308118639D-15
   2   2   1   2 -0.12783720328444D+01 -0.40119947222415D-06
   3   2   1   2 -0.12783729568458D+01 -0.14216998206461D-07
   1   1   2   2  0.33398870642208D+00 -0.22263005371486D+00
   2   1   2   2  0.66797673130607D+00 -0.44525894076459D+00
   3   1   2   2  0.33398831474159D+00 -0.22262939680968D+00
   1   2   2   2 -0.12783720328444D+01  0.40119947231435D-06
   2   2   2   2 -0.25567444731842D+01  0.86736173798840D-17
   3   2   2   2 -0.12783723025847D+01  0.99303360198013D-08
   1   1   3   2  0.33398797301371D+00 -0.22262991702326D+00
   2   1   3   2  0.33398832044637D+00 -0.22262939851751D+00
   3   1   3   2  0.66797722204865D+00 -0.44525908287747D+00
   1   2   3   2 -0.12783729568458D+01  0.14216998160490D-07
   2   2   3   2 -0.12783723025847D+01 -0.99303360510264D-08
   3   2   3   2 -0.25567451446367D+01 -0.86736173798840D-17
 Band:  3
   1   1   1   1 -0.19235634329650D+01 -0.27755575615629D-16
   2   1   1   1 -0.80792076999027D+00  0.18613699748218D-02
   3   1   1   1 -0.11706086894033D+01  0.20963378456788D-01
   1   2   1   1 -0.18849255310190D+00 -0.39408314563677D+00
   2   2   1   1 -0.18449103844520D-01 -0.22798493656371D+00
   3   2   1   1 -0.80597751479000D+00 -0.15062109672458D+00
   1   1   2   1 -0.80792076999027D+00 -0.18613699748218D-02
   2   1   2   1 -0.17223085125306D+01  0.00000000000000D+00
   3   1   2   1 -0.77232389678956D+00  0.32863506213945D-04
   1   2   2   1 -0.17991652524994D-01 -0.22742197485465D+00
   2   2   2   1  0.49773868929504D-01 -0.46946242010812D+00
   3   2   2   1  0.59804977637609D-01 -0.23439631061637D+00
   1   1   3   1 -0.11706086894033D+01 -0.20963378456788D-01
   2   1   3   1 -0.77232389678956D+00 -0.32863506214311D-04
   3   1   3   1 -0.35324525087555D+01 -0.35475095083726D-15
   1   2   3   1 -0.80643506064060D+00 -0.15118516665447D+00
   2   2   3   1  0.58432614796290D-01 -0.23608493983905D+00
   3   2   3   1 -0.64778042530347D+00 -0.45907566671917D+00
   1   1   1   2 -0.18849255310190D+00  0.39408314563677D+00
   2   1   1   2 -0.17991652524994D-01  0.22742197485465D+00
   3   1   1   2 -0.80643506064060D+00  0.15118516665447D+00
   1   2   1   2 -0.19235701357214D+01 -0.24286128663675D-15
   2   2   1   2 -0.80792250743196D+00 -0.18835046526314D-02
   3   2   1   2 -0.11706235831607D+01 -0.20941941479393D-01
   1   1   2   2 -0.18449103844520D-01  0.22798493656371D+00
   2   1   2   2  0.49773868929504D-01  0.46946242010812D+00
   3   1   2   2  0.58432614796290D-01  0.23608493983905D+00
   1   2   2   2 -0.80792250743196D+00  0.18835046526312D-02
   2   2   2   2 -0.17223137406104D+01 -0.20122792321331D-15
   3   2   2   2 -0.77232374154072D+00  0.33757468320918D-04
   1   1   3   2 -0.80597751479000D+00  0.15062109672458D+00
   2   1   3   2  0.59804977637609D-01  0.23439631061637D+00
   3   1   3   2 -0.64778042530348D+00  0.45907566671917D+00
   1   2   3   2 -0.11706235831607D+01  0.20941941479393D-01
   2   2   3   2 -0.77232374154072D+00 -0.33757468321377D-04
   3   2   3   2 -0.35324934894062D+01  0.47531423241765D-15
 Band:  4
   1   1   1   1 -0.27887005144796D+01 -0.41633363423443D-16
   2   1   1   1 -0.21803733361868D+01 -0.18623388258661D-02
   3   1   1   1 -0.18176843966049D+01 -0.20963198125274D-01
   1   2   1   1  0.51207257175454D+00 -0.50830027407997D+00
   2   2   1   1 -0.41963401046860D+00 -0.23421421001018D+00
   3   2   1   1  0.36789471301803D+00 -0.31157676002310D+00
   1   1   2   1 -0.21803733361868D+01  0.18623388258656D-02
   2   1   2   1 -0.42542758952225D+01 -0.20122792321331D-15
   3   1   2   1 -0.22159690579500D+01 -0.32866692957492D-04
   1   2   2   1 -0.42009171780819D+00 -0.23477746365283D+00
   2   2   2   1 -0.92593974708309D+00 -0.45493446782335D+00
   3   2   2   1 -0.49788792921066D+00 -0.22780228379678D+00
   1   1   3   1 -0.18176843966049D+01  0.20963198125274D-01
   2   1   3   1 -0.22159690579500D+01  0.32866692957222D-04
   3   1   3   1 -0.24441306792249D+01  0.27755575615629D-16
   1   2   3   1  0.36835213046351D+00 -0.31101291250326D+00
   2   2   3   1 -0.49651556472245D+00 -0.22611366530034D+00
   3   2   3   1 -0.22838587246934D+00 -0.46532041932875D+00
   1   1   1   2  0.51207257175454D+00  0.50830027407997D+00
   2   1   1   2 -0.42009171780819D+00  0.23477746365283D+00
   3   1   1   2  0.36835213046351D+00  0.31101291250326D+00
   1   2   1   2 -0.27887126682179D+01  0.20816681711722D-16
   2   2   1   2 -0.21803992036918D+01  0.18840351366458D-02
   3   2   1   2 -0.18176980253480D+01  0.20941435534075D-01
   1   1   2   2 -0.41963401046860D+00  0.23421421001018D+00
   2   1   2   2 -0.92593974708309D+00  0.45493446782335D+00
   3   1   2   2 -0.49651556472245D+00  0.22611366530034D+00
   1   2   2   2 -0.21803992036918D+01 -0.18840351366460D-02
   2   2   2   2 -0.42543317258480D+01 -0.55511151231258D-16
   3   2   2   2 -0.22159985662428D+01 -0.33762969226212D-04
   1   1   3   2  0.36789471301803D+00  0.31157676002310D+00
   2   1   3   2 -0.49788792921066D+00  0.22780228379678D+00
   3   1   3   2 -0.22838587246934D+00  0.46532041932875D+00
   1   2   3   2 -0.18176980253480D+01 -0.20941435534075D-01
   2   2   3   2 -0.22159985662428D+01  0.33762969225962D-04
   3   2   3   2 -0.24441500542156D+01 -0.26367796834847D-15
 Band:  5
   1   1   1   1 -0.32665597607838D+01 -0.13877787807814D-16
   2   1   1   1 -0.96863295313720D+00 -0.53336292012302D-06
   3   1   1   1 -0.96863453313196D+00 -0.27567400955040D-06
   1   2   1   1 -0.20848476637824D-02 -0.64432963894812D-01
   2   2   1   1  0.74574369011344D+00 -0.70535817482260D-01
   3   2   1   1  0.74574386621083D+00 -0.70534715749163D-01
   1   1   2   1 -0.96863295313720D+00  0.53336291976914D-06
   2   1   2   1 -0.19372669885068D+01 -0.41633363423443D-16
   3   1   2   1 -0.96863222003761D+00 -0.71879871094041D-07
   1   2   2   1  0.74574411609277D+00 -0.70535397383848D-01
   2   2   2   1  0.14914879260590D+01 -0.14107008721691D+00
   3   2   2   1  0.74574447413066D+00 -0.70535317034862D-01
   1   1   3   1 -0.96863453313196D+00  0.27567400885304D-06
   2   1   3   1 -0.96863222003761D+00  0.71879870830363D-07
   3   1   3   1 -0.19372679627376D+01 -0.11102230246252D-15
   1   2   3   1  0.74574405652036D+00 -0.70534581200256D-01
   2   2   3   1  0.74574448127486D+00 -0.70535314473273D-01
   3   2   3   1  0.14914840332767D+01 -0.14106794001256D+00
   1   1   1   2 -0.20848476637824D-02  0.64432963894813D-01
   2   1   1   2  0.74574411609277D+00  0.70535397383848D-01
   3   1   1   2  0.74574405652036D+00  0.70534581200256D-01
   1   2   1   2 -0.32665558045021D+01  0.31918911957973D-15
   2   2   1   2 -0.96862560545711D+00  0.30441127811071D-06
   3   2   1   2 -0.96862698649162D+00  0.18013052818782D-06
   1   1   2   2  0.74574369011344D+00  0.70535817482260D-01
   2   1   2   2  0.14914879260590D+01  0.14107008721691D+00
   3   1   2   2  0.74574448127486D+00  0.70535314473273D-01
   1   2   2   2 -0.96862560545711D+00 -0.30441127855479D-06
   2   2   2   2 -0.19372469869185D+01  0.38857805861880D-15
   3   2   2   2 -0.96862436049894D+00  0.73594591119570D-07
   1   1   3   2  0.74574386621083D+00  0.70534715749163D-01
   2   1   3   2  0.74574447413066D+00  0.70535317034862D-01
   3   1   3   2  0.14914840332767D+01  0.14106794001256D+00
   1   2   3   2 -0.96862698649162D+00 -0.18013052808200D-06
   2   2   3   2 -0.96862436049894D+00 -0.73594591383248D-07
   3   2   3   2 -0.19372497438135D+01  0.41633363423443D-15
 K-point:  5.00000000E-01  2.50000000E-01  0.00000000E+00
 Band:  1
   1   1   1   1 -0.29000284225946D+01 -0.49439619065339D-16
   2   1   1   1 -0.17593252281069D+01 -0.47042654066088D-01
   3   1   1   1 -0.14449683386986D+01  0.58923841385570D-06
   1   2   1   1  0.84250301304078D+00 -0.28560984620964D+00
   2   2   1   1  0.81750257856659D+00  0.10374370885621D+00
   3   2   1   1  0.57947426371131D+00  0.15276162007464D+00
   1   1   2   1 -0.17593252281069D+01  0.47042654066088D-01
   2   1   2   1 -0.31471792630893D+01 -0.16046192152785D-16
   3   1   2   1 -0.14449684650402D+01  0.53454210886580D-06
   1   2   2   1  0.81750275878560D+00  0.10374108625619D+00
   2   2   2   1  0.13722328860355D+01  0.36738185050987D-01
   3   2   2   1  0.57947426350948D+00  0.15276150341397D+00
   1   1   3   1 -0.14449683386986D+01 -0.58923841379086D-06
   2   1   3   1 -0.14449684650402D+01 -0.53454210890353D-06
   3   1   3   1 -0.28899380566760D+01  0.10061396160665D-15
   1   2   3   1  0.57947419512098D+00  0.15276195896554D+00
   2   2   3   1  0.57947415306233D+00  0.15276172000465D+00
   3   2   3   1  0.11589489697464D+01  0.30552226821798D+00
   1   1   1   2  0.84250301304078D+00  0.28560984620964D+00
   2   1   1   2  0.81750275878560D+00 -0.10374108625619D+00
   3   1   1   2  0.57947419512098D+00 -0.15276195896554D+00
   1   2   1   2 -0.29000367501910D+01  0.16561188184716D-16
   2   2   1   2 -0.17593266326478D+01  0.47040022592818D-01
   3   2   1   2 -0.14449741595608D+01 -0.31485487364914D-06
   1   1   2   2  0.81750257856659D+00 -0.10374370885621D+00
   2   1   2   2  0.13722328860355D+01 -0.36738185050987D-01
   3   1   2   2  0.57947415306233D+00 -0.15276172000465D+00
   1   2   2   2 -0.17593266326478D+01 -0.47040022592818D-01
   2   2   2   2 -0.31471856921065D+01  0.24286128663675D-16
   3   2   2   2 -0.14449743748025D+01 -0.34242618514358D-06
   1   1   3   2  0.57947426371131D+00 -0.15276162007464D+00
   2   1   3   2  0.57947426350948D+00 -0.15276150341397D+00
   3   1   3   2  0.11589489697464D+01 -0.30552226821798D+00
   1   2   3   2 -0.14449741595608D+01  0.31485487376428D-06
   2   2   3   2 -0.14449743748025D+01  0.34242618522208D-06
   3   2   3   2 -0.28899486722978D+01  0.11622647289045D-15
 Band:  2
   1   1   1   1 -0.21801153498181D+01  0.11275702593849D-16
   2   1   1   1 -0.71405979909011D+00 -0.45312413739917D-01
   3   1   1   1 -0.12293561385372D+01  0.11133197732973D-05
   1   2   1   1  0.38447151289934D+00 -0.69531420527088D+00
   2   2   1   1 -0.30196154867623D+00 -0.33052589219473D+00
   3   2   1   1  0.24977323029506D+00 -0.18280715117317D+00
   1   1   2   1 -0.71405979909011D+00  0.45312413739917D-01
   2   1   2   1 -0.17173571823354D+01 -0.13682631416767D-15
   3   1   2   1 -0.12293558080664D+01  0.49119838668316D-06
   1   2   2   1 -0.30196213010851D+00 -0.33052962980904D+00
   2   2   2   1 -0.42300947989791D+00 -0.14486364578076D+00
   3   2   2   1  0.24977401928122D+00 -0.18280717880267D+00
   1   1   3   1 -0.12293561385372D+01 -0.11133197733289D-05
   2   1   3   1 -0.12293558080664D+01 -0.49119838677120D-06
   3   1   3   1 -0.24587115658685D+01 -0.17433970933567D-15
   1   2   3   1  0.24977360137280D+00 -0.18280620291875D+00
   2   2   3   1  0.24977431604614D+00 -0.18280678715866D+00
   3   2   3   1  0.49954775453167D+00 -0.36561480967889D+00
   1   1   1   2  0.38447151289934D+00  0.69531420527088D+00
   2   1   1   2 -0.30196213010851D+00  0.33052962980904D+00
   3   1   1   2  0.24977360137280D+00  0.18280620291875D+00
   1   2   1   2 -0.21801140771477D+01  0.29837243786801D-15
   2   2   1   2 -0.71405960863079D+00  0.45308462536354D-01
   3   2   1   2 -0.12293472261800D+01 -0.44220547393501D-06
   1   1   2   2 -0.30196154867623D+00  0.33052589219473D+00
   2   1   2   2 -0.42300947989791D+00  0.14486364578076D+00
   3   1   2   2  0.24977431604614D+00  0.18280678715866D+00
   1   2   2   2 -0.71405960863079D+00 -0.45308462536354D-01
   2   2   2   2 -0.17173481845719D+01 -0.10321604682062D-15
   3   2   2   2 -0.12293465596664D+01 -0.12599287461979D-06
   1   1   3   2  0.24977323029506D+00  0.18280715117317D+00
   2   1   3   2  0.24977401928122D+00  0.18280717880267D+00
   3   1   3   2  0.49954775453167D+00  0.36561480967889D+00
   1   2   3   2 -0.12293472261800D+01  0.44220547387082D-06
   2   2   3   2 -0.12293465596664D+01  0.12599287454519D-06
   3   2   3   2 -0.24586933761982D+01 -0.86736173798840D-17
 Band:  3
   1   1   1   1 -0.20588003518318D+01  0.27918205941502D-16
   2   1   1   1 -0.10932496593355D+01 -0.10758880340273D+00
   3   1   1   1 -0.14286388465121D+01  0.56036248420974D-06
   1   2   1   1  0.28830484864914D+00  0.62179750083792D-01
   2   2   1   1  0.30646041564766D+00 -0.15523157183532D+00
   3   2   1   1  0.76424691679252D+00 -0.23821558968013D+00
   1   1   2   1 -0.10932496593355D+01  0.10758880340273D+00
   2   1   2   1 -0.24742882883129D+01  0.39985376121265D-15
   3   1   2   1 -0.14286384450800D+01  0.12182149054297D-05
   1   2   2   1  0.30646047267570D+00 -0.15523279375839D+00
   2   2   2   1  0.50779971891041D+00 -0.39543695776726D+00
   3   2   2   1  0.76424621348421D+00 -0.23821588475031D+00
   1   1   3   1 -0.14286388465121D+01 -0.56036248408398D-06
   2   1   3   1 -0.14286384450800D+01 -0.12182149054687D-05
   3   1   3   1 -0.28572785885968D+01 -0.29490299091606D-16
   1   2   3   1  0.76424748112788D+00 -0.23821541433930D+00
   2   2   3   1  0.76424702294562D+00 -0.23821378213758D+00
   3   2   3   1  0.15284949771287D+01 -0.47643073385585D+00
   1   1   1   2  0.28830484864914D+00 -0.62179750083792D-01
   2   1   1   2  0.30646047267570D+00  0.15523279375839D+00
   3   1   1   2  0.76424748112788D+00  0.23821541433930D+00
   1   2   1   2 -0.20587972349839D+01 -0.55294310796761D-17
   2   2   1   2 -0.10932479486301D+01  0.10758272938139D+00
   3   2   1   2 -0.14286334644963D+01 -0.20646798175526D-06
   1   1   2   2  0.30646041564766D+00  0.15523157183532D+00
   2   1   2   2  0.50779971891041D+00  0.39543695776726D+00
   3   1   2   2  0.76424702294562D+00  0.23821378213758D+00
   1   2   2   2 -0.10932479486301D+01 -0.10758272938139D+00
   2   2   2   2 -0.24742987050876D+01  0.20057740190982D-15
   3   2   2   2 -0.14286336822314D+01  0.83027600287792D-06
   1   1   3   2  0.76424691679252D+00  0.23821558968013D+00
   2   1   3   2  0.76424621348421D+00  0.23821588475031D+00
   3   1   3   2  0.15284949771287D+01  0.47643073385585D+00
   1   2   3   2 -0.14286334644963D+01  0.20646798157040D-06
   2   2   3   2 -0.14286336822314D+01 -0.83027600292085D-06
   3   2   3   2 -0.28572673277541D+01  0.97578195523695D-17
 Band:  4
   1   1   1   1 -0.17845873407983D+01  0.15178830414797D-16
   2   1   1   1 -0.10139649675029D+01  0.26843973046996D-01
   3   1   1   1 -0.91225200418500D+00  0.47139433036447D-06
   1   2   1   1 -0.17168088949310D+00 -0.72969708516305D-01
   2   2   1   1 -0.20721202197591D+00  0.25154922340010D-01
   3   2   1   1 -0.13742887105558D+01 -0.23879339141304D-01
   1   1   2   1 -0.10139649675029D+01 -0.26843973046996D-01
   2   1   2   1 -0.17928639258377D+01  0.87603535536829D-16
   3   1   2   1 -0.91225255083193D+00  0.66988731229528D-06
   1   2   2   1 -0.20721189997449D+00  0.25154424274079D-01
   2   2   2   1 -0.26704458080798D+00  0.31078597643714D+00
   3   2   2   1 -0.13742883849961D+01 -0.23879633501381D-01
   1   1   3   1 -0.91225200418500D+00 -0.47139433043424D-06
   2   1   3   1 -0.91225255083193D+00 -0.66988731231307D-06
   3   1   3   1 -0.18245019992147D+01  0.23418766925687D-16
   1   2   3   1 -0.13742896333524D+01 -0.23878821272196D-01
   2   2   3   1 -0.13742893907557D+01 -0.23878117527018D-01
   3   2   3   1 -0.27485798602454D+01 -0.47757941279700D-01
   1   1   1   2 -0.17168088949310D+00  0.72969708516305D-01
   2   1   1   2 -0.20721189997449D+00 -0.25154424274080D-01
   3   1   1   2 -0.13742896333524D+01  0.23878821272195D-01
   1   2   1   2 -0.17845983088224D+01 -0.99746599868666D-16
   2   2   1   2 -0.10139761648159D+01 -0.26844656390427D-01
   3   2   1   2 -0.91227692059339D+00  0.10277861080540D-06
   1   1   2   2 -0.20721202197591D+00 -0.25154922340010D-01
   2   1   2   2 -0.26704458080798D+00 -0.31078597643714D+00
   3   1   2   2 -0.13742893907557D+01  0.23878117527018D-01
   1   2   2   2 -0.10139761648159D+01  0.26844656390427D-01
   2   2   2   2 -0.17928745256368D+01  0.10842021724855D-15
   3   2   2   2 -0.91227716390073D+00  0.11872227284393D-05
   1   1   3   2 -0.13742887105558D+01  0.23879339141304D-01
   2   1   3   2 -0.13742883849961D+01  0.23879633501380D-01
   3   1   3   2 -0.27485798602454D+01  0.47757941279700D-01
   1   2   3   2 -0.91227692059339D+00 -0.10277861105548D-06
   2   2   3   2 -0.91227716390073D+00 -0.11872227285191D-05
   3   2   3   2 -0.18245536565780D+01 -0.32526065174565D-15
 Band:  5
   1   1   1   1 -0.19039870221795D+01 -0.47271214720368D-16
   2   1   1   1 -0.13272548198550D+01  0.83517332901286D-01
   3   1   1   1 -0.74387449491496D+00 -0.11201006880818D-06
   1   2   1   1  0.76844446549891D+00 -0.98990343882430D-03
   2   2   1   1  0.86508197081906D+00  0.62896472601409D-01
   3   2   1   1  0.13655760977630D+01  0.22920252879572D+00
   1   1   2   1 -0.13272548198550D+01 -0.83517332901286D-01
   2   1   2   1 -0.24163476537186D+01 -0.42327252813834D-15
   3   1   2   1 -0.74387450808822D+00 -0.51377020707016D-07
   1   2   2   1  0.86508200711882D+00  0.62896371233460D-01
   2   2   2   1  0.74596029446408D+00  0.10544857831875D+00
   3   2   2   1  0.13655764379100D+01  0.22920250381785D+00
   1   1   3   1 -0.74387449491496D+00  0.11201006936242D-06
   2   1   3   1 -0.74387450808822D+00  0.51377021900505D-07
   3   1   3   1 -0.14877491284606D+01 -0.19949319973733D-15
   1   2   3   1  0.13655760039012D+01  0.22920258940231D+00
   2   2   3   1  0.13655762648158D+01  0.22920257086995D+00
   3   2   3   1  0.27311515162087D+01  0.45840526295750D+00
   1   1   1   2  0.76844446549891D+00  0.98990343882495D-03
   2   1   1   2  0.86508200711882D+00 -0.62896371233460D-01
   3   1   1   2  0.13655760039012D+01 -0.22920258940231D+00
   1   2   1   2 -0.19039799083269D+01 -0.28622937353617D-16
   2   2   1   2 -0.13272483347404D+01 -0.83517205840405D-01
   3   2   1   2 -0.74386536828040D+00  0.90773269178558D-07
   1   1   2   2  0.86508197081906D+00 -0.62896472601410D-01
   2   1   2   2  0.74596029446408D+00 -0.10544857831875D+00
   3   1   2   2  0.13655762648158D+01 -0.22920257086995D+00
   1   2   2   2 -0.13272483347404D+01  0.83517205840405D-01
   2   2   2   2 -0.24163388195464D+01 -0.17347234759768D-17
   3   2   2   2 -0.74386536253221D+00  0.68352816681083D-07
   1   1   3   2  0.13655760977630D+01 -0.22920252879572D+00
   2   1   3   2  0.13655764379100D+01 -0.22920250381785D+00
   3   1   3   2  0.27311515162087D+01 -0.45840526295750D+00
   1   2   3   2 -0.74386536828040D+00 -0.90773269586651D-07
   2   2   3   2 -0.74386536253221D+00 -0.68352817006344D-07
   3   2   3   2 -0.14877316753480D+01 -0.31745439610376D-15
 K-point: -2.50000000E-01  2.50000000E-01  2.50000000E-01
 Band:  1
   1   1   1   1 -0.25285570375490D+01 -0.52041704279304D-16
   2   1   1   1 -0.13878536932140D+01 -0.47041849760590D-01
   3   1   1   1 -0.13878532075507D+01 -0.47042032404575D-01
   1   2   1   1  0.57972998860174D+00  0.45635686441093D+00
   2   2   1   1  0.55472951787874D+00  0.67005667117047D-01
   3   2   1   1  0.55472977008979D+00  0.67005183205711D-01
   1   1   2   1 -0.13878536932140D+01  0.47041849760590D-01
   2   1   2   1 -0.31471793996025D+01  0.13877787807814D-16
   3   1   2   1 -0.17022096914076D+01  0.10187204833450D-05
   1   2   2   1  0.55472975738998D+00  0.67002387111902D-01
   2   2   2   1  0.13722328443231D+01 -0.36740798599908D-01
   3   2   2   1  0.79275858411402D+00  0.11602157938326D+00
   1   1   3   1 -0.13878532075507D+01  0.47042032404575D-01
   2   1   3   1 -0.17022096914076D+01 -0.10187204833033D-05
   3   1   3   1 -0.31471791191738D+01  0.41633363423443D-16
   1   2   3   1  0.55472999430486D+00  0.67001953708909D-01
   2   2   3   1  0.79275849194439D+00  0.11602139437626D+00
   3   2   3   1  0.13722332736846D+01 -0.36738538164989D-01
   1   1   1   2  0.57972998860174D+00 -0.45635686441093D+00
   2   1   1   2  0.55472975738998D+00 -0.67002387111902D-01
   3   1   1   2  0.55472999430486D+00 -0.67001953708909D-01
   1   2   1   2 -0.25285699939533D+01 -0.38163916471490D-16
   2   2   1   2 -0.13878600293739D+01  0.47038636954237D-01
   3   2   1   2 -0.13878597141977D+01  0.47038859481510D-01
   1   1   2   2  0.55472951787874D+00 -0.67005667117047D-01
   2   1   2   2  0.13722328443231D+01  0.36740798599908D-01
   3   1   2   2  0.79275849194439D+00 -0.11602139437626D+00
   1   2   2   2 -0.13878600293739D+01 -0.47038636954237D-01
   2   2   2   2 -0.31471857416954D+01 -0.43368086899420D-16
   3   2   2   2 -0.17022122312634D+01 -0.11860873083628D-05
   1   1   3   2  0.55472977008979D+00 -0.67005183205711D-01
   2   1   3   2  0.79275858411402D+00 -0.11602157938326D+00
   3   1   3   2  0.13722332736846D+01  0.36738538164989D-01
   1   2   3   2 -0.13878597141977D+01 -0.47038859481510D-01
   2   2   3   2 -0.17022122312634D+01  0.11860873084009D-05
   3   2   3   2 -0.31471865627084D+01  0.17520707107366D-15
 Band:  2
   1   1   1   1 -0.24693509730117D+01 -0.24286128663675D-16
   2   1   1   1 -0.10032953875640D+01 -0.45311746057218D-01
   3   1   1   1 -0.10032967251670D+01 -0.45312562569634D-01
   1   2   1   1  0.56538735211878D+00  0.17912325769665D+00
   2   2   1   1 -0.12104605695052D+00 -0.18566099533620D+00
   3   2   1   1 -0.12104755543727D+00 -0.18566183009373D+00
   1   1   2   1 -0.10032953875640D+01  0.45311746057218D-01
   2   1   2   1 -0.17173571147832D+01  0.34694469519536D-17
   3   1   2   1 -0.48800119893138D+00  0.79309092127768D-06
   1   2   2   1 -0.12104563519568D+00 -0.18566695524159D+00
   2   2   2   1 -0.42300898296815D+00  0.14486113200412D+00
   3   2   2   1 -0.67278329193193D+00 -0.37945115029591D-01
   1   1   3   1 -0.10032967251670D+01  0.45312562569634D-01
   2   1   3   1 -0.48800119893138D+00 -0.79309092115278D-06
   3   1   3   1 -0.17173575383505D+01 -0.12143064331838D-15
   1   2   3   1 -0.12104717690101D+00 -0.18566733932306D+00
   2   2   3   1 -0.67278302979867D+00 -0.37945400057857D-01
   3   2   3   1 -0.42300962955242D+00  0.14486329518329D+00
   1   1   1   2  0.56538735211878D+00 -0.17912325769665D+00
   2   1   1   2 -0.12104563519568D+00  0.18566695524159D+00
   3   1   1   2 -0.12104717690101D+00  0.18566733932306D+00
   1   2   1   2 -0.24693415300112D+01 -0.52041704279304D-16
   2   2   1   2 -0.10032870378655D+01  0.45306129423333D-01
   3   2   1   2 -0.10032881589667D+01  0.45307177355316D-01
   1   1   2   2 -0.12104605695052D+00  0.18566099533620D+00
   2   1   2   2 -0.42300898296815D+00 -0.14486113200412D+00
   3   1   2   2 -0.67278302979867D+00  0.37945400057857D-01
   1   2   2   2 -0.10032870378655D+01 -0.45306129423333D-01
   2   2   2   2 -0.17173471850315D+01 -0.45102810375397D-16
   3   2   2   2 -0.48800082617597D+00 -0.10655367644469D-05
   1   1   3   2 -0.12104755543727D+00  0.18566183009373D+00
   2   1   3   2 -0.67278329193193D+00  0.37945115029591D-01
   3   1   3   2 -0.42300962955242D+00 -0.14486329518329D+00
   1   2   3   2 -0.10032881589667D+01 -0.45307177355317D-01
   2   2   3   2 -0.48800082617597D+00  0.10655367644503D-05
   3   2   3   2 -0.17173474291380D+01 -0.41633363423443D-16
 Band:  3
   1   1   1   1 -0.23465909004672D+01 -0.29360194830907D-15
   2   1   1   1 -0.13810414594842D+01 -0.10758830694026D+00
   3   1   1   1 -0.13810404373445D+01 -0.10758929810676D+00
   1   2   1   1  0.18318242987730D+00  0.22792641792726D-01
   2   2   1   1  0.20133811425353D+00  0.24020401808242D+00
   3   2   1   1  0.20133886404286D+00  0.24020593998482D+00
   1   1   2   1 -0.13810414594842D+01  0.10758830694026D+00
   2   1   2   1 -0.24742912839370D+01  0.69388939039072D-17
   3   1   2   1 -0.10456507987625D+01 -0.71342325610598D-06
   1   2   2   1  0.20133760967496D+00  0.24020428548183D+00
   2   2   2   1  0.50779808362547D+00  0.39543613232464D+00
   3   2   2   1 -0.25644836732493D+00  0.15722272801019D+00
   1   1   3   1 -0.13810404373445D+01  0.10758929810676D+00
   2   1   3   1 -0.10456507987625D+01  0.71342325627945D-06
   3   1   3   1 -0.24742900320473D+01  0.18388068845354D-15
   1   2   3   1  0.20133855447515D+00  0.24020428766925D+00
   2   2   3   1 -0.25644769383045D+00  0.15722042753268D+00
   3   2   3   1  0.50780040601305D+00  0.39543749758993D+00
   1   1   1   2  0.18318242987730D+00 -0.22792641792727D-01
   2   1   1   2  0.20133760967496D+00 -0.24020428548183D+00
   3   1   1   2  0.20133855447515D+00 -0.24020428766925D+00
   1   2   1   2 -0.23466008264261D+01  0.24719809532670D-15
   2   2   1   2 -0.13810514260710D+01  0.10758348289948D+00
   3   2   1   2 -0.13810511155644D+01  0.10758275141479D+00
   1   1   2   2  0.20133811425353D+00 -0.24020401808242D+00
   2   1   2   2  0.50779808362547D+00 -0.39543613232464D+00
   3   1   2   2 -0.25644769383045D+00 -0.15722042753268D+00
   1   2   2   2 -0.13810514260710D+01 -0.10758348289948D+00
   2   2   2   2 -0.24742994861352D+01  0.47878367936960D-15
   3   2   2   2 -0.10456669781157D+01 -0.15143927008916D-05
   1   1   3   2  0.20133886404286D+00 -0.24020593998482D+00
   2   1   3   2 -0.25644836732493D+00 -0.15722272801019D+00
   3   1   3   2  0.50780040601305D+00 -0.39543749758993D+00
   1   2   3   2 -0.13810511155644D+01 -0.10758275141479D+00
   2   2   3   2 -0.10456669781157D+01  0.15143927017329D-05
   3   2   3   2 -0.24742998565332D+01  0.45623227418190D-15
 Band:  4
   1   1   1   1 -0.15495211309983D+01  0.13829205668082D-16
   2   1   1   1 -0.77889800666195D+00  0.26844802058946D-01
   3   1   1   1 -0.77889817831573D+00  0.26843407107880D-01
   1   2   1   1 -0.24301321013267D-01 -0.18750652306618D+00
   2   2   1   1 -0.59832394433484D-01 -0.28563102660681D+00
   3   2   1   1 -0.59832427888903D-01 -0.28563034997992D+00
   1   1   2   1 -0.77889800666195D+00 -0.26844802058946D-01
   2   1   2   1 -0.17928607869723D+01 -0.16219664500383D-15
   3   1   2   1 -0.88061095130802D+00 -0.14189920430678D-05
   1   2   2   1 -0.59832361147951D-01 -0.28563045737602D+00
   2   2   2   1 -0.26704373696960D+00 -0.31078503554836D+00
   3   2   2   1  0.11072453438590D+01 -0.33466328992038D+00
   1   1   3   1 -0.77889817831573D+00 -0.26843407107879D-01
   2   1   3   1 -0.88061095130802D+00  0.14189920430045D-05
   3   1   3   1 -0.17928610056458D+01 -0.24286128663675D-16
   1   2   3   1 -0.59832484874503D-01 -0.28563088089194D+00
   2   2   3   1  0.11072445315899D+01 -0.33466496365703D+00
   3   2   3   1 -0.26704606164715D+00 -0.31078542803173D+00
   1   1   1   2 -0.24301321013267D-01  0.18750652306618D+00
   2   1   1   2 -0.59832361147952D-01  0.28563045737602D+00
   3   1   1   2 -0.59832484874503D-01  0.28563088089194D+00
   1   2   1   2 -0.15495202917410D+01 -0.12246859289439D-16
   2   2   1   2 -0.77889807017101D+00 -0.26844143502842D-01
   3   2   1   2 -0.77889773205960D+00 -0.26844093966742D-01
   1   1   2   2 -0.59832394433484D-01  0.28563102660681D+00
   2   1   2   2 -0.26704373696960D+00  0.31078503554836D+00
   3   1   2   2  0.11072445315899D+01  0.33466496365703D+00
   1   2   2   2 -0.77889807017101D+00  0.26844143502842D-01
   2   2   2   2 -0.17928754442828D+01  0.61582683397177D-16
   3   2   2   2 -0.88059579397340D+00 -0.56215036193913D-06
   1   1   3   2 -0.59832427888903D-01  0.28563034997992D+00
   2   1   3   2  0.11072453438590D+01  0.33466328992038D+00
   3   1   3   2 -0.26704606164715D+00  0.31078542803173D+00
   1   2   3   2 -0.77889773205960D+00  0.26844093966742D-01
   2   2   3   2 -0.88059579397340D+00  0.56215036208918D-06
   3   2   3   2 -0.17928733447843D+01  0.36429192995513D-16
 Band:  5
   1   1   1   1 -0.16658258078516D+01  0.48572257327351D-16
   2   1   1   1 -0.10890922227883D+01  0.83517117608254D-01
   3   1   1   1 -0.10890923831013D+01  0.83517161221127D-01
   1   2   1   1 -0.21575883476832D+00  0.21334088910497D-01
   2   2   1   1 -0.11912112294349D+00 -0.42551862966666D-01
   3   2   1   1 -0.11912125029381D+00 -0.42551971342518D-01
   1   1   2   1 -0.10890922227883D+01 -0.83517117608254D-01
   2   1   2   1 -0.24163460444667D+01 -0.37816971776294D-15
   3   1   2   1 -0.16724720025589D+01 -0.16449913908418D-06
   1   2   2   1 -0.11912108027009D+00 -0.42552046446261D-01
   2   2   2   1  0.74596229190274D+00 -0.10544792143327D+00
   3   2   2   1 -0.61961468834075D+00  0.12375444179946D+00
   1   1   3   1 -0.10890923831013D+01 -0.83517161221127D-01
   2   1   3   1 -0.16724720025589D+01  0.16449913903387D-06
   3   1   3   1 -0.24163476219198D+01 -0.40592529337857D-15
   1   2   3   1 -0.11912127764214D+00 -0.42552220879416D-01
   2   2   3   1 -0.61961487120791D+00  0.12375435541451D+00
   3   2   3   1  0.74596032621067D+00 -0.10544851805345D+00
   1   1   1   2 -0.21575883476832D+00 -0.21334088910497D-01
   2   1   1   2 -0.11912108027009D+00  0.42552046446260D-01
   3   1   1   2 -0.11912127764214D+00  0.42552220879415D-01
   1   2   1   2 -0.16658203319758D+01 -0.13183898417424D-15
   2   2   1   2 -0.10890889692018D+01 -0.83517277673948D-01
   3   2   1   2 -0.10890891284068D+01 -0.83517332117002D-01
   1   1   2   2 -0.11912112294349D+00  0.42551862966666D-01
   2   1   2   2  0.74596229190274D+00  0.10544792143327D+00
   3   1   2   2 -0.61961487120791D+00 -0.12375435541451D+00
   1   2   2   2 -0.10890889692018D+01  0.83517277673948D-01
   2   2   2   2 -0.24163359512980D+01 -0.22204460492503D-15
   3   2   2   2 -0.16724708824230D+01  0.15781606672215D-06
   1   1   3   2 -0.11912125029381D+00  0.42551971342518D-01
   2   1   3   2 -0.61961468834075D+00 -0.12375444179946D+00
   3   1   3   2  0.74596032621067D+00  0.10544851805345D+00
   1   2   3   2 -0.10890891284068D+01  0.83517332117002D-01
   2   2   3   2 -0.16724708824230D+01 -0.15781606651919D-06
   3   2   3   2 -0.24163369922416D+01 -0.64184768611142D-16
 K-point:  2.50000000E-01  5.00000000E-01  0.00000000E+00
 Band:  1
   1   1   1   1 -0.31471783353713D+01 -0.72641545556529D-17
   2   1   1   1 -0.17593245116824D+01  0.47042167487444D-01
   3   1   1   1 -0.14449681161819D+01  0.44857166927197D-06
   1   2   1   1  0.13722330184409D+01  0.36738931209409D-01
   2   2   1   1  0.81750255866525D+00  0.10374092047034D+00
   3   2   1   1  0.57947399737072D+00  0.15276147536511D+00
   1   1   2   1 -0.17593245116824D+01 -0.47042167487444D-01
   2   1   2   1 -0.29000279672446D+01 -0.10896231833479D-15
   3   1   2   1 -0.14449680478434D+01  0.78118703954525D-06
   1   2   2   1  0.81750276638585D+00  0.10374426199017D+00
   2   2   2   1  0.84250183209471D+00 -0.28561058218675D+00
   3   2   2   1  0.57947440905787D+00  0.15276163596969D+00
   1   1   3   1 -0.14449681161819D+01 -0.44857166928542D-06
   2   1   3   1 -0.14449680478434D+01 -0.78118703960249D-06
   3   1   3   1 -0.28899375100861D+01  0.71123662515049D-16
   1   2   3   1  0.57947388036204D+00  0.15276169807084D+00
   2   2   3   1  0.57947432819221D+00  0.15276196969396D+00
   3   2   3   1  0.11589487856181D+01  0.30552218289802D+00
   1   1   1   2  0.13722330184409D+01 -0.36738931209409D-01
   2   1   1   2  0.81750276638585D+00 -0.10374426199017D+00
   3   1   1   2  0.57947388036204D+00 -0.15276169807084D+00
   1   2   1   2 -0.31471868687900D+01  0.57462715141732D-17
   2   2   1   2 -0.17593264167633D+01 -0.47038737474445D-01
   3   2   1   2 -0.14449743915334D+01 -0.24740607743388D-06
   1   1   2   2  0.81750255866525D+00 -0.10374092047034D+00
   2   1   2   2  0.84250183209471D+00  0.28561058218675D+00
   3   1   2   2  0.57947432819221D+00 -0.15276196969396D+00
   1   2   2   2 -0.17593264167633D+01  0.47038737474445D-01
   2   2   2   2 -0.29000358397595D+01  0.11110361762545D-15
   3   2   2   2 -0.14449742034689D+01 -0.50428599727418D-06
   1   1   3   2  0.57947399737072D+00 -0.15276147536511D+00
   2   1   3   2  0.57947440905787D+00 -0.15276163596969D+00
   3   1   3   2  0.11589487856181D+01 -0.30552218289802D+00
   1   2   3   2 -0.14449743915334D+01  0.24740607735192D-06
   2   2   3   2 -0.14449742034689D+01  0.50428599730888D-06
   3   2   3   2 -0.28899488339131D+01  0.11535911115246D-15
 Band:  2
   1   1   1   1 -0.17173584728460D+01 -0.90639301619788D-16
   2   1   1   1 -0.71406145676374D+00  0.45312555269681D-01
   3   1   1   1 -0.12293565823721D+01  0.73002654521748D-06
   1   2   1   1 -0.42300954946480D+00 -0.14486287118474D+00
   2   2   1   1 -0.30196230530550D+00 -0.33053045076975D+00
   3   2   1   1  0.24977371920959D+00 -0.18280723742589D+00
   1   1   2   1 -0.71406145676375D+00 -0.45312555269681D-01
   2   1   2   1 -0.21801166959300D+01  0.14311468676809D-15
   3   1   2   1 -0.12293569459425D+01  0.10657076949661D-05
   1   2   2   1 -0.30196221007022D+00 -0.33052490022427D+00
   2   2   2   1  0.38447360812461D+00 -0.69531521680701D+00
   3   2   2   1  0.24977333945657D+00 -0.18280710686521D+00
   1   1   3   1 -0.12293565823721D+01 -0.73002654515915D-06
   2   1   3   1 -0.12293569459425D+01 -0.10657076949713D-05
   3   1   3   1 -0.24587129217059D+01  0.59847959921200D-16
   1   2   3   1  0.24977401862681D+00 -0.18280685584679D+00
   2   2   3   1  0.24977370586169D+00 -0.18280618185378D+00
   3   2   3   1  0.49954779010708D+00 -0.36561500653148D+00
   1   1   1   2 -0.42300954946480D+00  0.14486287118474D+00
   2   1   1   2 -0.30196221007022D+00  0.33052490022427D+00
   3   1   1   2  0.24977401862681D+00  0.18280685584679D+00
   1   2   1   2 -0.17173470419811D+01 -0.23201926491190D-16
   2   2   1   2 -0.71406010819344D+00 -0.45306649473817D-01
   3   2   1   2 -0.12293463746320D+01 -0.37038201399317D-06
   1   1   2   2 -0.30196230530550D+00  0.33053045076975D+00
   2   1   2   2  0.38447360812461D+00  0.69531521680701D+00
   3   1   2   2  0.24977370586169D+00  0.18280618185378D+00
   1   2   2   2 -0.71406010819343D+00  0.45306649473817D-01
   2   2   2   2 -0.21801143600829D+01 -0.76934986159571D-15
   3   2   2   2 -0.12293470436946D+01 -0.41453496419434D-06
   1   1   3   2  0.24977371920959D+00  0.18280723742589D+00
   2   1   3   2  0.24977333945657D+00  0.18280710686521D+00
   3   1   3   2  0.49954779010708D+00  0.36561500653148D+00
   1   2   3   2 -0.12293463746320D+01  0.37038201396867D-06
   2   2   3   2 -0.12293470436946D+01  0.41453496407898D-06
   3   2   3   2 -0.24586927840747D+01 -0.71991024253037D-16
 Band:  3
   1   1   1   1 -0.24742877533174D+01 -0.10668549377257D-15
   2   1   1   1 -0.10932484092868D+01  0.10758912961294D+00
   3   1   1   1 -0.14286378716583D+01  0.12030062318575D-05
   1   2   1   1  0.50779884860697D+00 -0.39543665709656D+00
   2   2   1   1  0.30646087881420D+00 -0.15523271299461D+00
   3   2   1   1  0.76424621905303D+00 -0.23821587187239D+00
   1   1   2   1 -0.10932484092868D+01 -0.10758912961294D+00
   2   1   2   1 -0.20587992229240D+01 -0.27484525072508D-16
   3   1   2   1 -0.14286379755672D+01  0.27422542897078D-06
   1   2   2   1  0.30646084643757D+00 -0.15523135899297D+00
   2   2   2   1  0.28830445278024D+00  0.62179995950075D-01
   3   2   2   1  0.76424682034270D+00 -0.23821510308579D+00
   1   1   3   1 -0.14286378716583D+01 -0.12030062320752D-05
   2   1   3   1 -0.14286379755672D+01 -0.27422542890270D-06
   3   1   3   1 -0.28572772542539D+01  0.23201926491190D-16
   1   2   3   1  0.76424699023011D+00 -0.23821364742522D+00
   2   2   3   1  0.76424736137352D+00 -0.23821485090135D+00
   3   2   3   1  0.15284946445332D+01 -0.47642973847926D+00
   1   1   1   2  0.50779884860697D+00  0.39543665709656D+00
   2   1   1   2  0.30646084643757D+00  0.15523135899297D+00
   3   1   1   2  0.76424699023011D+00  0.23821364742522D+00
   1   2   1   2 -0.24742985906696D+01  0.30357660829594D-17
   2   2   1   2 -0.10932476309042D+01 -0.10758282208990D+00
   3   2   1   2 -0.14286335895932D+01  0.94086258606476D-06
   1   1   2   2  0.30646087881420D+00  0.15523271299461D+00
   2   1   2   2  0.28830445278024D+00 -0.62179995950075D-01
   3   1   2   2  0.76424736137352D+00  0.23821485090135D+00
   1   2   2   2 -0.10932476309042D+01  0.10758282208990D+00
   2   2   2   2 -0.20587976671101D+01 -0.14799359654427D-15
   3   2   2   2 -0.14286330104852D+01  0.13564263964018D-06
   1   1   3   2  0.76424621905303D+00  0.23821587187239D+00
   2   1   3   2  0.76424682034270D+00  0.23821510308579D+00
   3   1   3   2  0.15284946445332D+01  0.47642973847926D+00
   1   2   3   2 -0.14286335895932D+01 -0.94086258615800D-06
   2   2   3   2 -0.14286330104852D+01 -0.13564263968615D-06
   3   2   3   2 -0.28572669457045D+01 -0.10842021724855D-17
 Band:  4
   1   1   1   1 -0.17928633086966D+01  0.76327832942980D-16
   2   1   1   1 -0.10139650050440D+01 -0.26843556524152D-01
   3   1   1   1 -0.91225253956437D+00  0.98911812121990D-06
   1   2   1   1 -0.26704421766026D+00  0.31078566694713D+00
   2   2   1   1 -0.20721181985095D+00  0.25154698683452D-01
   3   2   1   1 -0.13742881841433D+01 -0.23879582175076D-01
   1   1   2   1 -0.10139650050440D+01  0.26843556524152D-01
   2   1   2   1 -0.17845879358474D+01  0.16479873021780D-16
   3   1   2   1 -0.91225216016992D+00  0.26558398920548D-06
   1   2   2   1 -0.20721187533846D+00  0.25155219185852D-01
   2   2   2   1 -0.17168089918419D+00 -0.72969260900418D-01
   3   2   2   1 -0.13742883252473D+01 -0.23878820313623D-01
   1   1   3   1 -0.91225253956437D+00 -0.98911812105770D-06
   2   1   3   1 -0.91225216016992D+00 -0.26558398922277D-06
   3   1   3   1 -0.18245021990558D+01  0.36429192995513D-16
   1   2   3   1 -0.13742891556445D+01 -0.23877972701350D-01
   2   2   3   1 -0.13742892282055D+01 -0.23878255962910D-01
[...]
   1   2   1   1 -0.39148346982202D+00 -0.47424543837882D+00
   2   2   1   1 -0.10836114795245D+00  0.49432290546223D+00
   3   2   1   1  0.84111915466571D-01 -0.91057108897248D-01
   1   1   2   1 -0.61753897860982D+00  0.46206495527168D+00
   2   1   2   1 -0.18062513123638D+01  0.12143064331838D-16
   3   1   2   1 -0.56088905364834D+00  0.23715626496444D+00
   1   2   2   1 -0.10835663483590D+00  0.49431988876063D+00
   2   2   2   1 -0.13437937196120D-01  0.54294065134440D+00
   3   2   2   1 -0.42856499404420D+00  0.21743274950209D+00
   1   1   3   1 -0.88961150440316D+00 -0.18262784431371D-02
   2   1   3   1 -0.56088905364834D+00 -0.23715626496444D+00
   3   1   3   1 -0.16428453986022D+01  0.31225022567583D-16
   1   2   3   1  0.84113311330746D-01 -0.91057948268667D-01
   2   2   3   1 -0.42856475989939D+00  0.21744024425175D+00
   3   2   3   1 -0.28510567765266D+00  0.30219875540865D-01
   1   1   1   2 -0.39148346982202D+00  0.47424543837882D+00
   2   1   1   2 -0.10835663483590D+00 -0.49431988876063D+00
   3   1   1   2  0.84113311330746D-01  0.91057948268667D-01
   1   2   1   2 -0.22108902912520D+01  0.32959746043559D-16
   2   2   1   2 -0.61754415029127D+00  0.46206198649016D+00
   3   2   1   2 -0.88960886564673D+00 -0.18245506861970D-02
   1   1   2   2 -0.10836114795245D+00 -0.49432290546223D+00
   2   1   2   2 -0.13437937196119D-01 -0.54294065134440D+00
   3   1   2   2 -0.42856475989939D+00 -0.21744024425175D+00
   1   2   2   2 -0.61754415029127D+00 -0.46206198649016D+00
   2   2   2   2 -0.18062513837746D+01 -0.54470317145672D-15
   3   2   2   2 -0.56088909020713D+00 -0.23714752337861D+00
   1   1   3   2  0.84111915466571D-01  0.91057108897248D-01
   2   1   3   2 -0.42856499404420D+00 -0.21743274950209D+00
   3   1   3   2 -0.28510567765266D+00 -0.30219875540865D-01
   1   2   3   2 -0.88960886564673D+00  0.18245506861971D-02
   2   2   3   2 -0.56088909020713D+00  0.23714752337861D+00
   3   2   3   2 -0.16428352529539D+01  0.29490299091606D-16
 Band:  3
   1   1   1   1 -0.14027352541320D+01 -0.39898639947467D-16
   2   1   1   1 -0.30357373380212D+00  0.15444737419158D+00
   3   1   1   1 -0.29210840745033D+00  0.41480415484944D-01
   1   2   1   1 -0.71085796217482D+00 -0.51828639277453D-01
   2   2   1   1 -0.44979942146265D+00 -0.29775276269005D+00
   3   2   1   1 -0.74088004913228D+00  0.50406275850620D+00
   1   1   2   1 -0.30357373380212D+00 -0.15444737419158D+00
   2   1   2   1 -0.13635392761055D+01 -0.95409791178724D-16
   3   1   2   1 -0.50311707804375D+00  0.25736478335488D+00
   1   2   2   1 -0.44980163447493D+00 -0.29775081039386D+00
   2   2   2   1 -0.21860552319290D+00 -0.27989053836150D+00
   3   2   2   1 -0.39176403895257D+00 -0.18292828641077D+00
   1   1   3   1 -0.29210840745033D+00 -0.41480415484944D-01
   2   1   3   1 -0.50311707804375D+00 -0.25736478335488D+00
   3   1   3   1 -0.21762306829873D+01  0.20643209364124D-15
   1   2   3   1 -0.74088159280151D+00  0.50406665984940D+00
   2   2   3   1 -0.39176422651423D+00 -0.18292609828997D+00
   3   2   3   1 -0.10026520442037D+00 -0.12533019815094D+00
   1   1   1   2 -0.71085796217482D+00  0.51828639277453D-01
   2   1   1   2 -0.44980163447493D+00  0.29775081039386D+00
   3   1   1   2 -0.74088159280151D+00 -0.50406665984940D+00
   1   2   1   2 -0.14027344723467D+01  0.39898639947467D-16
   2   2   1   2 -0.30357446834715D+00 -0.15444524592643D+00
   3   2   1   2 -0.29210867184428D+00 -0.41477477162455D-01
   1   1   2   2 -0.44979942146265D+00  0.29775276269005D+00
   2   1   2   2 -0.21860552319290D+00  0.27989053836150D+00
   3   1   2   2 -0.39176422651422D+00  0.18292609828997D+00
   1   2   2   2 -0.30357446834715D+00  0.15444524592643D+00
   2   2   2   2 -0.13635421402755D+01  0.00000000000000D+00
   3   2   2   2 -0.50311886781530D+00 -0.25735706337291D+00
   1   1   3   2 -0.74088004913228D+00 -0.50406275850620D+00
   2   1   3   2 -0.39176403895257D+00  0.18292828641077D+00
   3   1   3   2 -0.10026520442037D+00  0.12533019815094D+00
   1   2   3   2 -0.29210867184427D+00  0.41477477162455D-01
   2   2   3   2 -0.50311886781530D+00  0.25735706337291D+00
   3   2   3   2 -0.21762419028641D+01 -0.95409791178724D-16
 Band:  4
   1   1   1   1 -0.29032739659426D+01 -0.13183898417424D-15
   2   1   1   1 -0.18786499819428D+01 -0.68570750296725D-01
   3   1   1   1 -0.18254624282733D+01 -0.36491636093503D+00
   1   2   1   1 -0.72133850169438D+00  0.44434889439057D+00
   2   2   1   1  0.33177167158246D+00  0.26006227937204D+00
   3   2   1   1  0.37778664345148D+00  0.26859661224576D+00
   1   1   2   1 -0.18786499819428D+01  0.68570750296725D-01
   2   1   2   1 -0.27982904044475D+01  0.42934406030426D-16
   3   1   2   1 -0.15839459686773D+01  0.15602951511704D+00
   1   2   2   1  0.33177187462397D+00  0.26006225302399D+00
   2   2   2   1  0.15517440841093D+01  0.15375108243116D+00
   3   2   2   1  0.62814043229408D+00 -0.75737002065147D-01
   1   1   3   1 -0.18254624282733D+01  0.36491636093503D+00
   2   1   3   1 -0.15839459686773D+01 -0.15602951511704D+00
   3   1   3   1 -0.19702820391534D+01  0.11102230246252D-15
   1   2   3   1  0.37779107697965D+00  0.26859609707324D+00
   2   2   3   1  0.62814265966674D+00 -0.75734901839533D-01
   3   2   3   1  0.54654330966527D+00 -0.65754230600183D-01
   1   1   1   2 -0.72133850169438D+00 -0.44434889439057D+00
   2   1   1   2  0.33177187462397D+00 -0.26006225302399D+00
   3   1   1   2  0.37779107697965D+00 -0.26859609707324D+00
   1   2   1   2 -0.29033066898091D+01  0.16479873021780D-15
   2   2   1   2 -0.18786603531432D+01  0.68568758955741D-01
   3   2   1   2 -0.18254766767885D+01  0.36491614589225D+00
   1   1   2   2  0.33177167158246D+00 -0.26006227937204D+00
   2   1   2   2  0.15517440841093D+01 -0.15375108243116D+00
   3   1   2   2  0.62814265966674D+00  0.75734901839533D-01
   1   2   2   2 -0.18786603531432D+01 -0.68568758955741D-01
   2   2   2   2 -0.27982951854302D+01 -0.40766001685455D-16
   3   2   2   2 -0.15839497466709D+01 -0.15602662383220D+00
   1   1   3   2  0.37778664345147D+00 -0.26859661224576D+00
   2   1   3   2  0.62814043229407D+00  0.75737002065148D-01
   3   1   3   2  0.54654330966527D+00  0.65754230600183D-01
   1   2   3   2 -0.18254766767885D+01 -0.36491614589225D+00
   2   2   3   2 -0.15839497466709D+01  0.15602662383219D+00
   3   2   3   2 -0.19702860384246D+01 -0.39551695252271D-15
 Band:  5
   1   1   1   1 -0.83342254779847D+00  0.76327832942980D-16
   2   1   1   1 -0.21666293036972D+00  0.40060451576734D+00
   3   1   1   1 -0.48002357709869D+00  0.63991288034085D+00
   1   2   1   1  0.39664939175817D-02 -0.13150109274508D+01
   2   2   1   1 -0.36742325112979D+00 -0.81322512697176D+00
   3   2   1   1  0.61482268468814D-01 -0.72152880372213D+00
   1   1   2   1 -0.21666293036972D+00 -0.40060451576734D+00
   2   1   2   1 -0.13658396877119D+01 -0.17347234759768D-17
   3   1   2   1 -0.98537241581173D+00  0.77092281336658D-01
   1   2   2   1 -0.36742811853976D+00 -0.81322748613789D+00
   2   2   2   1 -0.44163368864664D+00 -0.43933347356378D+00
   3   2   2   1 -0.21387008532110D+00 -0.27920353163636D+00
   1   1   3   1 -0.48002357709869D+00 -0.63991288034085D+00
   2   1   3   1 -0.98537241581173D+00 -0.77092281336658D-01
   3   1   3   1 -0.23081882999795D+01  0.33306690738755D-15
   1   2   3   1  0.61479429959763D-01 -0.72152849935410D+00
   2   2   3   1 -0.21386898349027D+00 -0.27920105849129D+00
   3   2   3   1  0.18573257588078D+00 -0.18684305727523D+00
   1   1   1   2  0.39664939175817D-02  0.13150109274508D+01
   2   1   1   2 -0.36742811853976D+00  0.81322748613789D+00
   3   1   1   2  0.61479429959763D-01  0.72152849935410D+00
   1   2   1   2 -0.83340999370168D+00  0.55511151231258D-16
   2   2   1   2 -0.21665658880662D+00 -0.40060479586130D+00
   3   2   1   2 -0.48001694450951D+00 -0.63991037479388D+00
   1   1   2   2 -0.36742325112979D+00  0.81322512697176D+00
   2   1   2   2 -0.44163368864664D+00  0.43933347356378D+00
   3   1   2   2 -0.21386898349027D+00  0.27920105849129D+00
   1   2   2   2 -0.21665658880662D+00  0.40060479586130D+00
   2   2   2   2 -0.13658364756486D+01  0.26020852139652D-16
   3   2   2   2 -0.98536872502514D+00 -0.77090274041332D-01
   1   1   3   2  0.61482268468815D-01  0.72152880372213D+00
   2   1   3   2 -0.21387008532110D+00  0.27920353163636D+00
   3   1   3   2  0.18573257588078D+00  0.18684305727523D+00
   1   2   3   2 -0.48001694450951D+00  0.63991037479388D+00
   2   2   3   2 -0.98536872502514D+00  0.77090274041332D-01
   3   2   3   2 -0.23081810950367D+01 -0.20816681711722D-15
 K-point:  0.00000000E+00  0.00000000E+00 -2.50000000E-01
 Band:  1
   1   1   1   1 -0.46987015895891D+01  0.30357660829594D-17
   2   1   1   1 -0.12150659636510D+01 -0.14886725577639D-05
   3   1   1   1 -0.13434806487464D+01 -0.61770283174339D-01
   1   2   1   1  0.58362131384196D+00 -0.88663539550628D+00
   2   2   1   1  0.52016471006737D+00 -0.71147272958539D-01
   3   2   1   1  0.62441354924642D+00  0.36886883587712D-01
   1   1   2   1 -0.12150659636510D+01  0.14886725577587D-05
   2   1   2   1 -0.24301256062325D+01 -0.21684043449710D-16
   3   1   2   1 -0.12150604693980D+01 -0.58417179942894D-06
   1   2   2   1  0.52016587423773D+00 -0.71147098746643D-01
   2   2   2   1  0.10403285975112D+01 -0.14229417084034D+00
   3   2   2   1  0.52016198049971D+00 -0.71146738216996D-01
   1   1   3   1 -0.13434806487464D+01  0.61770283174339D-01
   2   1   3   1 -0.12150604693980D+01  0.58417179939772D-06
   3   1   3   1 -0.24367741380353D+01  0.52041704279304D-17
   1   2   3   1  0.62441417611392D+00  0.36885863385272D-01
   2   2   3   1  0.52016196795516D+00 -0.71146512057546D-01
   3   2   3   1  0.99963468387813D+00  0.65526147130718D-01
   1   1   1   2  0.58362131384196D+00  0.88663539550628D+00
   2   1   1   2  0.52016587423773D+00  0.71147098746643D-01
   3   1   1   2  0.62441417611392D+00 -0.36885863385272D-01
   1   2   1   2 -0.46986717095531D+01  0.58113236445223D-16
   2   2   1   2 -0.12150683304419D+01  0.18847304695144D-05
   3   2   1   2 -0.13434809410659D+01  0.61769244419987D-01
   1   1   2   2  0.52016471006737D+00  0.71147272958539D-01
   2   1   2   2  0.10403285975112D+01  0.14229417084034D+00
   3   1   2   2  0.52016196795516D+00  0.71146512057546D-01
   1   2   2   2 -0.12150683304419D+01 -0.18847304694815D-05
   2   2   2   2 -0.24301280104961D+01  0.76327832942980D-16
   3   2   2   2 -0.12150622249560D+01  0.79240490619445D-06
   1   1   3   2  0.62441354924642D+00 -0.36886883587712D-01
   2   1   3   2  0.52016198049971D+00  0.71146738216996D-01
   3   1   3   2  0.99963468387813D+00 -0.65526147130718D-01
   1   2   3   2 -0.13434809410659D+01 -0.61769244419987D-01
   2   2   3   2 -0.12150622249560D+01 -0.79240490618752D-06
   3   2   3   2 -0.24367763479258D+01 -0.11969591984240D-15
 Band:  2
   1   1   1   1 -0.88736258333907D+01  0.20816681711722D-16
   2   1   1   1 -0.18016788869343D+01  0.77591806608244D-05
   3   1   1   1  0.37149396879145D+01  0.15668779604987D+01
   1   2   1   1  0.45251152012094D+01  0.49410094504469D+01
   2   2   1   1  0.78918035507229D+00  0.60756058097173D+00
   3   2   1   1 -0.45189550392597D+01 -0.16043055438888D+01
   1   1   2   1 -0.18016788869343D+01 -0.77591806608279D-05
   2   1   2   1 -0.36033451583041D+01 -0.20816681711722D-16
   3   1   2   1 -0.18016652937860D+01  0.34828999217045D-05
   1   2   2   1  0.78918839155821D+00  0.60755980404061D+00
   2   2   2   1  0.15783537413591D+01  0.12151247198554D+01
   3   2   2   1  0.78917059246488D+00  0.60755981067616D+00
   1   1   3   1  0.37149396879145D+01 -0.15668779604987D+01
   2   1   3   1 -0.18016652937860D+01 -0.34828999217028D-05
   3   1   3   1 -0.67487127425211D+01  0.17347234759768D-17
   1   2   3   1 -0.45189254702419D+01 -0.16043034328646D+01
   2   2   3   1  0.78917462009874D+00  0.60756178805995D+00
   3   2   3   1  0.44430099748200D+01  0.13698067418092D+01
   1   1   1   2  0.45251152012094D+01 -0.49410094504469D+01
   2   1   1   2  0.78918839155821D+00 -0.60755980404061D+00
   3   1   1   2 -0.45189254702419D+01  0.16043034328646D+01
   1   2   1   2 -0.88734929946759D+01 -0.29490299091606D-16
   2   2   1   2 -0.18016636611875D+01 -0.14282005633305D-04
   3   2   1   2  0.37148721006587D+01 -0.15668650816480D+01
   1   1   2   2  0.78918035507229D+00 -0.60756058097173D+00
   2   1   2   2  0.15783537413591D+01 -0.12151247198554D+01
   3   1   2   2  0.78917462009874D+00 -0.60756178805995D+00
   1   2   2   2 -0.18016636611875D+01  0.14282005633328D-04
   2   2   2   2 -0.36033269760876D+01  0.48572257327351D-16
   3   2   2   2 -0.18016621469151D+01 -0.24984660217720D-05
   1   1   3   2 -0.45189550392597D+01  0.16043055438888D+01
   2   1   3   2  0.78917059246488D+00 -0.60755981067616D+00
   3   1   3   2  0.44430099748200D+01 -0.13698067418092D+01
   1   2   3   2  0.37148721006587D+01  0.15668650816480D+01
   2   2   3   2 -0.18016621469151D+01  0.24984660217200D-05
   3   2   3   2 -0.67486857954451D+01  0.91940344226771D-16
 Band:  3
   1   1   1   1 -0.37683811803289D+01  0.16740081543176D-15
   2   1   1   1 -0.20710948977888D+00  0.15237246663838D-01
   3   1   1   1 -0.16513872497318D+01 -0.41960594902839D+00
   1   2   1   1 -0.10413292313140D+01 -0.83385509378686D-01
   2   2   1   1 -0.15127800927641D-01  0.22606633837592D+00
   3   2   1   1  0.50525306614038D-01  0.36724128525521D+00
   1   1   2   1 -0.20710948977888D+00 -0.15237246663838D-01
   2   1   2   1 -0.39687806965666D+00  0.45970172113385D-16
   3   1   2   1 -0.18738598152997D+00  0.76438697622128D-02
   1   2   2   1 -0.15129636232376D-01  0.22605327934718D+00
   2   2   2   1 -0.10255380117530D+00  0.58908438204320D+00
   3   2   2   1 -0.72262136594312D-01  0.29280627312059D+00
   1   1   3   1 -0.16513872497318D+01  0.41960594902839D+00
   2   1   3   1 -0.18738598152997D+00 -0.76438697622127D-02
   3   1   3   1 -0.17800497594174D+01 -0.19515639104739D-16
   1   2   3   1  0.50527845344495D-01  0.36723841010531D+00
   2   2   3   1 -0.72260080436239D-01  0.29281488118254D+00
   3   2   3   1  0.53681913012610D+00  0.21759510175211D+00
   1   1   1   2 -0.10413292313140D+01  0.83385509378686D-01
   2   1   1   2 -0.15129636232375D-01 -0.22605327934718D+00
   3   1   1   2  0.50527845344495D-01 -0.36723841010531D+00
   1   2   1   2 -0.37684141065312D+01  0.22638141361497D-15
   2   2   1   2 -0.20711375986948D+00 -0.15253361945433D-01
   3   2   1   2 -0.16513990278338D+01  0.41960087750040D+00
   1   1   2   2 -0.15127800927640D-01 -0.22606633837592D+00
   2   1   2   2 -0.10255380117530D+00 -0.58908438204320D+00
   3   1   2   2 -0.72260080436239D-01 -0.29281488118254D+00
   1   2   2   2 -0.20711375986948D+00  0.15253361945433D-01
   2   2   2   2 -0.39688614945463D+00  0.26020852139652D-16
   3   2   2   2 -0.18739227238711D+00 -0.76351325411739D-02
   1   1   3   2  0.50525306614039D-01 -0.36724128525521D+00
   2   1   3   2 -0.72262136594312D-01 -0.29280627312059D+00
   3   1   3   2  0.53681913012610D+00 -0.21759510175211D+00
   1   2   3   2 -0.16513990278338D+01 -0.41960087750040D+00
   2   2   3   2 -0.18739227238711D+00  0.76351325411740D-02
   3   2   3   2 -0.17800581386669D+01  0.57245874707235D-16
 Band:  4
   1   1   1   1  0.22014469910919D+01 -0.22551405187698D-15
   2   1   1   1 -0.22152670699301D+01 -0.15236932862784D-01
   3   1   1   1  0.43294705515901D+00 -0.47457246240103D+00
   1   2   1   1 -0.46868148596284D+01  0.13648878561238D+01
   2   2   1   1 -0.10699667889190D+01 -0.46701272504907D+00
   3   2   1   1 -0.21029858049647D+01  0.80652171854788D-01
   1   1   2   1 -0.22152670699301D+01  0.15236932862783D-01
   2   1   2   1 -0.44478704601333D+01 -0.65399075044326D-15
   3   1   2   1 -0.22349930386159D+01 -0.76444814526665D-02
   1   2   2   1 -0.10699672208729D+01 -0.46699943138465D+00
   2   2   2   1 -0.20676412622164D+01 -0.10709706445531D+01
   3   2   2   1 -0.10128333105144D+01 -0.53374836926607D+00
   1   1   3   1  0.43294705515901D+00  0.47457246240103D+00
   2   1   3   1 -0.22349930386159D+01  0.76444814526663D-02
   3   1   3   1 -0.16879852455273D+01  0.12836953722228D-15
   1   2   3   1 -0.21029792051976D+01  0.80658259332755D-01
   2   2   3   1 -0.10128348686544D+01 -0.53375564067200D+00
   3   2   3   1 -0.96282895938236D+00 -0.70515329120154D+00
   1   1   1   2 -0.46868148596284D+01 -0.13648878561238D+01
   2   1   1   2 -0.10699672208729D+01  0.46699943138465D+00
   3   1   1   2 -0.21029792051976D+01 -0.80658259332755D-01
   1   2   1   2  0.22013709040882D+01  0.27582103268031D-15
   2   2   1   2 -0.22153012386301D+01  0.15253212170353D-01
   3   2   1   2  0.43291126894505D+00  0.47457734557905D+00
   1   1   2   2 -0.10699667889190D+01  0.46701272504907D+00
   2   1   2   2 -0.20676412622164D+01  0.10709706445531D+01
   3   1   2   2 -0.10128348686544D+01  0.53375564067200D+00
   1   2   2   2 -0.22153012386301D+01 -0.15253212170353D-01
   2   2   2   2 -0.44479443827115D+01 -0.80491169285324D-15
   3   2   2   2 -0.22350247148485D+01  0.76367876335226D-02
   1   1   3   2 -0.21029858049647D+01 -0.80652171854788D-01
   2   1   3   2 -0.10128333105144D+01  0.53374836926607D+00
   3   1   3   2 -0.96282895938236D+00  0.70515329120154D+00
   1   2   3   2  0.43291126894504D+00 -0.47457734557905D+00
   2   2   3   2 -0.22350247148485D+01 -0.76367876335222D-02
   3   2   3   2 -0.16880055081209D+01  0.40245584642662D-15
 Band:  5
   1   1   1   1 -0.47168730418499D+00  0.47878367936960D-15
   2   1   1   1 -0.12373041973882D+01  0.16790058535640D-06
   3   1   1   1  0.56490353422879D+00  0.57709331010087D-01
   1   2   1   1 -0.15682484559874D+01  0.68259331920083D-01
   2   2   1   1  0.72181197730128D+00 -0.12219060108864D+00
   3   2   1   1 -0.13505158516372D+01 -0.38128214088774D+00
   1   1   2   1 -0.12373041973882D+01 -0.16790058526620D-06
   2   1   2   1 -0.24745860820537D+01  0.10408340855861D-15
   3   1   2   1 -0.12372963166009D+01  0.19814267012485D-05
   1   2   2   1  0.72180950504129D+00 -0.12219327947929D+00
   2   2   2   1  0.14436066502665D+01 -0.24438071510811D+00
   3   2   2   1  0.72180636047866D+00 -0.12219083617430D+00
   1   1   3   1  0.56490353422879D+00 -0.57709331010087D-01
   2   1   3   1 -0.12372963166009D+01 -0.19814267008842D-05
   3   1   3   1 -0.18846339995899D+01 -0.16653345369377D-15
   1   2   3   1 -0.13505159399161D+01 -0.38127727873277D+00
   2   2   3   1  0.72180734115682D+00 -0.12218945397025D+00
   3   2   3   1 -0.13286782915639D+01 -0.13737161687678D+00
   1   1   1   2 -0.15682484559874D+01 -0.68259331920083D-01
   2   1   1   2  0.72180950504129D+00  0.12219327947929D+00
   3   1   1   2 -0.13505159399161D+01  0.38127727873277D+00
   1   2   1   2 -0.47172103462676D+00 -0.14224732503010D-15
   2   2   1   2 -0.12372999879259D+01 -0.37608826185587D-05
   3   2   1   2  0.56486537682167D+00 -0.57714878660584D-01
   1   1   2   2  0.72181197730128D+00  0.12219060108864D+00
   2   1   2   2  0.14436066502665D+01  0.24438071510811D+00
   3   1   2   2  0.72180734115682D+00  0.12218945397025D+00
   1   2   2   2 -0.12372999879259D+01  0.37608826189404D-05
   2   2   2   2 -0.24745744490343D+01  0.83266726846887D-16
   3   2   2   2 -0.12372922674506D+01  0.87027049210429D-06
   1   1   3   2 -0.13505158516372D+01  0.38128214088774D+00
   2   1   3   2  0.72180636047866D+00  0.12219083617430D+00
   3   1   3   2 -0.13286782915639D+01  0.13737161687678D+00
   1   2   3   2  0.56486537682166D+00  0.57714878660584D-01
   2   2   3   2 -0.12372922674506D+01 -0.87027049168796D-06
   3   2   3   2 -0.18846698859466D+01 -0.13877787807814D-15

 List of bloks and their characteristics 
  
 2nd eigenvalue derivatives   - # elements :      36
 qpt  0.00000000E+00  0.00000000E+00  0.00000000E+00   1.0
  
 2nd eigenvalue derivatives   - # elements :      36
 qpt  5.00000000E-01  0.00000000E+00  0.00000000E+00   1.0
