
.Version 7.9.3 of ABINIT 
.(MPI version, prepared for a x86_64_linux_gnu4.7 computer) 

.Copyright (C) 1998-2014 ABINIT group . 
 ABINIT comes with ABSOLUTELY NO WARRANTY.
 It is free software, and you are welcome to redistribute it
 under certain conditions (GNU General Public License,
 see ~abinit/COPYING or http://www.gnu.org/copyleft/gpl.txt).

 ABINIT is a project of the Universite Catholique de Louvain,
 Corning Inc. and other collaborators, see ~abinit/doc/developers/contributors.txt .
 Please read ~abinit/doc/users/acknowledgments.html for suggested
 acknowledgments of the ABINIT effort.
 For more information, see http://www.abinit.org .

.Starting date : Sat 30 Aug 2014.
- ( at 22h36 )
  
- input  file    -> t30.in
- output file    -> t30.out
- root for input  files -> t30i
- root for output files -> t30o


 DATASET    1 : space group Fd -3 m (#227); Bravais cF (face-center cubic)
================================================================================
 Values of the parameters that define the memory need for DATASET  1.
   intxc =         0  ionmov =         0    iscf =         7 xclevel =         1
  lmnmax =         8   lnmax =         4   mband =         4  mffmem =         1
P  mgfft =        16   mkmem =         2 mpssoang=         2     mpw =       150
  mqgrid =      3001   natom =         2    nfft =      4096    nkpt =         2
  nloalg =         4  nspden =         1 nspinor =         1  nsppol =         1
    nsym =        48  n1xccc =         1  ntypat =         1  occopt =         1
 PAW method is used; the additional fine FFT grid is defined by:
   mgfftf=        30    nfftf =     27000
================================================================================
P This job should need less than                       4.548 Mbytes of memory.
  Rough estimation (10% accuracy) of disk space for files :
_ WF disk file :      0.020 Mbytes ; DEN or POT disk file :      0.208 Mbytes.
================================================================================


 DATASET    2 : space group Fd -3 m (#227); Bravais cF (face-center cubic)
================================================================================
 Values of the parameters that define the memory need for DATASET  2 (RF).
   intxc =         0    iscf =        -3 xclevel =         1  lmnmax =         8
   lnmax =         4   mband =         4  mffmem =         1   mgfft =        16
P  mkmem =        32  mkqmem =        32  mk1mem =        32 mpssoang=         2
     mpw =       150  mqgrid =      3001   natom =         2    nfft =      4096
    nkpt =        32  nloalg =         4  nspden =         1 nspinor =         1
  nsppol =         1    nsym =        48  n1xccc =         1  ntypat =         1
  occopt =         1
================================================================================
P This job should need less than                       2.607 Mbytes of memory.
  Rough estimation (10% accuracy) of disk space for files :
_ WF disk file :      0.295 Mbytes ; DEN or POT disk file :      0.033 Mbytes.
================================================================================


 DATASET    3 : space group Fd -3 m (#227); Bravais cF (face-center cubic)
================================================================================
 Values of the parameters that define the memory need for DATASET  3 (RF).
   intxc =         0    iscf =        -3 xclevel =         1  lmnmax =         8
   lnmax =         4   mband =         4  mffmem =         1   mgfft =        16
P  mkmem =        32  mkqmem =        32  mk1mem =        32 mpssoang=         2
     mpw =       150  mqgrid =      3001   natom =         2    nfft =      4096
    nkpt =        32  nloalg =         4  nspden =         1 nspinor =         1
  nsppol =         1    nsym =        48  n1xccc =         1  ntypat =         1
  occopt =         1
================================================================================
P This job should need less than                       2.607 Mbytes of memory.
  Rough estimation (10% accuracy) of disk space for files :
_ WF disk file :      0.295 Mbytes ; DEN or POT disk file :      0.033 Mbytes.
================================================================================

--------------------------------------------------------------------------------
------------- Echo of variables that govern the present computation ------------
--------------------------------------------------------------------------------
-
- outvars: echo of selected default values                                      
-   accesswff0 =  0 , fftalg0 =112 , wfoptalg0 = 10
-
- outvars: echo of global parameters not present in the input file              
-  max_nthreads =    0
-
 -outvars: echo values of preprocessed input variables --------
            acell      1.0261212902E+01  1.0261212902E+01  1.0261212902E+01 Bohr
              amu      2.80855000E+01
           diemac      1.20000000E+01
             ecut      5.00000000E+00 Hartree
-          fftalg         112
           getwfk1          0
           getwfk2          1
           getwfk3          1
             iscf1          7
             iscf2         -3
             iscf3         -3
              ixc           2
           jdtset        1    2    3
              kpt1    -2.50000000E-01  5.00000000E-01  0.00000000E+00
                      -2.50000000E-01  0.00000000E+00  0.00000000E+00
              kpt2    -2.50000000E-01  5.00000000E-01  0.00000000E+00
                       5.00000000E-01 -2.50000000E-01  0.00000000E+00
                      -2.50000000E-01 -2.50000000E-01  2.50000000E-01
                      -2.50000000E-01  0.00000000E+00  0.00000000E+00
                       5.00000000E-01  2.50000000E-01  0.00000000E+00
                      -2.50000000E-01  2.50000000E-01  2.50000000E-01
                       2.50000000E-01  5.00000000E-01  0.00000000E+00
                       5.00000000E-01  5.00000000E-01  2.50000000E-01
                      -2.50000000E-01  5.00000000E-01  5.00000000E-01
                       0.00000000E+00 -2.50000000E-01  0.00000000E+00
                       2.50000000E-01 -2.50000000E-01  2.50000000E-01
                       5.00000000E-01 -2.50000000E-01  5.00000000E-01
                      -2.50000000E-01 -2.50000000E-01 -2.50000000E-01
                       2.50000000E-01  0.00000000E+00  0.00000000E+00
                       5.00000000E-01  0.00000000E+00  2.50000000E-01
                      -2.50000000E-01  0.00000000E+00  5.00000000E-01
                       0.00000000E+00  2.50000000E-01  0.00000000E+00
                       2.50000000E-01  2.50000000E-01  2.50000000E-01
                       5.00000000E-01  2.50000000E-01  5.00000000E-01
                      -2.50000000E-01  2.50000000E-01 -2.50000000E-01
                       0.00000000E+00  5.00000000E-01  2.50000000E-01
                       2.50000000E-01  5.00000000E-01  5.00000000E-01
                       5.00000000E-01  5.00000000E-01 -2.50000000E-01
                       0.00000000E+00 -2.50000000E-01  5.00000000E-01
                       2.50000000E-01 -2.50000000E-01 -2.50000000E-01
                       0.00000000E+00  0.00000000E+00  2.50000000E-01
                       2.50000000E-01  0.00000000E+00  5.00000000E-01
                       5.00000000E-01  0.00000000E+00 -2.50000000E-01
                       0.00000000E+00  2.50000000E-01  5.00000000E-01
                       2.50000000E-01  2.50000000E-01 -2.50000000E-01
                       0.00000000E+00  5.00000000E-01 -2.50000000E-01
                       0.00000000E+00  0.00000000E+00 -2.50000000E-01
              kpt3    -2.50000000E-01  5.00000000E-01  0.00000000E+00
                       5.00000000E-01 -2.50000000E-01  0.00000000E+00
                      -2.50000000E-01 -2.50000000E-01  2.50000000E-01
                      -2.50000000E-01  0.00000000E+00  0.00000000E+00
                       5.00000000E-01  2.50000000E-01  0.00000000E+00
                      -2.50000000E-01  2.50000000E-01  2.50000000E-01
                       2.50000000E-01  5.00000000E-01  0.00000000E+00
                       5.00000000E-01  5.00000000E-01  2.50000000E-01
                      -2.50000000E-01  5.00000000E-01  5.00000000E-01
                       0.00000000E+00 -2.50000000E-01  0.00000000E+00
                       2.50000000E-01 -2.50000000E-01  2.50000000E-01
                       5.00000000E-01 -2.50000000E-01  5.00000000E-01
                      -2.50000000E-01 -2.50000000E-01 -2.50000000E-01
                       2.50000000E-01  0.00000000E+00  0.00000000E+00
                       5.00000000E-01  0.00000000E+00  2.50000000E-01
                      -2.50000000E-01  0.00000000E+00  5.00000000E-01
                       0.00000000E+00  2.50000000E-01  0.00000000E+00
                       2.50000000E-01  2.50000000E-01  2.50000000E-01
                       5.00000000E-01  2.50000000E-01  5.00000000E-01
                      -2.50000000E-01  2.50000000E-01 -2.50000000E-01
                       0.00000000E+00  5.00000000E-01  2.50000000E-01
                       2.50000000E-01  5.00000000E-01  5.00000000E-01
                       5.00000000E-01  5.00000000E-01 -2.50000000E-01
                       0.00000000E+00 -2.50000000E-01  5.00000000E-01
                       2.50000000E-01 -2.50000000E-01 -2.50000000E-01
                       0.00000000E+00  0.00000000E+00  2.50000000E-01
                       2.50000000E-01  0.00000000E+00  5.00000000E-01
                       5.00000000E-01  0.00000000E+00 -2.50000000E-01
                       0.00000000E+00  2.50000000E-01  5.00000000E-01
                       2.50000000E-01  2.50000000E-01 -2.50000000E-01
                       0.00000000E+00  5.00000000E-01 -2.50000000E-01
                       0.00000000E+00  0.00000000E+00 -2.50000000E-01
           kptopt1          1
           kptopt2          3
           kptopt3          3
         kptrlatt        2   -2    2     -2    2    2     -2   -2    2
          kptrlen      2.05224258E+01
P           mkmem1          2
P           mkmem2         32
P           mkmem3         32
P          mkqmem1          2
P          mkqmem2         32
P          mkqmem3         32
P          mk1mem1          2
P          mk1mem2         32
P          mk1mem3         32
            natom           2
            nband1          4
            nband2          4
            nband3          4
           ndtset           3
            ngfft          16      16      16
          ngfftdg          30      30      30
             nkpt1          2
             nkpt2         32
             nkpt3         32
             nqpt1          0
             nqpt2          1
             nqpt3          1
            nstep           5
             nsym          48
           ntypat           1
              occ1     2.000000  2.000000  2.000000  2.000000
              occ2     2.000000  2.000000  2.000000  2.000000
              occ3     2.000000  2.000000  2.000000  2.000000
        optdriver1          0
        optdriver2          1
        optdriver3          1
        pawecutdg      2.00000000E+01 Hartree
         pawxcdev           0
           prtden           0
           prteig           0
            prtwf1          1
            prtwf2          0
            prtwf3          0
            rfddk1          0
            rfddk2          1
            rfddk3          0
            rfdir           1       0       0
           rfelfd1          0
           rfelfd2          0
           rfelfd3          2
            rprim      0.0000000000E+00  5.0000000000E-01  5.0000000000E-01
                       5.0000000000E-01  0.0000000000E+00  5.0000000000E-01
                       5.0000000000E-01  5.0000000000E-01  0.0000000000E+00
           shiftk      5.00000000E-01  5.00000000E-01  5.00000000E-01
          spgroup         227
           symrel      1  0  0   0  1  0   0  0  1      -1  0  0   0 -1  0   0  0 -1
                       0 -1  1   0 -1  0   1 -1  0       0  1 -1   0  1  0  -1  1  0
                      -1  0  0  -1  0  1  -1  1  0       1  0  0   1  0 -1   1 -1  0
                       0  1 -1   1  0 -1   0  0 -1       0 -1  1  -1  0  1   0  0  1
                      -1  0  0  -1  1  0  -1  0  1       1  0  0   1 -1  0   1  0 -1
                       0 -1  1   1 -1  0   0 -1  0       0  1 -1  -1  1  0   0  1  0
                       1  0  0   0  0  1   0  1  0      -1  0  0   0  0 -1   0 -1  0
                       0  1 -1   0  0 -1   1  0 -1       0 -1  1   0  0  1  -1  0  1
                      -1  0  1  -1  1  0  -1  0  0       1  0 -1   1 -1  0   1  0  0
                       0 -1  0   1 -1  0   0 -1  1       0  1  0  -1  1  0   0  1 -1
                       1  0 -1   0  0 -1   0  1 -1      -1  0  1   0  0  1   0 -1  1
                       0  1  0   0  0  1   1  0  0       0 -1  0   0  0 -1  -1  0  0
                       1  0 -1   0  1 -1   0  0 -1      -1  0  1   0 -1  1   0  0  1
                       0 -1  0   0 -1  1   1 -1  0       0  1  0   0  1 -1  -1  1  0
                      -1  0  1  -1  0  0  -1  1  0       1  0 -1   1  0  0   1 -1  0
                       0  1  0   1  0  0   0  0  1       0 -1  0  -1  0  0   0  0 -1
                       0  0 -1   0  1 -1   1  0 -1       0  0  1   0 -1  1  -1  0  1
                       1 -1  0   0 -1  1   0 -1  0      -1  1  0   0  1 -1   0  1  0
                       0  0  1   1  0  0   0  1  0       0  0 -1  -1  0  0   0 -1  0
                      -1  1  0  -1  0  0  -1  0  1       1 -1  0   1  0  0   1  0 -1
                       0  0  1   0  1  0   1  0  0       0  0 -1   0 -1  0  -1  0  0
                       1 -1  0   0 -1  0   0 -1  1      -1  1  0   0  1  0   0  1 -1
                       0  0 -1   1  0 -1   0  1 -1       0  0  1  -1  0  1   0 -1  1
                      -1  1  0  -1  0  1  -1  0  0       1 -1  0   1  0 -1   1  0  0
            tnons      0.0000000  0.0000000  0.0000000     0.2500000  0.2500000  0.2500000
                       0.0000000  0.0000000  0.0000000     0.2500000  0.2500000  0.2500000
                       0.0000000  0.0000000  0.0000000     0.2500000  0.2500000  0.2500000
                       0.0000000  0.0000000  0.0000000     0.2500000  0.2500000  0.2500000
                       0.0000000  0.0000000  0.0000000     0.2500000  0.2500000  0.2500000
                       0.0000000  0.0000000  0.0000000     0.2500000  0.2500000  0.2500000
                       0.0000000  0.0000000  0.0000000     0.2500000  0.2500000  0.2500000
                       0.0000000  0.0000000  0.0000000     0.2500000  0.2500000  0.2500000
                       0.0000000  0.0000000  0.0000000     0.2500000  0.2500000  0.2500000
                       0.0000000  0.0000000  0.0000000     0.2500000  0.2500000  0.2500000
                       0.0000000  0.0000000  0.0000000     0.2500000  0.2500000  0.2500000
                       0.0000000  0.0000000  0.0000000     0.2500000  0.2500000  0.2500000
                       0.0000000  0.0000000  0.0000000     0.2500000  0.2500000  0.2500000
                       0.0000000  0.0000000  0.0000000     0.2500000  0.2500000  0.2500000
                       0.0000000  0.0000000  0.0000000     0.2500000  0.2500000  0.2500000
                       0.0000000  0.0000000  0.0000000     0.2500000  0.2500000  0.2500000
                       0.0000000  0.0000000  0.0000000     0.2500000  0.2500000  0.2500000
                       0.0000000  0.0000000  0.0000000     0.2500000  0.2500000  0.2500000
                       0.0000000  0.0000000  0.0000000     0.2500000  0.2500000  0.2500000
                       0.0000000  0.0000000  0.0000000     0.2500000  0.2500000  0.2500000
                       0.0000000  0.0000000  0.0000000     0.2500000  0.2500000  0.2500000
                       0.0000000  0.0000000  0.0000000     0.2500000  0.2500000  0.2500000
                       0.0000000  0.0000000  0.0000000     0.2500000  0.2500000  0.2500000
                       0.0000000  0.0000000  0.0000000     0.2500000  0.2500000  0.2500000
           tolvrs1     1.00000000E-20
           tolvrs2     0.00000000E+00
           tolvrs3     0.00000000E+00
           tolwfr1     0.00000000E+00
           tolwfr2     1.00000000E-20
           tolwfr3     1.00000000E-20
            typat      1  1
           useylm           1
              wtk1       0.75000    0.25000
              wtk2       0.03125    0.03125    0.03125    0.03125    0.03125    0.03125
                         0.03125    0.03125    0.03125    0.03125    0.03125    0.03125
                         0.03125    0.03125    0.03125    0.03125    0.03125    0.03125
                         0.03125    0.03125    0.03125    0.03125    0.03125    0.03125
                         0.03125    0.03125    0.03125    0.03125    0.03125    0.03125
                         0.03125    0.03125
              wtk3       0.03125    0.03125    0.03125    0.03125    0.03125    0.03125
                         0.03125    0.03125    0.03125    0.03125    0.03125    0.03125
                         0.03125    0.03125    0.03125    0.03125    0.03125    0.03125
                         0.03125    0.03125    0.03125    0.03125    0.03125    0.03125
                         0.03125    0.03125    0.03125    0.03125    0.03125    0.03125
                         0.03125    0.03125
           xangst      0.0000000000E+00  0.0000000000E+00  0.0000000000E+00
                       1.3575000000E+00  1.3575000000E+00  1.3575000000E+00
            xcart      0.0000000000E+00  0.0000000000E+00  0.0000000000E+00
                       2.5653032254E+00  2.5653032254E+00  2.5653032254E+00
             xred      0.0000000000E+00  0.0000000000E+00  0.0000000000E+00
                       2.5000000000E-01  2.5000000000E-01  2.5000000000E-01
            znucl       14.00000

================================================================================

 chkinp: Checking input parameters for consistency, jdtset=   1.

 chkinp: Checking input parameters for consistency, jdtset=   2.

 chkinp: Checking input parameters for consistency, jdtset=   3.

================================================================================
== DATASET  1 ==================================================================
-   nproc =    1

 Exchange-correlation functional for the present dataset will be:
  LDA: Perdew-Zunger-Ceperley-Alder - ixc=2
 Citation for XC functional:
  J.P.Perdew and A.Zunger, PRB 23, 5048 (1981)

 Real(R)+Recip(G) space primitive vectors, cartesian coordinates (Bohr,Bohr^-1):
 R(1)=  0.0000000  5.1306065  5.1306065  G(1)= -0.0974544  0.0974544  0.0974544
 R(2)=  5.1306065  0.0000000  5.1306065  G(2)=  0.0974544 -0.0974544  0.0974544
 R(3)=  5.1306065  5.1306065  0.0000000  G(3)=  0.0974544  0.0974544 -0.0974544
 Unit cell volume ucvol=  2.7010716E+02 bohr^3
 Angles (23,13,12)=  6.00000000E+01  6.00000000E+01  6.00000000E+01 degrees

 Coarse grid specifications (used for wave-functions):

 getcut: wavevector=  0.0000  0.0000  0.0000  ngfft=  16  16  16
         ecut(hartree)=      5.000   => boxcut(ratio)=   2.19072

 Fine grid specifications (used for densities):

 getcut: wavevector=  0.0000  0.0000  0.0000  ngfft=  30  30  30
         ecut(hartree)=     20.000   => boxcut(ratio)=   2.05608

--- Pseudopotential description ------------------------------------------------
- pspini: atom type   1  psp file is /home/gonze/ABINIT/ABINITv7.9.3/trunk/7.9.3-private/tests/Psps_for_tests/si_ps.736.lda
- pspatm: opening atomic psp file    /home/gonze/ABINIT/ABINITv7.9.3/trunk/7.9.3-private/tests/Psps_for_tests/si_ps.736.lda
- silicon - PAW data extracted from US-psp (D.Vanderbilt) - generated by USpp2Abinit v2.2.1
- 14.00000   4.00000  20071017                znucl, zion, pspdat
    7    2    1    0       620   0.00000      pspcod,pspxc,lmax,lloc,mmax,r2well
 Pseudopotential format is: paw3
 basis_size (lnmax)=  4 (lmn_size=  8), orbitals=   0   0   1   1
 Spheres core radius: rc_sph= 1.81165366
 4 radial meshes are used:
  - mesh 1: r(i)=AA*[exp(BB*(i-1))-1], size= 620 , AA= 0.65134E-04 BB= 0.16667E-01
  - mesh 2: r(i)=AA*[exp(BB*(i-1))-1], size= 616 , AA= 0.65134E-04 BB= 0.16667E-01
  - mesh 3: r(i)=AA*[exp(BB*(i-1))-1], size= 663 , AA= 0.65134E-04 BB= 0.16667E-01
  - mesh 4: r(i)=AA*[exp(BB*(i-1))-1], size= 717 , AA= 0.65134E-04 BB= 0.16667E-01
 Shapefunction is BESSEL type: shapef(r,l)=aa(1,l)*jl(q(1,l)*r)+aa(2,l)*jl(q(2,l)*r)
 Radius for shape functions = sphere core radius
 Radial grid used for partial waves is grid 1
 Radial grid used for projectors is grid  2
 Radial grid used for (t)core density is grid 3
 Radial grid used for Vloc is grid 4
 Compensation charge density is taken into account in XC energy/potential
 pspatm: atomic psp has been read  and splines computed

   4.54064827E+01                                ecore*ucvol(ha*bohr**3)
--------------------------------------------------------------------------------

P newkpt: treating      4 bands with npw=     143 for ikpt=   1 by node    0
P newkpt: treating      4 bands with npw=     150 for ikpt=   2 by node    0

_setup2: Arith. and geom. avg. npw (full set) are     144.750     144.719

================================================================================

     iter   Etot(hartree)      deltaE(h)  residm     vres2
 ETOT  1  -8.0158855822196    -8.016E+00 7.903E-03 1.961E+01
 ETOT  2  -8.0271004804130    -1.121E-02 2.018E-07 3.028E+00
 ETOT  3  -8.0276850863668    -5.846E-04 2.469E-06 2.843E-02
 ETOT  4  -8.0276898925308    -4.806E-06 6.824E-09 1.553E-03
 ETOT  5  -8.0276900260409    -1.335E-07 6.882E-10 1.908E-05

 Cartesian components of stress tensor (hartree/bohr^3)
  sigma(1 1)=  7.90505937E-05  sigma(3 2)=  0.00000000E+00
  sigma(2 2)=  7.90505937E-05  sigma(3 1)=  0.00000000E+00
  sigma(3 3)=  7.90505937E-05  sigma(2 1)=  0.00000000E+00


 scprqt:  WARNING -
  nstep=    5 was not enough SCF cycles to converge;
  potential residual=  1.908E-05 exceeds tolvrs=  1.000E-20


 PAW TEST:
 ==== Compensation charge inside spheres ============
 The following values must be close to each other ...
 Compensation charge over spherical meshes =     -0.190792646606793
 Compensation charge over fine fft grid    =     -0.190792437785801

 ==== Results concerning PAW augmentation regions ====

 Total pseudopotential strength Dij (hartree):
 Atom #  1
   0.43985   1.01199   0.00000   0.00000   0.00000   0.00000   0.00000   0.00000
   1.01199   2.31395   0.00000   0.00000   0.00000   0.00000   0.00000   0.00000
   0.00000   0.00000   0.13713   0.00000   0.00000   0.29345   0.00000   0.00000
   0.00000   0.00000   0.00000   0.13713   0.00000   0.00000   0.29345   0.00000
   0.00000   0.00000   0.00000   0.00000   0.13713   0.00000   0.00000   0.29345
   0.00000   0.00000   0.29345   0.00000   0.00000   0.62535   0.00000   0.00000
   0.00000   0.00000   0.00000   0.29345   0.00000   0.00000   0.62535   0.00000
   0.00000   0.00000   0.00000   0.00000   0.29345   0.00000   0.00000   0.62535
 Atom #  2
   0.43985   1.01199   0.00000   0.00000   0.00000   0.00000   0.00000   0.00000
   1.01199   2.31395   0.00000   0.00000   0.00000   0.00000   0.00000   0.00000
   0.00000   0.00000   0.13713   0.00000   0.00000   0.29345   0.00000   0.00000
   0.00000   0.00000   0.00000   0.13713   0.00000   0.00000   0.29345   0.00000
   0.00000   0.00000   0.00000   0.00000   0.13713   0.00000   0.00000   0.29345
   0.00000   0.00000   0.29345   0.00000   0.00000   0.62535   0.00000   0.00000
   0.00000   0.00000   0.00000   0.29345   0.00000   0.00000   0.62535   0.00000
   0.00000   0.00000   0.00000   0.00000   0.29345   0.00000   0.00000   0.62535


 Augmentation waves occupancies Rhoij:
 Atom #  1
   0.09684   0.11557   0.00000   0.00000   0.00000   0.00000   0.00000   0.00000
   0.11557   0.21352   0.00000   0.00000   0.00000   0.00000   0.00000   0.00000
   0.00000   0.00000   1.40050   0.00000   0.00000  -0.08846   0.00000   0.00000
   0.00000   0.00000   0.00000   1.40050   0.00000   0.00000  -0.08846   0.00000
   0.00000   0.00000   0.00000   0.00000   1.40050   0.00000   0.00000  -0.08846
   0.00000   0.00000  -0.08846   0.00000   0.00000   0.00942   0.00000   0.00000
   0.00000   0.00000   0.00000  -0.08846   0.00000   0.00000   0.00942   0.00000
   0.00000   0.00000   0.00000   0.00000  -0.08846   0.00000   0.00000   0.00942
 Atom #  2
   0.09684   0.11557   0.00000   0.00000   0.00000   0.00000   0.00000   0.00000
   0.11557   0.21352   0.00000   0.00000   0.00000   0.00000   0.00000   0.00000
   0.00000   0.00000   1.40050   0.00000   0.00000  -0.08846   0.00000   0.00000
   0.00000   0.00000   0.00000   1.40050   0.00000   0.00000  -0.08846   0.00000
   0.00000   0.00000   0.00000   0.00000   1.40050   0.00000   0.00000  -0.08846
   0.00000   0.00000  -0.08846   0.00000   0.00000   0.00942   0.00000   0.00000
   0.00000   0.00000   0.00000  -0.08846   0.00000   0.00000   0.00942   0.00000
   0.00000   0.00000   0.00000   0.00000  -0.08846   0.00000   0.00000   0.00942


================================================================================

 ----iterations are completed or convergence reached----

 Mean square residual over all n,k,spin=   2.7493E-10; max=  6.8818E-10
  -0.2500  0.5000  0.0000    1  6.88181E-10 kpt; spin; max resid(k); each band:
  2.91E-10 6.14E-10 6.88E-10 2.88E-11
  -0.2500  0.0000  0.0000    1  3.14130E-10 kpt; spin; max resid(k); each band:
  3.14E-10 2.29E-10 5.32E-12 2.95E-11
 reduced coordinates (array xred) for    2 atoms
       0.000000000000      0.000000000000      0.000000000000
       0.250000000000      0.250000000000      0.250000000000
 rms dE/dt=  0.0000E+00; max dE/dt=  0.0000E+00; dE/dt below (all hartree)
    1       0.000000000000      0.000000000000      0.000000000000
    2       0.000000000000      0.000000000000      0.000000000000

 cartesian coordinates (angstrom) at end:
    1      0.00000000000000     0.00000000000000     0.00000000000000
    2      1.35750000000000     1.35750000000000     1.35750000000000

 cartesian forces (hartree/bohr) at end:
    1     -0.00000000000000    -0.00000000000000    -0.00000000000000
    2     -0.00000000000000    -0.00000000000000    -0.00000000000000
 frms,max,avg= 0.0000000E+00 0.0000000E+00   0.000E+00  0.000E+00  0.000E+00 h/b

 cartesian forces (eV/Angstrom) at end:
    1     -0.00000000000000    -0.00000000000000    -0.00000000000000
    2     -0.00000000000000    -0.00000000000000    -0.00000000000000
 frms,max,avg= 0.0000000E+00 0.0000000E+00   0.000E+00  0.000E+00  0.000E+00 e/A
 length scales= 10.261212901569 10.261212901569 10.261212901569 bohr
              =  5.430000000000  5.430000000000  5.430000000000 angstroms
 Fermi (or HOMO) energy (hartree) =   0.17539   Average Vxc (hartree)=  -0.35927
 Eigenvalues (hartree) for nkpt=   2  k points:
 kpt#   1, nband=  4, wtk=  0.75000, kpt= -0.2500  0.5000  0.0000 (reduced coord)
  -0.13598  -0.03143   0.07195   0.12166
 kpt#   2, nband=  4, wtk=  0.25000, kpt= -0.2500  0.0000  0.0000 (reduced coord)
  -0.20708   0.05822   0.17539   0.17539
 Total charge density [el/Bohr^3]
,     Maximum=    8.6423E-02  at reduced coord.    0.1333    0.1333    0.6000
,Next maximum=    8.6423E-02  at reduced coord.    0.1333    0.6000    0.1333
,     Minimum=   -6.9098E-03  at reduced coord.    0.0000    0.0000    0.0000
,Next minimum=   -4.3523E-03  at reduced coord.    0.2667    0.2333    0.2333
,  Integrated=    8.0000E+00

--------------------------------------------------------------------------------
 Components of total free energy (in Hartree) :

    Kinetic energy  =  3.01284414164456E+00
    Hartree energy  =  5.51319842917665E-01
    XC energy       = -6.92351747353081E+00
    Ewald energy    = -8.39947182979608E+00
    PspCore energy  =  1.68105436135424E-01
    Loc. psp. energy= -2.45849994908523E+00
    Spherical terms =  6.02152980567355E+00
    >>>>>>>>> Etotal= -8.02769002604093E+00

 "Double-counting" decomposition of free energy:
    Band energy     =  1.40254222319268E-01
    Ewald energy    = -8.39947182979608E+00
    PspCore energy  =  1.68105436135424E-01
    Dble-C XC-energy= -4.13654497107688E+00
    Spherical terms =  4.20006633130654E+00
    >>>> Etotal (DC)= -8.02759081111174E+00

  >Total energy in eV           = -2.18444554807693E+02
  >Total DC energy in eV        = -2.18441855032170E+02
--------------------------------------------------------------------------------

 Cartesian components of stress tensor (hartree/bohr^3)
  sigma(1 1)=  7.90505937E-05  sigma(3 2)=  0.00000000E+00
  sigma(2 2)=  7.90505937E-05  sigma(3 1)=  0.00000000E+00
  sigma(3 3)=  7.90505937E-05  sigma(2 1)=  0.00000000E+00

-Cartesian components of stress tensor (GPa)         [Pressure= -2.3257E+00 GPa]
- sigma(1 1)=  2.32574837E+00  sigma(3 2)=  0.00000000E+00
- sigma(2 2)=  2.32574837E+00  sigma(3 1)=  0.00000000E+00
- sigma(3 3)=  2.32574837E+00  sigma(2 1)=  0.00000000E+00

================================================================================
== DATASET  2 ==================================================================
-   nproc =    1

 mkfilename : getwfk/=0, take file _WFK from output of DATASET   1.

 Exchange-correlation functional for the present dataset will be:
  LDA: Perdew-Zunger-Ceperley-Alder - ixc=2
 Citation for XC functional:
  J.P.Perdew and A.Zunger, PRB 23, 5048 (1981)

 Real(R)+Recip(G) space primitive vectors, cartesian coordinates (Bohr,Bohr^-1):
 R(1)=  0.0000000  5.1306065  5.1306065  G(1)= -0.0974544  0.0974544  0.0974544
 R(2)=  5.1306065  0.0000000  5.1306065  G(2)=  0.0974544 -0.0974544  0.0974544
 R(3)=  5.1306065  5.1306065  0.0000000  G(3)=  0.0974544  0.0974544 -0.0974544
 Unit cell volume ucvol=  2.7010716E+02 bohr^3
 Angles (23,13,12)=  6.00000000E+01  6.00000000E+01  6.00000000E+01 degrees
 setup1 : take into account q-point for computing boxcut.

 Coarse grid specifications (used for wave-functions):

 getcut: wavevector=  0.0000  0.0000  0.0000  ngfft=  16  16  16
         ecut(hartree)=      5.000   => boxcut(ratio)=   2.19072

 Fine grid specifications (used for densities):

 getcut: wavevector=  0.0000  0.0000  0.0000  ngfft=  30  30  30
         ecut(hartree)=     20.000   => boxcut(ratio)=   2.05608
--------------------------------------------------------------------------------

-inwffil : will read wavefunctions from disk file t30o_DS1_WFK
- newkpt: read input wf with ikpt,npw=   1     143, make ikpt,npw=   1     143
- newkpt: read input wf with ikpt,npw=   1     143, make ikpt,npw=   2     143
- newkpt: read input wf with ikpt,npw=   1     143, make ikpt,npw=   3     143
- newkpt: read input wf with ikpt,npw=   2     150, make ikpt,npw=   4     150
- newkpt: read input wf with ikpt,npw=   1     143, make ikpt,npw=   5     143
- newkpt: read input wf with ikpt,npw=   1     143, make ikpt,npw=   6     143
- newkpt: read input wf with ikpt,npw=   1     143, make ikpt,npw=   7     143
- newkpt: read input wf with ikpt,npw=   1     143, make ikpt,npw=   8     143
- newkpt: read input wf with ikpt,npw=   1     143, make ikpt,npw=   9     143
- newkpt: read input wf with ikpt,npw=   2     150, make ikpt,npw=  10     150
- newkpt: read input wf with ikpt,npw=   1     143, make ikpt,npw=  11     143
- newkpt: read input wf with ikpt,npw=   1     143, make ikpt,npw=  12     143
- newkpt: read input wf with ikpt,npw=   2     150, make ikpt,npw=  13     150
- newkpt: read input wf with ikpt,npw=   2     150, make ikpt,npw=  14     150
- newkpt: read input wf with ikpt,npw=   1     143, make ikpt,npw=  15     143
- newkpt: read input wf with ikpt,npw=   1     143, make ikpt,npw=  16     143
- newkpt: read input wf with ikpt,npw=   2     150, make ikpt,npw=  17     150
- newkpt: read input wf with ikpt,npw=   2     150, make ikpt,npw=  18     150
- newkpt: read input wf with ikpt,npw=   1     143, make ikpt,npw=  19     143
- newkpt: read input wf with ikpt,npw=   1     143, make ikpt,npw=  20     143
- newkpt: read input wf with ikpt,npw=   1     143, make ikpt,npw=  21     143
- newkpt: read input wf with ikpt,npw=   1     143, make ikpt,npw=  22     143
- newkpt: read input wf with ikpt,npw=   1     143, make ikpt,npw=  23     143
- newkpt: read input wf with ikpt,npw=   1     143, make ikpt,npw=  24     143
- newkpt: read input wf with ikpt,npw=   1     143, make ikpt,npw=  25     143
- newkpt: read input wf with ikpt,npw=   2     150, make ikpt,npw=  26     150
- newkpt: read input wf with ikpt,npw=   1     143, make ikpt,npw=  27     143
- newkpt: read input wf with ikpt,npw=   1     143, make ikpt,npw=  28     143
- newkpt: read input wf with ikpt,npw=   1     143, make ikpt,npw=  29     143
- newkpt: read input wf with ikpt,npw=   1     143, make ikpt,npw=  30     143
- newkpt: read input wf with ikpt,npw=   1     143, make ikpt,npw=  31     143
- newkpt: read input wf with ikpt,npw=   2     150, make ikpt,npw=  32     150


 ==>  initialize data related to q vector <== 

 The list of irreducible perturbations for this q vector is:
    1)    idir= 1    ipert=   3

================================================================================

--------------------------------------------------------------------------------
 Perturbation wavevector (in red.coord.)   0.000000  0.000000  0.000000
 Perturbation : derivative vs k along direction   1
 The set of symmetries contains only one element for this perturbation.
 symkpt : not enough symmetry to change the number of k points.

--------------------------------------------------------------------------------

-inwffil : will read wavefunctions from disk file t30o_DS1_WFK
- newkpt: read input wf with ikpt,npw=   1     143, make ikpt,npw=   1     143
- newkpt: read input wf with ikpt,npw=   1     143, make ikpt,npw=   2     143
- newkpt: read input wf with ikpt,npw=   1     143, make ikpt,npw=   3     143
- newkpt: read input wf with ikpt,npw=   2     150, make ikpt,npw=   4     150
- newkpt: read input wf with ikpt,npw=   1     143, make ikpt,npw=   5     143
- newkpt: read input wf with ikpt,npw=   1     143, make ikpt,npw=   6     143
- newkpt: read input wf with ikpt,npw=   1     143, make ikpt,npw=   7     143
- newkpt: read input wf with ikpt,npw=   1     143, make ikpt,npw=   8     143
- newkpt: read input wf with ikpt,npw=   1     143, make ikpt,npw=   9     143
- newkpt: read input wf with ikpt,npw=   2     150, make ikpt,npw=  10     150
- newkpt: read input wf with ikpt,npw=   1     143, make ikpt,npw=  11     143
- newkpt: read input wf with ikpt,npw=   1     143, make ikpt,npw=  12     143
- newkpt: read input wf with ikpt,npw=   2     150, make ikpt,npw=  13     150
- newkpt: read input wf with ikpt,npw=   2     150, make ikpt,npw=  14     150
- newkpt: read input wf with ikpt,npw=   1     143, make ikpt,npw=  15     143
- newkpt: read input wf with ikpt,npw=   1     143, make ikpt,npw=  16     143
- newkpt: read input wf with ikpt,npw=   2     150, make ikpt,npw=  17     150
- newkpt: read input wf with ikpt,npw=   2     150, make ikpt,npw=  18     150
- newkpt: read input wf with ikpt,npw=   1     143, make ikpt,npw=  19     143
- newkpt: read input wf with ikpt,npw=   1     143, make ikpt,npw=  20     143
- newkpt: read input wf with ikpt,npw=   1     143, make ikpt,npw=  21     143
- newkpt: read input wf with ikpt,npw=   1     143, make ikpt,npw=  22     143
- newkpt: read input wf with ikpt,npw=   1     143, make ikpt,npw=  23     143
- newkpt: read input wf with ikpt,npw=   1     143, make ikpt,npw=  24     143
- newkpt: read input wf with ikpt,npw=   1     143, make ikpt,npw=  25     143
- newkpt: read input wf with ikpt,npw=   2     150, make ikpt,npw=  26     150
- newkpt: read input wf with ikpt,npw=   1     143, make ikpt,npw=  27     143
- newkpt: read input wf with ikpt,npw=   1     143, make ikpt,npw=  28     143
- newkpt: read input wf with ikpt,npw=   1     143, make ikpt,npw=  29     143
- newkpt: read input wf with ikpt,npw=   1     143, make ikpt,npw=  30     143
- newkpt: read input wf with ikpt,npw=   1     143, make ikpt,npw=  31     143
- newkpt: read input wf with ikpt,npw=   2     150, make ikpt,npw=  32     150

--------------------------------------------------------------------------------

-inwffil : will read wavefunctions from disk file t30o_DS1_WFK
- newkpt: read input wf with ikpt,npw=   1     143, make ikpt,npw=   1     143
- newkpt: read input wf with ikpt,npw=   1     143, make ikpt,npw=   2     143
- newkpt: read input wf with ikpt,npw=   1     143, make ikpt,npw=   3     143
- newkpt: read input wf with ikpt,npw=   2     150, make ikpt,npw=   4     150
- newkpt: read input wf with ikpt,npw=   1     143, make ikpt,npw=   5     143
- newkpt: read input wf with ikpt,npw=   1     143, make ikpt,npw=   6     143
- newkpt: read input wf with ikpt,npw=   1     143, make ikpt,npw=   7     143
- newkpt: read input wf with ikpt,npw=   1     143, make ikpt,npw=   8     143
- newkpt: read input wf with ikpt,npw=   1     143, make ikpt,npw=   9     143
- newkpt: read input wf with ikpt,npw=   2     150, make ikpt,npw=  10     150
- newkpt: read input wf with ikpt,npw=   1     143, make ikpt,npw=  11     143
- newkpt: read input wf with ikpt,npw=   1     143, make ikpt,npw=  12     143
- newkpt: read input wf with ikpt,npw=   2     150, make ikpt,npw=  13     150
- newkpt: read input wf with ikpt,npw=   2     150, make ikpt,npw=  14     150
- newkpt: read input wf with ikpt,npw=   1     143, make ikpt,npw=  15     143
- newkpt: read input wf with ikpt,npw=   1     143, make ikpt,npw=  16     143
- newkpt: read input wf with ikpt,npw=   2     150, make ikpt,npw=  17     150
- newkpt: read input wf with ikpt,npw=   2     150, make ikpt,npw=  18     150
- newkpt: read input wf with ikpt,npw=   1     143, make ikpt,npw=  19     143
- newkpt: read input wf with ikpt,npw=   1     143, make ikpt,npw=  20     143
- newkpt: read input wf with ikpt,npw=   1     143, make ikpt,npw=  21     143
- newkpt: read input wf with ikpt,npw=   1     143, make ikpt,npw=  22     143
- newkpt: read input wf with ikpt,npw=   1     143, make ikpt,npw=  23     143
- newkpt: read input wf with ikpt,npw=   1     143, make ikpt,npw=  24     143
- newkpt: read input wf with ikpt,npw=   1     143, make ikpt,npw=  25     143
- newkpt: read input wf with ikpt,npw=   2     150, make ikpt,npw=  26     150
- newkpt: read input wf with ikpt,npw=   1     143, make ikpt,npw=  27     143
- newkpt: read input wf with ikpt,npw=   1     143, make ikpt,npw=  28     143
- newkpt: read input wf with ikpt,npw=   1     143, make ikpt,npw=  29     143
- newkpt: read input wf with ikpt,npw=   1     143, make ikpt,npw=  30     143
- newkpt: read input wf with ikpt,npw=   1     143, make ikpt,npw=  31     143
- newkpt: read input wf with ikpt,npw=   2     150, make ikpt,npw=  32     150

 Initialisation of the first-order wave-functions :
  ireadwf=   0
P newkpt: treating      4 bands with npw=     143 for ikpt=   1 by node    0
P newkpt: treating      4 bands with npw=     143 for ikpt=   2 by node    0
P newkpt: treating      4 bands with npw=     143 for ikpt=   3 by node    0
P newkpt: treating      4 bands with npw=     150 for ikpt=   4 by node    0
P newkpt: treating      4 bands with npw=     143 for ikpt=   5 by node    0
P newkpt: treating      4 bands with npw=     143 for ikpt=   6 by node    0
P newkpt: treating      4 bands with npw=     143 for ikpt=   7 by node    0
P newkpt: treating      4 bands with npw=     143 for ikpt=   8 by node    0
P newkpt: treating      4 bands with npw=     143 for ikpt=   9 by node    0
P newkpt: treating      4 bands with npw=     150 for ikpt=  10 by node    0
P newkpt: treating      4 bands with npw=     143 for ikpt=  11 by node    0
P newkpt: treating      4 bands with npw=     143 for ikpt=  12 by node    0
P newkpt: treating      4 bands with npw=     150 for ikpt=  13 by node    0
P newkpt: treating      4 bands with npw=     150 for ikpt=  14 by node    0
P newkpt: treating      4 bands with npw=     143 for ikpt=  15 by node    0
P newkpt: treating      4 bands with npw=     143 for ikpt=  16 by node    0
P newkpt: treating      4 bands with npw=     150 for ikpt=  17 by node    0
P newkpt: treating      4 bands with npw=     150 for ikpt=  18 by node    0
P newkpt: treating      4 bands with npw=     143 for ikpt=  19 by node    0
P newkpt: treating      4 bands with npw=     143 for ikpt=  20 by node    0
P newkpt: treating      4 bands with npw=     143 for ikpt=  21 by node    0
P newkpt: treating      4 bands with npw=     143 for ikpt=  22 by node    0
P newkpt: treating      4 bands with npw=     143 for ikpt=  23 by node    0
P newkpt: treating      4 bands with npw=     143 for ikpt=  24 by node    0
P newkpt: treating      4 bands with npw=     143 for ikpt=  25 by node    0
P newkpt: treating      4 bands with npw=     150 for ikpt=  26 by node    0
P newkpt: treating      4 bands with npw=     143 for ikpt=  27 by node    0
P newkpt: treating      4 bands with npw=     143 for ikpt=  28 by node    0
P newkpt: treating      4 bands with npw=     143 for ikpt=  29 by node    0
P newkpt: treating      4 bands with npw=     143 for ikpt=  30 by node    0
P newkpt: treating      4 bands with npw=     143 for ikpt=  31 by node    0
P newkpt: treating      4 bands with npw=     150 for ikpt=  32 by node    0


     iter   2DEtotal(Ha)        deltaE(Ha) residm    vres2
-ETOT  1  -10.657126796418     -1.066E+01 2.376E-02 0.000E+00
 ETOT  2  -10.663329071787     -6.202E-03 3.774E-05 0.000E+00
 ETOT  3  -10.663338905354     -9.834E-06 5.812E-08 0.000E+00
 ETOT  4  -10.663338926039     -2.069E-08 9.468E-11 0.000E+00
 ETOT  5  -10.663338926085     -4.536E-11 2.800E-13 0.000E+00

 scprqt:  WARNING -
  nstep=    5 was not enough SCF cycles to converge;
  maximum residual=  2.800E-13 exceeds tolwfr=  1.000E-20

================================================================================

 ----iterations are completed or convergence reached----

 Mean square residual over all n,k,spin=   1.5181E-14; max=  2.8002E-13
  -0.2500  0.5000  0.0000    1  4.58347E-18 kpt; spin; max resid(k); each band:
  2.73E-18 1.07E-18 1.11E-19 4.58E-18
   0.5000 -0.2500  0.0000    1  7.81173E-17 kpt; spin; max resid(k); each band:
  7.81E-17 9.58E-19 5.62E-20 4.69E-17
  -0.2500 -0.2500  0.2500    1  3.87419E-17 kpt; spin; max resid(k); each band:
  3.87E-17 6.45E-19 7.28E-20 1.22E-17
  -0.2500  0.0000  0.0000    1  3.43631E-17 kpt; spin; max resid(k); each band:
  3.44E-17 6.77E-19 1.80E-17 1.80E-17
   0.5000  0.2500  0.0000    1  7.81173E-17 kpt; spin; max resid(k); each band:
  7.81E-17 9.58E-19 5.62E-20 4.69E-17
  -0.2500  0.2500  0.2500    1  7.81173E-17 kpt; spin; max resid(k); each band:
  7.81E-17 9.58E-19 5.62E-20 4.69E-17
   0.2500  0.5000  0.0000    1  4.58347E-18 kpt; spin; max resid(k); each band:
  2.73E-18 1.07E-18 1.11E-19 4.58E-18
   0.5000  0.5000  0.2500    1  3.87419E-17 kpt; spin; max resid(k); each band:
  3.87E-17 6.45E-19 7.28E-20 1.22E-17
  -0.2500  0.5000  0.5000    1  4.58347E-18 kpt; spin; max resid(k); each band:
  2.73E-18 1.07E-18 1.11E-19 4.58E-18
   0.0000 -0.2500  0.0000    1  1.42247E-13 kpt; spin; max resid(k); each band:
  4.22E-17 8.61E-20 8.50E-14 1.42E-13
   0.2500 -0.2500  0.2500    1  3.87419E-17 kpt; spin; max resid(k); each band:
  3.87E-17 6.45E-19 7.28E-20 1.22E-17
   0.5000 -0.2500  0.5000    1  3.87419E-17 kpt; spin; max resid(k); each band:
  3.87E-17 6.45E-19 7.28E-20 1.22E-17
  -0.2500 -0.2500 -0.2500    1  2.80023E-13 kpt; spin; max resid(k); each band:
  4.22E-17 8.61E-20 2.80E-13 2.70E-13
   0.2500  0.0000  0.0000    1  3.43631E-17 kpt; spin; max resid(k); each band:
  3.44E-17 6.77E-19 1.80E-17 1.80E-17
   0.5000  0.0000  0.2500    1  7.81173E-17 kpt; spin; max resid(k); each band:
  7.81E-17 9.58E-19 5.62E-20 4.69E-17
  -0.2500  0.0000  0.5000    1  4.58347E-18 kpt; spin; max resid(k); each band:
  2.73E-18 1.07E-18 1.11E-19 4.58E-18
   0.0000  0.2500  0.0000    1  1.42247E-13 kpt; spin; max resid(k); each band:
  4.22E-17 8.61E-20 8.50E-14 1.42E-13
   0.2500  0.2500  0.2500    1  2.80023E-13 kpt; spin; max resid(k); each band:
  4.22E-17 8.61E-20 2.80E-13 2.70E-13
   0.5000  0.2500  0.5000    1  3.87419E-17 kpt; spin; max resid(k); each band:
  3.87E-17 6.45E-19 7.28E-20 1.22E-17
  -0.2500  0.2500 -0.2500    1  3.87419E-17 kpt; spin; max resid(k); each band:
  3.87E-17 6.45E-19 7.28E-20 1.22E-17
   0.0000  0.5000  0.2500    1  3.87419E-17 kpt; spin; max resid(k); each band:
  3.87E-17 6.45E-19 7.28E-20 1.22E-17
   0.2500  0.5000  0.5000    1  4.58347E-18 kpt; spin; max resid(k); each band:
  2.73E-18 1.07E-18 1.11E-19 4.58E-18
   0.5000  0.5000 -0.2500    1  3.87419E-17 kpt; spin; max resid(k); each band:
  3.87E-17 6.45E-19 7.28E-20 1.22E-17
   0.0000 -0.2500  0.5000    1  3.87419E-17 kpt; spin; max resid(k); each band:
  3.87E-17 6.45E-19 7.28E-20 1.22E-17
   0.2500 -0.2500 -0.2500    1  7.81173E-17 kpt; spin; max resid(k); each band:
  7.81E-17 9.58E-19 5.62E-20 4.69E-17
   0.0000  0.0000  0.2500    1  1.39019E-13 kpt; spin; max resid(k); each band:
  4.22E-17 8.61E-20 1.39E-13 5.45E-14
   0.2500  0.0000  0.5000    1  4.58347E-18 kpt; spin; max resid(k); each band:
  2.73E-18 1.07E-18 1.11E-19 4.58E-18
   0.5000  0.0000 -0.2500    1  7.81173E-17 kpt; spin; max resid(k); each band:
  7.81E-17 9.58E-19 5.62E-20 4.69E-17
   0.0000  0.2500  0.5000    1  3.87419E-17 kpt; spin; max resid(k); each band:
  3.87E-17 6.45E-19 7.28E-20 1.22E-17
   0.2500  0.2500 -0.2500    1  3.87419E-17 kpt; spin; max resid(k); each band:
  3.87E-17 6.45E-19 7.28E-20 1.22E-17
   0.0000  0.5000 -0.2500    1  3.87419E-17 kpt; spin; max resid(k); each band:
  3.87E-17 6.45E-19 7.28E-20 1.22E-17
   0.0000  0.0000 -0.2500    1  1.39019E-13 kpt; spin; max resid(k); each band:
  4.22E-17 8.61E-20 1.39E-13 5.45E-14
 loper3 : ek2=    1.7997143397E+01
          f-sum rule ratio=    1.3153062474E+00
 Expectation of eigenvalue derivatives (hartree) for nkpt=  32  k points:
  (in case of degenerate eigenvalues, averaged derivative)
 kpt#   1, nband=  4, wtk=  0.03125, kpt= -0.2500  0.5000  0.0000 (reduced coord)
  -0.12504  -0.04341   0.21919   0.17883
 kpt#   2, nband=  4, wtk=  0.03125, kpt=  0.5000 -0.2500  0.0000 (reduced coord)
  -0.25593   0.34533   0.20644  -0.04962
 kpt#   3, nband=  4, wtk=  0.03125, kpt= -0.2500 -0.2500  0.2500 (reduced coord)
  -0.19049   0.15096   0.21281   0.06461
 kpt#   4, nband=  4, wtk=  0.03125, kpt= -0.2500  0.0000  0.0000 (reduced coord)
  -0.22775   0.66235   0.12617   0.12617
 kpt#   5, nband=  4, wtk=  0.03125, kpt=  0.5000  0.2500  0.0000 (reduced coord)
   0.25593  -0.34533  -0.20644   0.04962
 kpt#   6, nband=  4, wtk=  0.03125, kpt= -0.2500  0.2500  0.2500 (reduced coord)
  -0.25593   0.34533   0.20644  -0.04962
 kpt#   7, nband=  4, wtk=  0.03125, kpt=  0.2500  0.5000  0.0000 (reduced coord)
   0.12504   0.04341  -0.21919  -0.17883
 kpt#   8, nband=  4, wtk=  0.03125, kpt=  0.5000  0.5000  0.2500 (reduced coord)
   0.19049  -0.15096  -0.21281  -0.06461
 kpt#   9, nband=  4, wtk=  0.03125, kpt= -0.2500  0.5000  0.5000 (reduced coord)
   0.12504   0.04341  -0.21919  -0.17883
 kpt#  10, nband=  4, wtk=  0.03125, kpt=  0.0000 -0.2500  0.0000 (reduced coord)
   0.07592  -0.22078  -0.04205  -0.04205
 kpt#  11, nband=  4, wtk=  0.03125, kpt=  0.2500 -0.2500  0.2500 (reduced coord)
   0.19049  -0.15096  -0.21281  -0.06461
 kpt#  12, nband=  4, wtk=  0.03125, kpt=  0.5000 -0.2500  0.5000 (reduced coord)
  -0.19049   0.15096   0.21281   0.06461
 kpt#  13, nband=  4, wtk=  0.03125, kpt= -0.2500 -0.2500 -0.2500 (reduced coord)
  -0.07592   0.22078   0.04206   0.04206
 kpt#  14, nband=  4, wtk=  0.03125, kpt=  0.2500  0.0000  0.0000 (reduced coord)
   0.22775  -0.66235  -0.12617  -0.12617
 kpt#  15, nband=  4, wtk=  0.03125, kpt=  0.5000  0.0000  0.2500 (reduced coord)
   0.25593  -0.34533  -0.20644   0.04962
 kpt#  16, nband=  4, wtk=  0.03125, kpt= -0.2500  0.0000  0.5000 (reduced coord)
  -0.12504  -0.04341   0.21919   0.17883
 kpt#  17, nband=  4, wtk=  0.03125, kpt=  0.0000  0.2500  0.0000 (reduced coord)
  -0.07592   0.22078   0.04205   0.04205
 kpt#  18, nband=  4, wtk=  0.03125, kpt=  0.2500  0.2500  0.2500 (reduced coord)
   0.07592  -0.22078  -0.04206  -0.04206
 kpt#  19, nband=  4, wtk=  0.03125, kpt=  0.5000  0.2500  0.5000 (reduced coord)
   0.19049  -0.15096  -0.21281  -0.06461
 kpt#  20, nband=  4, wtk=  0.03125, kpt= -0.2500  0.2500 -0.2500 (reduced coord)
  -0.19049   0.15096   0.21281   0.06461
 kpt#  21, nband=  4, wtk=  0.03125, kpt=  0.0000  0.5000  0.2500 (reduced coord)
  -0.19049   0.15096   0.21281   0.06461
 kpt#  22, nband=  4, wtk=  0.03125, kpt=  0.2500  0.5000  0.5000 (reduced coord)
  -0.12504  -0.04341   0.21919   0.17883
 kpt#  23, nband=  4, wtk=  0.03125, kpt=  0.5000  0.5000 -0.2500 (reduced coord)
  -0.19049   0.15096   0.21281   0.06461
 kpt#  24, nband=  4, wtk=  0.03125, kpt=  0.0000 -0.2500  0.5000 (reduced coord)
   0.19049  -0.15096  -0.21281  -0.06461
 kpt#  25, nband=  4, wtk=  0.03125, kpt=  0.2500 -0.2500 -0.2500 (reduced coord)
   0.25593  -0.34533  -0.20644   0.04962
 kpt#  26, nband=  4, wtk=  0.03125, kpt=  0.0000  0.0000  0.2500 (reduced coord)
  -0.07592   0.22078   0.04206   0.04206
 kpt#  27, nband=  4, wtk=  0.03125, kpt=  0.2500  0.0000  0.5000 (reduced coord)
   0.12504   0.04341  -0.21919  -0.17883
 kpt#  28, nband=  4, wtk=  0.03125, kpt=  0.5000  0.0000 -0.2500 (reduced coord)
  -0.25593   0.34533   0.20644  -0.04962
 kpt#  29, nband=  4, wtk=  0.03125, kpt=  0.0000  0.2500  0.5000 (reduced coord)
  -0.19049   0.15096   0.21281   0.06461
 kpt#  30, nband=  4, wtk=  0.03125, kpt=  0.2500  0.2500 -0.2500 (reduced coord)
   0.19049  -0.15096  -0.21281  -0.06461
 kpt#  31, nband=  4, wtk=  0.03125, kpt=  0.0000  0.5000 -0.2500 (reduced coord)
   0.19049  -0.15096  -0.21281  -0.06461
 kpt#  32, nband=  4, wtk=  0.03125, kpt=  0.0000  0.0000 -0.2500 (reduced coord)
   0.07592  -0.22078  -0.04206  -0.04206

 Nine components of 2nd-order total energy (hartree) are
 1,2,3: 0th-order hamiltonian combined with 1st-order wavefunctions
     kin0=   4.10599248E+01 eigvalue=  -1.03256170E+01  local=  -4.42609114E+01
 4,5,6: 1st-order hamiltonian combined with 1st and 0th-order wfs
     kin1=  -2.36717551E+01  Hartree=   0.00000000E+00     xc=   0.00000000E+00
 7,8,9: eventually, occupation + non-local contributions
    edocc=   0.00000000E+00     enl0=   2.41708156E+01   enl1=   2.36420418E+00
 10: eventually, PAW "on-site" Hxc contribution: epaw1=   0.00000000E+00
 1-10 gives the relaxation energy (to be shifted if some occ is /=2.0)
   erelax=  -1.06633389E+01
 11 Contribution from 1st-order change of wavefunctions overlap
 eovl1 =  -9.56356409E-03
  No Ewald or frozen-wf contrib.: the relaxation energy is the total one
 2DEtotal=   -0.1066333893E+02 Ha. Also 2DEtotal=   -0.290164208747E+03 eV
    (  non-var. 2DEtotal :   -1.0663339046E+01 Ha)
================================================================================

 ---- first-order wavefunction calculations are completed ----


 respfn : d/dk was computed, but no 2DTE, so no DDB output.

================================================================================
== DATASET  3 ==================================================================
-   nproc =    1

 mkfilename : getwfk/=0, take file _WFK from output of DATASET   1.

 Exchange-correlation functional for the present dataset will be:
  LDA: Perdew-Zunger-Ceperley-Alder - ixc=2
 Citation for XC functional:
  J.P.Perdew and A.Zunger, PRB 23, 5048 (1981)

 Real(R)+Recip(G) space primitive vectors, cartesian coordinates (Bohr,Bohr^-1):
 R(1)=  0.0000000  5.1306065  5.1306065  G(1)= -0.0974544  0.0974544  0.0974544
 R(2)=  5.1306065  0.0000000  5.1306065  G(2)=  0.0974544 -0.0974544  0.0974544
 R(3)=  5.1306065  5.1306065  0.0000000  G(3)=  0.0974544  0.0974544 -0.0974544
 Unit cell volume ucvol=  2.7010716E+02 bohr^3
 Angles (23,13,12)=  6.00000000E+01  6.00000000E+01  6.00000000E+01 degrees
 setup1 : take into account q-point for computing boxcut.

 Coarse grid specifications (used for wave-functions):

 getcut: wavevector=  0.0000  0.0000  0.0000  ngfft=  16  16  16
         ecut(hartree)=      5.000   => boxcut(ratio)=   2.19072

 Fine grid specifications (used for densities):

 getcut: wavevector=  0.0000  0.0000  0.0000  ngfft=  30  30  30
         ecut(hartree)=     20.000   => boxcut(ratio)=   2.05608
--------------------------------------------------------------------------------

-inwffil : will read wavefunctions from disk file t30o_DS1_WFK
- newkpt: read input wf with ikpt,npw=   1     143, make ikpt,npw=   1     143
- newkpt: read input wf with ikpt,npw=   1     143, make ikpt,npw=   2     143
- newkpt: read input wf with ikpt,npw=   1     143, make ikpt,npw=   3     143
- newkpt: read input wf with ikpt,npw=   2     150, make ikpt,npw=   4     150
- newkpt: read input wf with ikpt,npw=   1     143, make ikpt,npw=   5     143
- newkpt: read input wf with ikpt,npw=   1     143, make ikpt,npw=   6     143
- newkpt: read input wf with ikpt,npw=   1     143, make ikpt,npw=   7     143
- newkpt: read input wf with ikpt,npw=   1     143, make ikpt,npw=   8     143
- newkpt: read input wf with ikpt,npw=   1     143, make ikpt,npw=   9     143
- newkpt: read input wf with ikpt,npw=   2     150, make ikpt,npw=  10     150
- newkpt: read input wf with ikpt,npw=   1     143, make ikpt,npw=  11     143
- newkpt: read input wf with ikpt,npw=   1     143, make ikpt,npw=  12     143
- newkpt: read input wf with ikpt,npw=   2     150, make ikpt,npw=  13     150
- newkpt: read input wf with ikpt,npw=   2     150, make ikpt,npw=  14     150
- newkpt: read input wf with ikpt,npw=   1     143, make ikpt,npw=  15     143
- newkpt: read input wf with ikpt,npw=   1     143, make ikpt,npw=  16     143
- newkpt: read input wf with ikpt,npw=   2     150, make ikpt,npw=  17     150
- newkpt: read input wf with ikpt,npw=   2     150, make ikpt,npw=  18     150
- newkpt: read input wf with ikpt,npw=   1     143, make ikpt,npw=  19     143
- newkpt: read input wf with ikpt,npw=   1     143, make ikpt,npw=  20     143
- newkpt: read input wf with ikpt,npw=   1     143, make ikpt,npw=  21     143
- newkpt: read input wf with ikpt,npw=   1     143, make ikpt,npw=  22     143
- newkpt: read input wf with ikpt,npw=   1     143, make ikpt,npw=  23     143
- newkpt: read input wf with ikpt,npw=   1     143, make ikpt,npw=  24     143
- newkpt: read input wf with ikpt,npw=   1     143, make ikpt,npw=  25     143
- newkpt: read input wf with ikpt,npw=   2     150, make ikpt,npw=  26     150
- newkpt: read input wf with ikpt,npw=   1     143, make ikpt,npw=  27     143
- newkpt: read input wf with ikpt,npw=   1     143, make ikpt,npw=  28     143
- newkpt: read input wf with ikpt,npw=   1     143, make ikpt,npw=  29     143
- newkpt: read input wf with ikpt,npw=   1     143, make ikpt,npw=  30     143
- newkpt: read input wf with ikpt,npw=   1     143, make ikpt,npw=  31     143
- newkpt: read input wf with ikpt,npw=   2     150, make ikpt,npw=  32     150


 ==>  initialize data related to q vector <== 

 The list of irreducible perturbations for this q vector is:
    1)    idir= 1    ipert=   3

================================================================================

--------------------------------------------------------------------------------
 Perturbation wavevector (in red.coord.)   0.000000  0.000000  0.000000
 Perturbation : derivative vs k along direction   1
 The set of symmetries contains only one element for this perturbation.
 symkpt : not enough symmetry to change the number of k points.

--------------------------------------------------------------------------------

-inwffil : will read wavefunctions from disk file t30o_DS1_WFK
- newkpt: read input wf with ikpt,npw=   1     143, make ikpt,npw=   1     143
- newkpt: read input wf with ikpt,npw=   1     143, make ikpt,npw=   2     143
- newkpt: read input wf with ikpt,npw=   1     143, make ikpt,npw=   3     143
- newkpt: read input wf with ikpt,npw=   2     150, make ikpt,npw=   4     150
- newkpt: read input wf with ikpt,npw=   1     143, make ikpt,npw=   5     143
- newkpt: read input wf with ikpt,npw=   1     143, make ikpt,npw=   6     143
- newkpt: read input wf with ikpt,npw=   1     143, make ikpt,npw=   7     143
- newkpt: read input wf with ikpt,npw=   1     143, make ikpt,npw=   8     143
- newkpt: read input wf with ikpt,npw=   1     143, make ikpt,npw=   9     143
- newkpt: read input wf with ikpt,npw=   2     150, make ikpt,npw=  10     150
- newkpt: read input wf with ikpt,npw=   1     143, make ikpt,npw=  11     143
- newkpt: read input wf with ikpt,npw=   1     143, make ikpt,npw=  12     143
- newkpt: read input wf with ikpt,npw=   2     150, make ikpt,npw=  13     150
- newkpt: read input wf with ikpt,npw=   2     150, make ikpt,npw=  14     150
- newkpt: read input wf with ikpt,npw=   1     143, make ikpt,npw=  15     143
- newkpt: read input wf with ikpt,npw=   1     143, make ikpt,npw=  16     143
- newkpt: read input wf with ikpt,npw=   2     150, make ikpt,npw=  17     150
- newkpt: read input wf with ikpt,npw=   2     150, make ikpt,npw=  18     150
- newkpt: read input wf with ikpt,npw=   1     143, make ikpt,npw=  19     143
- newkpt: read input wf with ikpt,npw=   1     143, make ikpt,npw=  20     143
- newkpt: read input wf with ikpt,npw=   1     143, make ikpt,npw=  21     143
- newkpt: read input wf with ikpt,npw=   1     143, make ikpt,npw=  22     143
- newkpt: read input wf with ikpt,npw=   1     143, make ikpt,npw=  23     143
- newkpt: read input wf with ikpt,npw=   1     143, make ikpt,npw=  24     143
- newkpt: read input wf with ikpt,npw=   1     143, make ikpt,npw=  25     143
- newkpt: read input wf with ikpt,npw=   2     150, make ikpt,npw=  26     150
- newkpt: read input wf with ikpt,npw=   1     143, make ikpt,npw=  27     143
- newkpt: read input wf with ikpt,npw=   1     143, make ikpt,npw=  28     143
- newkpt: read input wf with ikpt,npw=   1     143, make ikpt,npw=  29     143
- newkpt: read input wf with ikpt,npw=   1     143, make ikpt,npw=  30     143
- newkpt: read input wf with ikpt,npw=   1     143, make ikpt,npw=  31     143
- newkpt: read input wf with ikpt,npw=   2     150, make ikpt,npw=  32     150

--------------------------------------------------------------------------------

-inwffil : will read wavefunctions from disk file t30o_DS1_WFK
- newkpt: read input wf with ikpt,npw=   1     143, make ikpt,npw=   1     143
- newkpt: read input wf with ikpt,npw=   1     143, make ikpt,npw=   2     143
- newkpt: read input wf with ikpt,npw=   1     143, make ikpt,npw=   3     143
- newkpt: read input wf with ikpt,npw=   2     150, make ikpt,npw=   4     150
- newkpt: read input wf with ikpt,npw=   1     143, make ikpt,npw=   5     143
- newkpt: read input wf with ikpt,npw=   1     143, make ikpt,npw=   6     143
- newkpt: read input wf with ikpt,npw=   1     143, make ikpt,npw=   7     143
- newkpt: read input wf with ikpt,npw=   1     143, make ikpt,npw=   8     143
- newkpt: read input wf with ikpt,npw=   1     143, make ikpt,npw=   9     143
- newkpt: read input wf with ikpt,npw=   2     150, make ikpt,npw=  10     150
- newkpt: read input wf with ikpt,npw=   1     143, make ikpt,npw=  11     143
- newkpt: read input wf with ikpt,npw=   1     143, make ikpt,npw=  12     143
- newkpt: read input wf with ikpt,npw=   2     150, make ikpt,npw=  13     150
- newkpt: read input wf with ikpt,npw=   2     150, make ikpt,npw=  14     150
- newkpt: read input wf with ikpt,npw=   1     143, make ikpt,npw=  15     143
- newkpt: read input wf with ikpt,npw=   1     143, make ikpt,npw=  16     143
- newkpt: read input wf with ikpt,npw=   2     150, make ikpt,npw=  17     150
- newkpt: read input wf with ikpt,npw=   2     150, make ikpt,npw=  18     150
- newkpt: read input wf with ikpt,npw=   1     143, make ikpt,npw=  19     143
- newkpt: read input wf with ikpt,npw=   1     143, make ikpt,npw=  20     143
- newkpt: read input wf with ikpt,npw=   1     143, make ikpt,npw=  21     143
- newkpt: read input wf with ikpt,npw=   1     143, make ikpt,npw=  22     143
- newkpt: read input wf with ikpt,npw=   1     143, make ikpt,npw=  23     143
- newkpt: read input wf with ikpt,npw=   1     143, make ikpt,npw=  24     143
- newkpt: read input wf with ikpt,npw=   1     143, make ikpt,npw=  25     143
- newkpt: read input wf with ikpt,npw=   2     150, make ikpt,npw=  26     150
- newkpt: read input wf with ikpt,npw=   1     143, make ikpt,npw=  27     143
- newkpt: read input wf with ikpt,npw=   1     143, make ikpt,npw=  28     143
- newkpt: read input wf with ikpt,npw=   1     143, make ikpt,npw=  29     143
- newkpt: read input wf with ikpt,npw=   1     143, make ikpt,npw=  30     143
- newkpt: read input wf with ikpt,npw=   1     143, make ikpt,npw=  31     143
- newkpt: read input wf with ikpt,npw=   2     150, make ikpt,npw=  32     150

 Initialisation of the first-order wave-functions :
  ireadwf=   0
P newkpt: treating      4 bands with npw=     143 for ikpt=   1 by node    0
P newkpt: treating      4 bands with npw=     143 for ikpt=   2 by node    0
P newkpt: treating      4 bands with npw=     143 for ikpt=   3 by node    0
P newkpt: treating      4 bands with npw=     150 for ikpt=   4 by node    0
P newkpt: treating      4 bands with npw=     143 for ikpt=   5 by node    0
P newkpt: treating      4 bands with npw=     143 for ikpt=   6 by node    0
P newkpt: treating      4 bands with npw=     143 for ikpt=   7 by node    0
P newkpt: treating      4 bands with npw=     143 for ikpt=   8 by node    0
P newkpt: treating      4 bands with npw=     143 for ikpt=   9 by node    0
P newkpt: treating      4 bands with npw=     150 for ikpt=  10 by node    0
P newkpt: treating      4 bands with npw=     143 for ikpt=  11 by node    0
P newkpt: treating      4 bands with npw=     143 for ikpt=  12 by node    0
P newkpt: treating      4 bands with npw=     150 for ikpt=  13 by node    0
P newkpt: treating      4 bands with npw=     150 for ikpt=  14 by node    0
P newkpt: treating      4 bands with npw=     143 for ikpt=  15 by node    0
P newkpt: treating      4 bands with npw=     143 for ikpt=  16 by node    0
P newkpt: treating      4 bands with npw=     150 for ikpt=  17 by node    0
P newkpt: treating      4 bands with npw=     150 for ikpt=  18 by node    0
P newkpt: treating      4 bands with npw=     143 for ikpt=  19 by node    0
P newkpt: treating      4 bands with npw=     143 for ikpt=  20 by node    0
P newkpt: treating      4 bands with npw=     143 for ikpt=  21 by node    0
P newkpt: treating      4 bands with npw=     143 for ikpt=  22 by node    0
P newkpt: treating      4 bands with npw=     143 for ikpt=  23 by node    0
P newkpt: treating      4 bands with npw=     143 for ikpt=  24 by node    0
P newkpt: treating      4 bands with npw=     143 for ikpt=  25 by node    0
P newkpt: treating      4 bands with npw=     150 for ikpt=  26 by node    0
P newkpt: treating      4 bands with npw=     143 for ikpt=  27 by node    0
P newkpt: treating      4 bands with npw=     143 for ikpt=  28 by node    0
P newkpt: treating      4 bands with npw=     143 for ikpt=  29 by node    0
P newkpt: treating      4 bands with npw=     143 for ikpt=  30 by node    0
P newkpt: treating      4 bands with npw=     143 for ikpt=  31 by node    0
P newkpt: treating      4 bands with npw=     150 for ikpt=  32 by node    0


     iter   2DEtotal(Ha)        deltaE(Ha) residm    vres2
-ETOT  1  -10.657126796418     -1.066E+01 2.376E-02 0.000E+00
 ETOT  2  -10.663329071787     -6.202E-03 3.774E-05 0.000E+00
 ETOT  3  -10.663338905354     -9.834E-06 5.812E-08 0.000E+00
 ETOT  4  -10.663338926039     -2.069E-08 9.468E-11 0.000E+00
 ETOT  5  -10.663338926085     -4.536E-11 2.800E-13 0.000E+00

 scprqt:  WARNING -
  nstep=    5 was not enough SCF cycles to converge;
  maximum residual=  2.800E-13 exceeds tolwfr=  1.000E-20

================================================================================

 ----iterations are completed or convergence reached----

 Mean square residual over all n,k,spin=   1.5181E-14; max=  2.8002E-13
  -0.2500  0.5000  0.0000    1  4.58347E-18 kpt; spin; max resid(k); each band:
  2.73E-18 1.07E-18 1.11E-19 4.58E-18
   0.5000 -0.2500  0.0000    1  7.81173E-17 kpt; spin; max resid(k); each band:
  7.81E-17 9.58E-19 5.62E-20 4.69E-17
  -0.2500 -0.2500  0.2500    1  3.87419E-17 kpt; spin; max resid(k); each band:
  3.87E-17 6.45E-19 7.28E-20 1.22E-17
  -0.2500  0.0000  0.0000    1  3.43631E-17 kpt; spin; max resid(k); each band:
  3.44E-17 6.77E-19 1.80E-17 1.80E-17
   0.5000  0.2500  0.0000    1  7.81173E-17 kpt; spin; max resid(k); each band:
  7.81E-17 9.58E-19 5.62E-20 4.69E-17
  -0.2500  0.2500  0.2500    1  7.81173E-17 kpt; spin; max resid(k); each band:
  7.81E-17 9.58E-19 5.62E-20 4.69E-17
   0.2500  0.5000  0.0000    1  4.58347E-18 kpt; spin; max resid(k); each band:
  2.73E-18 1.07E-18 1.11E-19 4.58E-18
   0.5000  0.5000  0.2500    1  3.87419E-17 kpt; spin; max resid(k); each band:
  3.87E-17 6.45E-19 7.28E-20 1.22E-17
  -0.2500  0.5000  0.5000    1  4.58347E-18 kpt; spin; max resid(k); each band:
  2.73E-18 1.07E-18 1.11E-19 4.58E-18
   0.0000 -0.2500  0.0000    1  1.42247E-13 kpt; spin; max resid(k); each band:
  4.22E-17 8.61E-20 8.50E-14 1.42E-13
   0.2500 -0.2500  0.2500    1  3.87419E-17 kpt; spin; max resid(k); each band:
  3.87E-17 6.45E-19 7.28E-20 1.22E-17
   0.5000 -0.2500  0.5000    1  3.87419E-17 kpt; spin; max resid(k); each band:
  3.87E-17 6.45E-19 7.28E-20 1.22E-17
  -0.2500 -0.2500 -0.2500    1  2.80023E-13 kpt; spin; max resid(k); each band:
  4.22E-17 8.61E-20 2.80E-13 2.70E-13
   0.2500  0.0000  0.0000    1  3.43631E-17 kpt; spin; max resid(k); each band:
  3.44E-17 6.77E-19 1.80E-17 1.80E-17
   0.5000  0.0000  0.2500    1  7.81173E-17 kpt; spin; max resid(k); each band:
  7.81E-17 9.58E-19 5.62E-20 4.69E-17
  -0.2500  0.0000  0.5000    1  4.58347E-18 kpt; spin; max resid(k); each band:
  2.73E-18 1.07E-18 1.11E-19 4.58E-18
   0.0000  0.2500  0.0000    1  1.42247E-13 kpt; spin; max resid(k); each band:
  4.22E-17 8.61E-20 8.50E-14 1.42E-13
   0.2500  0.2500  0.2500    1  2.80023E-13 kpt; spin; max resid(k); each band:
  4.22E-17 8.61E-20 2.80E-13 2.70E-13
   0.5000  0.2500  0.5000    1  3.87419E-17 kpt; spin; max resid(k); each band:
  3.87E-17 6.45E-19 7.28E-20 1.22E-17
  -0.2500  0.2500 -0.2500    1  3.87419E-17 kpt; spin; max resid(k); each band:
  3.87E-17 6.45E-19 7.28E-20 1.22E-17
   0.0000  0.5000  0.2500    1  3.87419E-17 kpt; spin; max resid(k); each band:
  3.87E-17 6.45E-19 7.28E-20 1.22E-17
   0.2500  0.5000  0.5000    1  4.58347E-18 kpt; spin; max resid(k); each band:
  2.73E-18 1.07E-18 1.11E-19 4.58E-18
   0.5000  0.5000 -0.2500    1  3.87419E-17 kpt; spin; max resid(k); each band:
  3.87E-17 6.45E-19 7.28E-20 1.22E-17
   0.0000 -0.2500  0.5000    1  3.87419E-17 kpt; spin; max resid(k); each band:
  3.87E-17 6.45E-19 7.28E-20 1.22E-17
   0.2500 -0.2500 -0.2500    1  7.81173E-17 kpt; spin; max resid(k); each band:
  7.81E-17 9.58E-19 5.62E-20 4.69E-17
   0.0000  0.0000  0.2500    1  1.39019E-13 kpt; spin; max resid(k); each band:
  4.22E-17 8.61E-20 1.39E-13 5.45E-14
   0.2500  0.0000  0.5000    1  4.58347E-18 kpt; spin; max resid(k); each band:
  2.73E-18 1.07E-18 1.11E-19 4.58E-18
   0.5000  0.0000 -0.2500    1  7.81173E-17 kpt; spin; max resid(k); each band:
  7.81E-17 9.58E-19 5.62E-20 4.69E-17
   0.0000  0.2500  0.5000    1  3.87419E-17 kpt; spin; max resid(k); each band:
  3.87E-17 6.45E-19 7.28E-20 1.22E-17
   0.2500  0.2500 -0.2500    1  3.87419E-17 kpt; spin; max resid(k); each band:
  3.87E-17 6.45E-19 7.28E-20 1.22E-17
   0.0000  0.5000 -0.2500    1  3.87419E-17 kpt; spin; max resid(k); each band:
  3.87E-17 6.45E-19 7.28E-20 1.22E-17
   0.0000  0.0000 -0.2500    1  1.39019E-13 kpt; spin; max resid(k); each band:
  4.22E-17 8.61E-20 1.39E-13 5.45E-14
 loper3 : ek2=    1.7997143397E+01
          f-sum rule ratio=    1.3153062474E+00
 Expectation of eigenvalue derivatives (hartree) for nkpt=  32  k points:
  (in case of degenerate eigenvalues, averaged derivative)
 kpt#   1, nband=  4, wtk=  0.03125, kpt= -0.2500  0.5000  0.0000 (reduced coord)
  -0.12504  -0.04341   0.21919   0.17883
 kpt#   2, nband=  4, wtk=  0.03125, kpt=  0.5000 -0.2500  0.0000 (reduced coord)
  -0.25593   0.34533   0.20644  -0.04962
 kpt#   3, nband=  4, wtk=  0.03125, kpt= -0.2500 -0.2500  0.2500 (reduced coord)
  -0.19049   0.15096   0.21281   0.06461
 kpt#   4, nband=  4, wtk=  0.03125, kpt= -0.2500  0.0000  0.0000 (reduced coord)
  -0.22775   0.66235   0.12617   0.12617
 kpt#   5, nband=  4, wtk=  0.03125, kpt=  0.5000  0.2500  0.0000 (reduced coord)
   0.25593  -0.34533  -0.20644   0.04962
 kpt#   6, nband=  4, wtk=  0.03125, kpt= -0.2500  0.2500  0.2500 (reduced coord)
  -0.25593   0.34533   0.20644  -0.04962
 kpt#   7, nband=  4, wtk=  0.03125, kpt=  0.2500  0.5000  0.0000 (reduced coord)
   0.12504   0.04341  -0.21919  -0.17883
 kpt#   8, nband=  4, wtk=  0.03125, kpt=  0.5000  0.5000  0.2500 (reduced coord)
   0.19049  -0.15096  -0.21281  -0.06461
 kpt#   9, nband=  4, wtk=  0.03125, kpt= -0.2500  0.5000  0.5000 (reduced coord)
   0.12504   0.04341  -0.21919  -0.17883
 kpt#  10, nband=  4, wtk=  0.03125, kpt=  0.0000 -0.2500  0.0000 (reduced coord)
   0.07592  -0.22078  -0.04205  -0.04205
 kpt#  11, nband=  4, wtk=  0.03125, kpt=  0.2500 -0.2500  0.2500 (reduced coord)
   0.19049  -0.15096  -0.21281  -0.06461
 kpt#  12, nband=  4, wtk=  0.03125, kpt=  0.5000 -0.2500  0.5000 (reduced coord)
  -0.19049   0.15096   0.21281   0.06461
 kpt#  13, nband=  4, wtk=  0.03125, kpt= -0.2500 -0.2500 -0.2500 (reduced coord)
  -0.07592   0.22078   0.04206   0.04206
 kpt#  14, nband=  4, wtk=  0.03125, kpt=  0.2500  0.0000  0.0000 (reduced coord)
   0.22775  -0.66235  -0.12617  -0.12617
 kpt#  15, nband=  4, wtk=  0.03125, kpt=  0.5000  0.0000  0.2500 (reduced coord)
   0.25593  -0.34533  -0.20644   0.04962
 kpt#  16, nband=  4, wtk=  0.03125, kpt= -0.2500  0.0000  0.5000 (reduced coord)
  -0.12504  -0.04341   0.21919   0.17883
 kpt#  17, nband=  4, wtk=  0.03125, kpt=  0.0000  0.2500  0.0000 (reduced coord)
  -0.07592   0.22078   0.04205   0.04205
 kpt#  18, nband=  4, wtk=  0.03125, kpt=  0.2500  0.2500  0.2500 (reduced coord)
   0.07592  -0.22078  -0.04206  -0.04206
 kpt#  19, nband=  4, wtk=  0.03125, kpt=  0.5000  0.2500  0.5000 (reduced coord)
   0.19049  -0.15096  -0.21281  -0.06461
 kpt#  20, nband=  4, wtk=  0.03125, kpt= -0.2500  0.2500 -0.2500 (reduced coord)
  -0.19049   0.15096   0.21281   0.06461
 kpt#  21, nband=  4, wtk=  0.03125, kpt=  0.0000  0.5000  0.2500 (reduced coord)
  -0.19049   0.15096   0.21281   0.06461
 kpt#  22, nband=  4, wtk=  0.03125, kpt=  0.2500  0.5000  0.5000 (reduced coord)
  -0.12504  -0.04341   0.21919   0.17883
 kpt#  23, nband=  4, wtk=  0.03125, kpt=  0.5000  0.5000 -0.2500 (reduced coord)
  -0.19049   0.15096   0.21281   0.06461
 kpt#  24, nband=  4, wtk=  0.03125, kpt=  0.0000 -0.2500  0.5000 (reduced coord)
   0.19049  -0.15096  -0.21281  -0.06461
 kpt#  25, nband=  4, wtk=  0.03125, kpt=  0.2500 -0.2500 -0.2500 (reduced coord)
   0.25593  -0.34533  -0.20644   0.04962
 kpt#  26, nband=  4, wtk=  0.03125, kpt=  0.0000  0.0000  0.2500 (reduced coord)
  -0.07592   0.22078   0.04206   0.04206
 kpt#  27, nband=  4, wtk=  0.03125, kpt=  0.2500  0.0000  0.5000 (reduced coord)
   0.12504   0.04341  -0.21919  -0.17883
 kpt#  28, nband=  4, wtk=  0.03125, kpt=  0.5000  0.0000 -0.2500 (reduced coord)
  -0.25593   0.34533   0.20644  -0.04962
 kpt#  29, nband=  4, wtk=  0.03125, kpt=  0.0000  0.2500  0.5000 (reduced coord)
  -0.19049   0.15096   0.21281   0.06461
 kpt#  30, nband=  4, wtk=  0.03125, kpt=  0.2500  0.2500 -0.2500 (reduced coord)
   0.19049  -0.15096  -0.21281  -0.06461
 kpt#  31, nband=  4, wtk=  0.03125, kpt=  0.0000  0.5000 -0.2500 (reduced coord)
   0.19049  -0.15096  -0.21281  -0.06461
 kpt#  32, nband=  4, wtk=  0.03125, kpt=  0.0000  0.0000 -0.2500 (reduced coord)
   0.07592  -0.22078  -0.04206  -0.04206

 Nine components of 2nd-order total energy (hartree) are
 1,2,3: 0th-order hamiltonian combined with 1st-order wavefunctions
     kin0=   4.10599248E+01 eigvalue=  -1.03256170E+01  local=  -4.42609114E+01
 4,5,6: 1st-order hamiltonian combined with 1st and 0th-order wfs
     kin1=  -2.36717551E+01  Hartree=   0.00000000E+00     xc=   0.00000000E+00
 7,8,9: eventually, occupation + non-local contributions
    edocc=   0.00000000E+00     enl0=   2.41708156E+01   enl1=   2.36420418E+00
 10: eventually, PAW "on-site" Hxc contribution: epaw1=   0.00000000E+00
 1-10 gives the relaxation energy (to be shifted if some occ is /=2.0)
   erelax=  -1.06633389E+01
 11 Contribution from 1st-order change of wavefunctions overlap
 eovl1 =  -9.56356409E-03
  No Ewald or frozen-wf contrib.: the relaxation energy is the total one
 2DEtotal=   -0.1066333893E+02 Ha. Also 2DEtotal=   -0.290164208747E+03 eV
    (  non-var. 2DEtotal :   -1.0663339046E+01 Ha)
================================================================================

 ---- first-order wavefunction calculations are completed ----


 respfn : d/dk was computed, but no 2DTE, so no DDB output.

== END DATASET(S) ==============================================================
================================================================================
  
 -outvars: echo values of variables after computation  --------
            acell      1.0261212902E+01  1.0261212902E+01  1.0261212902E+01 Bohr
              amu      2.80855000E+01
           diemac      1.20000000E+01
             ecut      5.00000000E+00 Hartree
           etotal1    -8.0276900260E+00
           etotal2    -1.0663338926E+01
           etotal3    -1.0663338926E+01
            fcart1    -0.0000000000E+00 -0.0000000000E+00 -0.0000000000E+00
                      -0.0000000000E+00 -0.0000000000E+00 -0.0000000000E+00
-          fftalg         112
           getwfk1          0
           getwfk2          1
           getwfk3          1
             iscf1          7
             iscf2         -3
             iscf3         -3
              ixc           2
           jdtset        1    2    3
              kpt1    -2.50000000E-01  5.00000000E-01  0.00000000E+00
                      -2.50000000E-01  0.00000000E+00  0.00000000E+00
              kpt2    -2.50000000E-01  5.00000000E-01  0.00000000E+00
                       5.00000000E-01 -2.50000000E-01  0.00000000E+00
                      -2.50000000E-01 -2.50000000E-01  2.50000000E-01
                      -2.50000000E-01  0.00000000E+00  0.00000000E+00
                       5.00000000E-01  2.50000000E-01  0.00000000E+00
                      -2.50000000E-01  2.50000000E-01  2.50000000E-01
                       2.50000000E-01  5.00000000E-01  0.00000000E+00
                       5.00000000E-01  5.00000000E-01  2.50000000E-01
                      -2.50000000E-01  5.00000000E-01  5.00000000E-01
                       0.00000000E+00 -2.50000000E-01  0.00000000E+00
                       2.50000000E-01 -2.50000000E-01  2.50000000E-01
                       5.00000000E-01 -2.50000000E-01  5.00000000E-01
                      -2.50000000E-01 -2.50000000E-01 -2.50000000E-01
                       2.50000000E-01  0.00000000E+00  0.00000000E+00
                       5.00000000E-01  0.00000000E+00  2.50000000E-01
                      -2.50000000E-01  0.00000000E+00  5.00000000E-01
                       0.00000000E+00  2.50000000E-01  0.00000000E+00
                       2.50000000E-01  2.50000000E-01  2.50000000E-01
                       5.00000000E-01  2.50000000E-01  5.00000000E-01
                      -2.50000000E-01  2.50000000E-01 -2.50000000E-01
                       0.00000000E+00  5.00000000E-01  2.50000000E-01
                       2.50000000E-01  5.00000000E-01  5.00000000E-01
                       5.00000000E-01  5.00000000E-01 -2.50000000E-01
                       0.00000000E+00 -2.50000000E-01  5.00000000E-01
                       2.50000000E-01 -2.50000000E-01 -2.50000000E-01
                       0.00000000E+00  0.00000000E+00  2.50000000E-01
                       2.50000000E-01  0.00000000E+00  5.00000000E-01
                       5.00000000E-01  0.00000000E+00 -2.50000000E-01
                       0.00000000E+00  2.50000000E-01  5.00000000E-01
                       2.50000000E-01  2.50000000E-01 -2.50000000E-01
                       0.00000000E+00  5.00000000E-01 -2.50000000E-01
                       0.00000000E+00  0.00000000E+00 -2.50000000E-01
              kpt3    -2.50000000E-01  5.00000000E-01  0.00000000E+00
                       5.00000000E-01 -2.50000000E-01  0.00000000E+00
                      -2.50000000E-01 -2.50000000E-01  2.50000000E-01
                      -2.50000000E-01  0.00000000E+00  0.00000000E+00
                       5.00000000E-01  2.50000000E-01  0.00000000E+00
                      -2.50000000E-01  2.50000000E-01  2.50000000E-01
                       2.50000000E-01  5.00000000E-01  0.00000000E+00
                       5.00000000E-01  5.00000000E-01  2.50000000E-01
                      -2.50000000E-01  5.00000000E-01  5.00000000E-01
                       0.00000000E+00 -2.50000000E-01  0.00000000E+00
                       2.50000000E-01 -2.50000000E-01  2.50000000E-01
                       5.00000000E-01 -2.50000000E-01  5.00000000E-01
                      -2.50000000E-01 -2.50000000E-01 -2.50000000E-01
                       2.50000000E-01  0.00000000E+00  0.00000000E+00
                       5.00000000E-01  0.00000000E+00  2.50000000E-01
                      -2.50000000E-01  0.00000000E+00  5.00000000E-01
                       0.00000000E+00  2.50000000E-01  0.00000000E+00
                       2.50000000E-01  2.50000000E-01  2.50000000E-01
                       5.00000000E-01  2.50000000E-01  5.00000000E-01
                      -2.50000000E-01  2.50000000E-01 -2.50000000E-01
                       0.00000000E+00  5.00000000E-01  2.50000000E-01
                       2.50000000E-01  5.00000000E-01  5.00000000E-01
                       5.00000000E-01  5.00000000E-01 -2.50000000E-01
                       0.00000000E+00 -2.50000000E-01  5.00000000E-01
                       2.50000000E-01 -2.50000000E-01 -2.50000000E-01
                       0.00000000E+00  0.00000000E+00  2.50000000E-01
                       2.50000000E-01  0.00000000E+00  5.00000000E-01
                       5.00000000E-01  0.00000000E+00 -2.50000000E-01
                       0.00000000E+00  2.50000000E-01  5.00000000E-01
                       2.50000000E-01  2.50000000E-01 -2.50000000E-01
                       0.00000000E+00  5.00000000E-01 -2.50000000E-01
                       0.00000000E+00  0.00000000E+00 -2.50000000E-01
           kptopt1          1
           kptopt2          3
           kptopt3          3
         kptrlatt        2   -2    2     -2    2    2     -2   -2    2
          kptrlen      2.05224258E+01
P           mkmem1          2
P           mkmem2         32
P           mkmem3         32
P          mkqmem1          2
P          mkqmem2         32
P          mkqmem3         32
P          mk1mem1          2
P          mk1mem2         32
P          mk1mem3         32
            natom           2
            nband1          4
            nband2          4
            nband3          4
           ndtset           3
            ngfft          16      16      16
          ngfftdg          30      30      30
             nkpt1          2
             nkpt2         32
             nkpt3         32
             nqpt1          0
             nqpt2          1
             nqpt3          1
            nstep           5
             nsym          48
           ntypat           1
              occ1     2.000000  2.000000  2.000000  2.000000
              occ2     2.000000  2.000000  2.000000  2.000000
              occ3     2.000000  2.000000  2.000000  2.000000
        optdriver1          0
        optdriver2          1
        optdriver3          1
        pawecutdg      2.00000000E+01 Hartree
         pawxcdev           0
           prtden           0
           prteig           0
            prtwf1          1
            prtwf2          0
            prtwf3          0
            rfddk1          0
            rfddk2          1
            rfddk3          0
            rfdir           1       0       0
           rfelfd1          0
           rfelfd2          0
           rfelfd3          2
            rprim      0.0000000000E+00  5.0000000000E-01  5.0000000000E-01
                       5.0000000000E-01  0.0000000000E+00  5.0000000000E-01
                       5.0000000000E-01  5.0000000000E-01  0.0000000000E+00
           shiftk      5.00000000E-01  5.00000000E-01  5.00000000E-01
          spgroup         227
           strten1     7.9050593662E-05  7.9050593662E-05  7.9050593662E-05
                       0.0000000000E+00  0.0000000000E+00  0.0000000000E+00
           symrel      1  0  0   0  1  0   0  0  1      -1  0  0   0 -1  0   0  0 -1
                       0 -1  1   0 -1  0   1 -1  0       0  1 -1   0  1  0  -1  1  0
                      -1  0  0  -1  0  1  -1  1  0       1  0  0   1  0 -1   1 -1  0
                       0  1 -1   1  0 -1   0  0 -1       0 -1  1  -1  0  1   0  0  1
                      -1  0  0  -1  1  0  -1  0  1       1  0  0   1 -1  0   1  0 -1
                       0 -1  1   1 -1  0   0 -1  0       0  1 -1  -1  1  0   0  1  0
                       1  0  0   0  0  1   0  1  0      -1  0  0   0  0 -1   0 -1  0
                       0  1 -1   0  0 -1   1  0 -1       0 -1  1   0  0  1  -1  0  1
                      -1  0  1  -1  1  0  -1  0  0       1  0 -1   1 -1  0   1  0  0
                       0 -1  0   1 -1  0   0 -1  1       0  1  0  -1  1  0   0  1 -1
                       1  0 -1   0  0 -1   0  1 -1      -1  0  1   0  0  1   0 -1  1
                       0  1  0   0  0  1   1  0  0       0 -1  0   0  0 -1  -1  0  0
                       1  0 -1   0  1 -1   0  0 -1      -1  0  1   0 -1  1   0  0  1
                       0 -1  0   0 -1  1   1 -1  0       0  1  0   0  1 -1  -1  1  0
                      -1  0  1  -1  0  0  -1  1  0       1  0 -1   1  0  0   1 -1  0
                       0  1  0   1  0  0   0  0  1       0 -1  0  -1  0  0   0  0 -1
                       0  0 -1   0  1 -1   1  0 -1       0  0  1   0 -1  1  -1  0  1
                       1 -1  0   0 -1  1   0 -1  0      -1  1  0   0  1 -1   0  1  0
                       0  0  1   1  0  0   0  1  0       0  0 -1  -1  0  0   0 -1  0
                      -1  1  0  -1  0  0  -1  0  1       1 -1  0   1  0  0   1  0 -1
                       0  0  1   0  1  0   1  0  0       0  0 -1   0 -1  0  -1  0  0
                       1 -1  0   0 -1  0   0 -1  1      -1  1  0   0  1  0   0  1 -1
                       0  0 -1   1  0 -1   0  1 -1       0  0  1  -1  0  1   0 -1  1
                      -1  1  0  -1  0  1  -1  0  0       1 -1  0   1  0 -1   1  0  0
            tnons      0.0000000  0.0000000  0.0000000     0.2500000  0.2500000  0.2500000
                       0.0000000  0.0000000  0.0000000     0.2500000  0.2500000  0.2500000
                       0.0000000  0.0000000  0.0000000     0.2500000  0.2500000  0.2500000
                       0.0000000  0.0000000  0.0000000     0.2500000  0.2500000  0.2500000
                       0.0000000  0.0000000  0.0000000     0.2500000  0.2500000  0.2500000
                       0.0000000  0.0000000  0.0000000     0.2500000  0.2500000  0.2500000
                       0.0000000  0.0000000  0.0000000     0.2500000  0.2500000  0.2500000
                       0.0000000  0.0000000  0.0000000     0.2500000  0.2500000  0.2500000
                       0.0000000  0.0000000  0.0000000     0.2500000  0.2500000  0.2500000
                       0.0000000  0.0000000  0.0000000     0.2500000  0.2500000  0.2500000
                       0.0000000  0.0000000  0.0000000     0.2500000  0.2500000  0.2500000
                       0.0000000  0.0000000  0.0000000     0.2500000  0.2500000  0.2500000
                       0.0000000  0.0000000  0.0000000     0.2500000  0.2500000  0.2500000
                       0.0000000  0.0000000  0.0000000     0.2500000  0.2500000  0.2500000
                       0.0000000  0.0000000  0.0000000     0.2500000  0.2500000  0.2500000
                       0.0000000  0.0000000  0.0000000     0.2500000  0.2500000  0.2500000
                       0.0000000  0.0000000  0.0000000     0.2500000  0.2500000  0.2500000
                       0.0000000  0.0000000  0.0000000     0.2500000  0.2500000  0.2500000
                       0.0000000  0.0000000  0.0000000     0.2500000  0.2500000  0.2500000
                       0.0000000  0.0000000  0.0000000     0.2500000  0.2500000  0.2500000
                       0.0000000  0.0000000  0.0000000     0.2500000  0.2500000  0.2500000
                       0.0000000  0.0000000  0.0000000     0.2500000  0.2500000  0.2500000
                       0.0000000  0.0000000  0.0000000     0.2500000  0.2500000  0.2500000
                       0.0000000  0.0000000  0.0000000     0.2500000  0.2500000  0.2500000
           tolvrs1     1.00000000E-20
           tolvrs2     0.00000000E+00
           tolvrs3     0.00000000E+00
           tolwfr1     0.00000000E+00
           tolwfr2     1.00000000E-20
           tolwfr3     1.00000000E-20
            typat      1  1
           useylm           1
              wtk1       0.75000    0.25000
              wtk2       0.03125    0.03125    0.03125    0.03125    0.03125    0.03125
                         0.03125    0.03125    0.03125    0.03125    0.03125    0.03125
                         0.03125    0.03125    0.03125    0.03125    0.03125    0.03125
                         0.03125    0.03125    0.03125    0.03125    0.03125    0.03125
                         0.03125    0.03125    0.03125    0.03125    0.03125    0.03125
                         0.03125    0.03125
              wtk3       0.03125    0.03125    0.03125    0.03125    0.03125    0.03125
                         0.03125    0.03125    0.03125    0.03125    0.03125    0.03125
                         0.03125    0.03125    0.03125    0.03125    0.03125    0.03125
                         0.03125    0.03125    0.03125    0.03125    0.03125    0.03125
                         0.03125    0.03125    0.03125    0.03125    0.03125    0.03125
                         0.03125    0.03125
           xangst      0.0000000000E+00  0.0000000000E+00  0.0000000000E+00
                       1.3575000000E+00  1.3575000000E+00  1.3575000000E+00
            xcart      0.0000000000E+00  0.0000000000E+00  0.0000000000E+00
                       2.5653032254E+00  2.5653032254E+00  2.5653032254E+00
             xred      0.0000000000E+00  0.0000000000E+00  0.0000000000E+00
                       2.5000000000E-01  2.5000000000E-01  2.5000000000E-01
            znucl       14.00000

================================================================================


- Timing analysis has been suppressed with timopt=0



================================================================================

 Suggested references for the acknowledgment of ABINIT usage.

 The users of ABINIT have little formal obligations with respect to the ABINIT group
 (those specified in the GNU General Public License, http://www.gnu.org/copyleft/gpl.txt).
 However, it is common practice in the scientific literature,
 to acknowledge the efforts of people that have made the research possible.
 In this spirit, please find below suggested citations of work written by ABINIT developers,
 corresponding to implementations inside of ABINIT that you have used in the present run.
 Note also that it will be of great value to readers of publications presenting these results,
 to read papers enabling them to understand the theoretical formalism and details
 of the ABINIT implementation.
 For information on why they are suggested, see also http://www.abinit.org/about/?text=acknowledgments.

 [1] Implementation of the Projector Augmented-Wave Method in the ABINIT code.
 M. Torrent, F. Jollet, F. Bottin, G. Zerah, and X. Gonze Comput. Mat. Science 42, 337, (2008).
 Comment : PAW calculations. Strong suggestion to cite this paper.

 [2] Projector augmented-wave approach to density-functional perturbation theory.
 C. Audouze, F. Jollet, M. Torrent and X. Gonze, Phys. Rev. B 73, 235101 (2006).
 Comparison between projector augmented-wave and ultrasoft pseudopotential formalisms
 at the density-functional perturbation theory level.
 C. Audouze, F. Jollet, M. Torrent and X. Gonze, Phys. Rev. B 78, 035105 (2008).
 Comment : to be cited in case the computation of response function with PAW, i.e. (rfphon=1 or rfelfd=1) and usepaw=1.
 Strong suggestion to cite these papers.

 [3] First-principles responses of solids to atomic displacements and homogeneous electric fields:,
 implementation of a conjugate-gradient algorithm. X. Gonze, Phys. Rev. B55, 10337 (1997).
 Comment : Non-vanishing rfphon and/or rfelfd, in the norm-conserving case.

 [4] Dynamical matrices, Born effective charges, dielectric permittivity tensors, and ,
 interatomic force constants from density-functional perturbation theory,
 X. Gonze and C. Lee, Phys. Rev. B55, 10355 (1997).
 Comment : Non-vanishing rfphon and/or rfelfd, in the norm-conserving case.

 [5] ABINIT : First-principles approach of materials and nanosystem properties.
 X. Gonze, B. Amadon, P.-M. Anglade, J.-M. Beuken, F. Bottin, P. Boulanger, F. Bruneval,
 D. Caliste, R. Caracas, M. Cote, T. Deutsch, L. Genovese, Ph. Ghosez, M. Giantomassi
 S. Goedecker, D.R. Hamann, P. Hermet, F. Jollet, G. Jomard, S. Leroux, M. Mancini, S. Mazevet,
 M.J.T. Oliveira, G. Onida, Y. Pouillon, T. Rangel, G.-M. Rignanese, D. Sangalli, R. Shaltaf,
 M. Torrent, M.J. Verstraete, G. Zerah, J.W. Zwanziger
 Computer Phys. Comm. 180, 2582-2615 (2009).
 Comment : the third generic paper describing the ABINIT project.
 Note that a version of this paper, that is not formatted for Computer Phys. Comm. 
 is available at http://www.abinit.org/about/ABINIT_CPC_v10.pdf .
 The licence allows the authors to put it on the Web.

 [6] A brief introduction to the ABINIT software package.
 X. Gonze, G.-M. Rignanese, M. Verstraete, J.-M. Beuken, Y. Pouillon, R. Caracas, F. Jollet,
 M. Torrent, G. Zerah, M. Mikami, Ph. Ghosez, M. Veithen, J.-Y. Raty, V. Olevano, F. Bruneval,
 L. Reining, R. Godby, G. Onida, D.R. Hamann, and D.C. Allan.
 Z. Kristallogr. 220, 558-562 (2005).
 Comment : the second generic paper describing the ABINIT project. Note that this paper
 should be cited especially if you are using the GW part of ABINIT, as several authors
 of this part are not in the list of authors of the first or third paper.
 The .pdf of the latter paper is available at http://www.abinit.org/about/zfk_0505-06_558-562.pdf.
 Note that it should not redistributed (Copyright by Oldenburg Wissenshaftverlag,
 the licence allows the authors to put it on the Web).
-
- Proc.   0 individual time (sec): cpu=          2.5  wall=          2.5

================================================================================

 Calculation completed.
.Delivered   21 WARNINGs and   0 COMMENTs to log file.
+Overall time at end (sec) : cpu=          2.5  wall=          2.5
