
.Version 7.10.1 of ABINIT 
.(MPI version, prepared for a x86_64_linux_gnu4.7 computer) 

.Copyright (C) 1998-2014 ABINIT group . 
 ABINIT comes with ABSOLUTELY NO WARRANTY.
 It is free software, and you are welcome to redistribute it
 under certain conditions (GNU General Public License,
 see ~abinit/COPYING or http://www.gnu.org/copyleft/gpl.txt).

 ABINIT is a project of the Universite Catholique de Louvain,
 Corning Inc. and other collaborators, see ~abinit/doc/developers/contributors.txt .
 Please read ~abinit/doc/users/acknowledgments.html for suggested
 acknowledgments of the ABINIT effort.
 For more information, see http://www.abinit.org .

.Starting date : Wed  1 Oct 2014.
- ( at 19h34 )
  
- input  file    -> t38.in
- output file    -> t38.out
- root for input  files -> t38i
- root for output files -> t38o


 Symmetries : the unit cell is not primitive
================================================================================
 Values of the parameters that define the memory need of the present run
   intxc =         0  ionmov =         0    iscf =        17 xclevel =         2
  lmnmax =        18   lnmax =         6   mband =        25  mffmem =         1
P  mgfft =        15   mkmem =         4 mpssoang=         3     mpw =       178
  mqgrid =      3001   natom =         2    nfft =      3375    nkpt =         4
  nloalg =         4  nspden =         2 nspinor =         1  nsppol =         2
    nsym =        96  n1xccc =         1  ntypat =         1  occopt =         4
 PAW method is used; the additional fine FFT grid is defined by:
   mgfftf=        24    nfftf =     13824
================================================================================
P This job should need less than                      10.003 Mbytes of memory.
  Rough estimation (10% accuracy) of disk space for files :
_ WF disk file :      0.545 Mbytes ; DEN or POT disk file :      0.213 Mbytes.
================================================================================

--------------------------------------------------------------------------------
------------- Echo of variables that govern the present computation ------------
--------------------------------------------------------------------------------
-
- outvars: echo of selected default values                                      
-   accesswff0 =  0 , fftalg0 =112 , wfoptalg0 = 10
-
- outvars: echo of global parameters not present in the input file              
-  max_nthreads =    0
-
 -outvars: echo values of preprocessed input variables --------
            acell      5.4200000000E+00  5.4200000000E+00  5.4200000000E+00 Bohr
              amu      5.58470000E+01
             ecut      8.00000000E+00 Hartree
-          fftalg         112
           istwfk        0    0    0    9
              ixc          11
              kpt      1.66666667E-01  1.66666667E-01  1.66666667E-01
                       5.00000000E-01  1.66666667E-01  1.66666667E-01
                       5.00000000E-01  5.00000000E-01  1.66666667E-01
                       5.00000000E-01  5.00000000E-01  5.00000000E-01
         kptrlatt        3    0    0      0    3    0      0    0    3
          kptrlen      1.62600000E+01
            lpawu           2
P           mkmem           4
            natom           2
            nband          25
            ngfft          15      15      15
          ngfftdg          24      24      24
             nkpt           4
           nspden           2
           nsppol           2
            nstep          15
             nsym          96
           ntypat           1
              occ      1.000000  1.000000  1.000000  1.000000  1.000000  1.000000
                       1.000000  1.000000  1.000000  1.000000  1.000000  1.000000
                       1.000000  1.000000  1.000000  1.000000  0.000000  0.000000
                       0.000000  0.000000  0.000000  0.000000  0.000000  0.000000
                       0.000000
                       1.000000  1.000000  1.000000  1.000000  1.000000  1.000000
                       1.000000  1.000000  1.000000  1.000000  1.000000  1.000000
                       1.000000  1.000000  1.000000  1.000000  0.000000  0.000000
                       0.000000  0.000000  0.000000  0.000000  0.000000  0.000000
                       0.000000
                       1.000000  1.000000  1.000000  1.000000  1.000000  1.000000
                       1.000000  1.000000  1.000000  1.000000  1.000000  1.000000
                       1.000000  1.000000  1.000000  1.000000  0.000000  0.000000
                       0.000000  0.000000  0.000000  0.000000  0.000000  0.000000
                       0.000000
                       1.000000  1.000000  1.000000  1.000000  1.000000  1.000000
                       1.000000  1.000000  1.000000  1.000000  1.000000  1.000000
                       1.000000  1.000000  1.000000  1.000000  0.000000  0.000000
                       0.000000  0.000000  0.000000  0.000000  0.000000  0.000000
                       0.000000
                       1.000000  1.000000  1.000000  1.000000  1.000000  1.000000
                       1.000000  1.000000  1.000000  1.000000  1.000000  1.000000
                       1.000000  1.000000  1.000000  1.000000  0.000000  0.000000
                       0.000000  0.000000  0.000000  0.000000  0.000000  0.000000
                       0.000000
                       1.000000  1.000000  1.000000  1.000000  1.000000  1.000000
                       1.000000  1.000000  1.000000  1.000000  1.000000  1.000000
                       1.000000  1.000000  1.000000  1.000000  0.000000  0.000000
                       0.000000  0.000000  0.000000  0.000000  0.000000  0.000000
                       0.000000
                       1.000000  1.000000  1.000000  1.000000  1.000000  1.000000
                       1.000000  1.000000  1.000000  1.000000  1.000000  1.000000
                       1.000000  1.000000  1.000000  1.000000  0.000000  0.000000
                       0.000000  0.000000  0.000000  0.000000  0.000000  0.000000
                       0.000000
                       1.000000  1.000000  1.000000  1.000000  1.000000  1.000000
                       1.000000  1.000000  1.000000  1.000000  1.000000  1.000000
                       1.000000  1.000000  1.000000  1.000000  0.000000  0.000000
                       0.000000  0.000000  0.000000  0.000000  0.000000  0.000000
                       0.000000
           occopt           4
        pawecutdg      2.00000000E+01 Hartree
           prteig           0
           shiftk      5.00000000E-01  5.00000000E-01  5.00000000E-01
           spinat      0.0000000000E+00  0.0000000000E+00  2.8430620000E+00
                       0.0000000000E+00  0.0000000000E+00  2.8430620000E+00
           symrel      1  0  0   0  1  0   0  0  1       1  0  0   0  1  0   0  0  1
                      -1  0  0   0 -1  0   0  0 -1      -1  0  0   0 -1  0   0  0 -1
                      -1  0  0   0  1  0   0  0 -1      -1  0  0   0  1  0   0  0 -1
                       1  0  0   0 -1  0   0  0  1       1  0  0   0 -1  0   0  0  1
                      -1  0  0   0 -1  0   0  0  1      -1  0  0   0 -1  0   0  0  1
                       1  0  0   0  1  0   0  0 -1       1  0  0   0  1  0   0  0 -1
                       1  0  0   0 -1  0   0  0 -1       1  0  0   0 -1  0   0  0 -1
                      -1  0  0   0  1  0   0  0  1      -1  0  0   0  1  0   0  0  1
                       0  1  0   1  0  0   0  0  1       0  1  0   1  0  0   0  0  1
                       0 -1  0  -1  0  0   0  0 -1       0 -1  0  -1  0  0   0  0 -1
                       0 -1  0   1  0  0   0  0 -1       0 -1  0   1  0  0   0  0 -1
                       0  1  0  -1  0  0   0  0  1       0  1  0  -1  0  0   0  0  1
                       0 -1  0  -1  0  0   0  0  1       0 -1  0  -1  0  0   0  0  1
                       0  1  0   1  0  0   0  0 -1       0  1  0   1  0  0   0  0 -1
                       0  1  0  -1  0  0   0  0 -1       0  1  0  -1  0  0   0  0 -1
                       0 -1  0   1  0  0   0  0  1       0 -1  0   1  0  0   0  0  1
                       0  0  1   1  0  0   0  1  0       0  0  1   1  0  0   0  1  0
                       0  0 -1  -1  0  0   0 -1  0       0  0 -1  -1  0  0   0 -1  0
                       0  0 -1   1  0  0   0 -1  0       0  0 -1   1  0  0   0 -1  0
                       0  0  1  -1  0  0   0  1  0       0  0  1  -1  0  0   0  1  0
                       0  0 -1  -1  0  0   0  1  0       0  0 -1  -1  0  0   0  1  0
                       0  0  1   1  0  0   0 -1  0       0  0  1   1  0  0   0 -1  0
                       0  0  1  -1  0  0   0 -1  0       0  0  1  -1  0  0   0 -1  0
                       0  0 -1   1  0  0   0  1  0       0  0 -1   1  0  0   0  1  0
                       1  0  0   0  0  1   0  1  0       1  0  0   0  0  1   0  1  0
                      -1  0  0   0  0 -1   0 -1  0      -1  0  0   0  0 -1   0 -1  0
                      -1  0  0   0  0  1   0 -1  0      -1  0  0   0  0  1   0 -1  0
                       1  0  0   0  0 -1   0  1  0       1  0  0   0  0 -1   0  1  0
                      -1  0  0   0  0 -1   0  1  0      -1  0  0   0  0 -1   0  1  0
                       1  0  0   0  0  1   0 -1  0       1  0  0   0  0  1   0 -1  0
                       1  0  0   0  0 -1   0 -1  0       1  0  0   0  0 -1   0 -1  0
                      -1  0  0   0  0  1   0  1  0      -1  0  0   0  0  1   0  1  0
                       0  1  0   0  0  1   1  0  0       0  1  0   0  0  1   1  0  0
                       0 -1  0   0  0 -1  -1  0  0       0 -1  0   0  0 -1  -1  0  0
                       0 -1  0   0  0  1  -1  0  0       0 -1  0   0  0  1  -1  0  0
                       0  1  0   0  0 -1   1  0  0       0  1  0   0  0 -1   1  0  0
                       0 -1  0   0  0 -1   1  0  0       0 -1  0   0  0 -1   1  0  0
                       0  1  0   0  0  1  -1  0  0       0  1  0   0  0  1  -1  0  0
                       0  1  0   0  0 -1  -1  0  0       0  1  0   0  0 -1  -1  0  0
                       0 -1  0   0  0  1   1  0  0       0 -1  0   0  0  1   1  0  0
                       0  0  1   0  1  0   1  0  0       0  0  1   0  1  0   1  0  0
                       0  0 -1   0 -1  0  -1  0  0       0  0 -1   0 -1  0  -1  0  0
                       0  0 -1   0  1  0  -1  0  0       0  0 -1   0  1  0  -1  0  0
                       0  0  1   0 -1  0   1  0  0       0  0  1   0 -1  0   1  0  0
                       0  0 -1   0 -1  0   1  0  0       0  0 -1   0 -1  0   1  0  0
                       0  0  1   0  1  0  -1  0  0       0  0  1   0  1  0  -1  0  0
                       0  0  1   0 -1  0  -1  0  0       0  0  1   0 -1  0  -1  0  0
                       0  0 -1   0  1  0   1  0  0       0  0 -1   0  1  0   1  0  0
            tnons      0.0000000  0.0000000  0.0000000     0.5000000  0.5000000  0.5000000
                       0.0000000  0.0000000  0.0000000     0.5000000  0.5000000  0.5000000
                       0.0000000  0.0000000  0.0000000     0.5000000  0.5000000  0.5000000
                       0.0000000  0.0000000  0.0000000     0.5000000  0.5000000  0.5000000
                       0.0000000  0.0000000  0.0000000     0.5000000  0.5000000  0.5000000
                       0.0000000  0.0000000  0.0000000     0.5000000  0.5000000  0.5000000
                       0.0000000  0.0000000  0.0000000     0.5000000  0.5000000  0.5000000
                       0.0000000  0.0000000  0.0000000     0.5000000  0.5000000  0.5000000
                       0.0000000  0.0000000  0.0000000     0.5000000  0.5000000  0.5000000
                       0.0000000  0.0000000  0.0000000     0.5000000  0.5000000  0.5000000
                       0.0000000  0.0000000  0.0000000     0.5000000  0.5000000  0.5000000
                       0.0000000  0.0000000  0.0000000     0.5000000  0.5000000  0.5000000
                       0.0000000  0.0000000  0.0000000     0.5000000  0.5000000  0.5000000
                       0.0000000  0.0000000  0.0000000     0.5000000  0.5000000  0.5000000
                       0.0000000  0.0000000  0.0000000     0.5000000  0.5000000  0.5000000
                       0.0000000  0.0000000  0.0000000     0.5000000  0.5000000  0.5000000
                       0.0000000  0.0000000  0.0000000     0.5000000  0.5000000  0.5000000
                       0.0000000  0.0000000  0.0000000     0.5000000  0.5000000  0.5000000
                       0.0000000  0.0000000  0.0000000     0.5000000  0.5000000  0.5000000
                       0.0000000  0.0000000  0.0000000     0.5000000  0.5000000  0.5000000
                       0.0000000  0.0000000  0.0000000     0.5000000  0.5000000  0.5000000
                       0.0000000  0.0000000  0.0000000     0.5000000  0.5000000  0.5000000
                       0.0000000  0.0000000  0.0000000     0.5000000  0.5000000  0.5000000
                       0.0000000  0.0000000  0.0000000     0.5000000  0.5000000  0.5000000
                       0.0000000  0.0000000  0.0000000     0.5000000  0.5000000  0.5000000
                       0.0000000  0.0000000  0.0000000     0.5000000  0.5000000  0.5000000
                       0.0000000  0.0000000  0.0000000     0.5000000  0.5000000  0.5000000
                       0.0000000  0.0000000  0.0000000     0.5000000  0.5000000  0.5000000
                       0.0000000  0.0000000  0.0000000     0.5000000  0.5000000  0.5000000
                       0.0000000  0.0000000  0.0000000     0.5000000  0.5000000  0.5000000
                       0.0000000  0.0000000  0.0000000     0.5000000  0.5000000  0.5000000
                       0.0000000  0.0000000  0.0000000     0.5000000  0.5000000  0.5000000
                       0.0000000  0.0000000  0.0000000     0.5000000  0.5000000  0.5000000
                       0.0000000  0.0000000  0.0000000     0.5000000  0.5000000  0.5000000
                       0.0000000  0.0000000  0.0000000     0.5000000  0.5000000  0.5000000
                       0.0000000  0.0000000  0.0000000     0.5000000  0.5000000  0.5000000
                       0.0000000  0.0000000  0.0000000     0.5000000  0.5000000  0.5000000
                       0.0000000  0.0000000  0.0000000     0.5000000  0.5000000  0.5000000
                       0.0000000  0.0000000  0.0000000     0.5000000  0.5000000  0.5000000
                       0.0000000  0.0000000  0.0000000     0.5000000  0.5000000  0.5000000
                       0.0000000  0.0000000  0.0000000     0.5000000  0.5000000  0.5000000
                       0.0000000  0.0000000  0.0000000     0.5000000  0.5000000  0.5000000
                       0.0000000  0.0000000  0.0000000     0.5000000  0.5000000  0.5000000
                       0.0000000  0.0000000  0.0000000     0.5000000  0.5000000  0.5000000
                       0.0000000  0.0000000  0.0000000     0.5000000  0.5000000  0.5000000
                       0.0000000  0.0000000  0.0000000     0.5000000  0.5000000  0.5000000
                       0.0000000  0.0000000  0.0000000     0.5000000  0.5000000  0.5000000
                       0.0000000  0.0000000  0.0000000     0.5000000  0.5000000  0.5000000
           tolvrs      1.00000000E-11
           tsmear      1.83746627E-03 Hartree
            typat      1  1
          usepawu           1
           useylm           1
              wtk        0.29630    0.44444    0.22222    0.03704
           xangst      0.0000000000E+00  0.0000000000E+00  0.0000000000E+00
                       1.4340702353E+00  1.4340702353E+00  1.4340702353E+00
            xcart      0.0000000000E+00  0.0000000000E+00  0.0000000000E+00
                       2.7100000000E+00  2.7100000000E+00  2.7100000000E+00
             xred      0.0000000000E+00  0.0000000000E+00  0.0000000000E+00
                       5.0000000000E-01  5.0000000000E-01  5.0000000000E-01
            znucl       26.00000

================================================================================

 chkinp: Checking input parameters for consistency.

================================================================================
== DATASET  1 ==================================================================
-   nproc =    1

 Exchange-correlation functional for the present dataset will be:
  GGA: Perdew-Burke-Ernzerhof functional - ixc=11
 Citation for XC functional:
  J.P.Perdew, K.Burke, M.Ernzerhof, PRL 77, 3865 (1996)

 Real(R)+Recip(G) space primitive vectors, cartesian coordinates (Bohr,Bohr^-1):
 R(1)=  5.4200000  0.0000000  0.0000000  G(1)=  0.1845018  0.0000000  0.0000000
 R(2)=  0.0000000  5.4200000  0.0000000  G(2)=  0.0000000  0.1845018  0.0000000
 R(3)=  0.0000000  0.0000000  5.4200000  G(3)=  0.0000000  0.0000000  0.1845018
 Unit cell volume ucvol=  1.5922009E+02 bohr^3
 Angles (23,13,12)=  9.00000000E+01  9.00000000E+01  9.00000000E+01 degrees

 Coarse grid specifications (used for wave-functions):

 getcut: wavevector=  0.0000  0.0000  0.0000  ngfft=  15  15  15
         ecut(hartree)=      8.000   => boxcut(ratio)=   2.02870

 Fine grid specifications (used for densities):

 getcut: wavevector=  0.0000  0.0000  0.0000  ngfft=  24  24  24
         ecut(hartree)=     20.000   => boxcut(ratio)=   2.19954

--- Pseudopotential description ------------------------------------------------
- pspini: atom type   1  psp file is /data/ABINIT/testf_gcc47/torrent_7.10.1-public/tests/Psps_for_tests/26fe.paw
- pspatm: opening atomic psp file    /data/ABINIT/testf_gcc47/torrent_7.10.1-public/tests/Psps_for_tests/26fe.paw
- iron - PAW data extracted from US-psp (D.Vanderbilt) - generated by USpp2Abinit v2.2.1
- 26.00000  16.00000  20070813                znucl, zion, pspdat
    7   11    2    0       594   0.00000      pspcod,pspxc,lmax,lloc,mmax,r2well
 Pseudopotential format is: paw3
 basis_size (lnmax)=  6 (lmn_size= 18), orbitals=   0   0   1   1   2   2
 Spheres core radius: rc_sph= 2.02984247
 3 radial meshes are used:
  - mesh 1: r(i)=AA*[exp(BB*(i-1))-1], size= 594 , AA= 0.95337E-04 BB= 0.16949E-01
  - mesh 2: r(i)=AA*[exp(BB*(i-1))-1], size= 590 , AA= 0.95337E-04 BB= 0.16949E-01
  - mesh 3: r(i)=AA*[exp(BB*(i-1))-1], size= 683 , AA= 0.95337E-04 BB= 0.16949E-01
 Shapefunction is BESSEL type: shapef(r,l)=aa(1,l)*jl(q(1,l)*r)+aa(2,l)*jl(q(2,l)*r)
 Radius for shape functions = sphere core radius
 Radial grid used for partial waves is grid 1
 Radial grid used for projectors is grid  2
 Radial grid used for (t)core density is grid 1
 Radial grid used for Vloc is grid 3
 Compensation charge density is taken into account in XC energy/potential
 pspatm: atomic psp has been read  and splines computed

   2.32160999E+03                                ecore*ucvol(ha*bohr**3)
--------------------------------------------------------------------------------

P newkpt: treating     25 bands with npw=     172 for ikpt=   1 by node    0
P newkpt: treating     25 bands with npw=     178 for ikpt=   2 by node    0
P newkpt: treating     25 bands with npw=     168 for ikpt=   3 by node    0
P newkpt: treating     25 bands with npw=      80 for ikpt=   4 by node    0
P newkpt: treating     25 bands with npw=     172 for ikpt=   1 by node    0
P newkpt: treating     25 bands with npw=     178 for ikpt=   2 by node    0
P newkpt: treating     25 bands with npw=     168 for ikpt=   3 by node    0
P newkpt: treating     25 bands with npw=      80 for ikpt=   4 by node    0

_setup2: Arith. and geom. avg. npw (full set) are     173.333     173.266


 ******************************************
 LDA+U Method used: FLL
 ******************************************

================================================================================

     iter   Etot(hartree)     deltaE(h) residm    nres2    magn
 ETOT  1  -251.37197372085    -2.51E+02 1.52E+01 7.19E+02 2.000
 ETOT  2  -250.24633289826     1.13E+00 1.71E-02 6.29E+01 1.630
 ETOT  3  -249.24364141466     1.00E+00 3.93E-01 1.46E+02 4.009
 ETOT  4  -248.81441489992     4.29E-01 1.93E-01 4.33E+01 4.593
 ETOT  5  -248.82549043990    -1.11E-02 2.01E-04 4.10E+01 4.593
 ETOT  6  -248.66350893523     1.62E-01 2.10E-02 8.11E-01 4.536
 ETOT  7  -248.67056319123    -7.05E-03 8.01E-04 4.84E-01 4.593
 ETOT  8  -248.66836268698     2.20E-03 5.71E-04 2.14E-02 4.593
 ETOT  9  -248.66844064954    -7.80E-05 5.56E-05 1.18E-03 4.593
 ETOT 10  -248.66845175562    -1.11E-05 3.66E-06 3.09E-03 4.593
 ETOT 11  -248.66845002690     1.73E-06 9.01E-06 1.22E-04 4.593
 ETOT 12  -248.66844990238     1.25E-07 2.98E-06 2.21E-05 4.593
 ETOT 13  -248.66844984804     5.43E-08 4.47E-06 1.27E-05 4.593
 ETOT 14  -248.66844980648     4.16E-08 1.41E-06 2.17E-08 4.593
 ETOT 15  -248.66844980695    -4.79E-10 2.04E-06 3.15E-09 4.593

 Cartesian components of stress tensor (hartree/bohr^3)
  sigma(1 1)=  7.34114219E-03  sigma(3 2)=  0.00000000E+00
  sigma(2 2)=  7.34114219E-03  sigma(3 1)=  0.00000000E+00
  sigma(3 3)=  7.34114219E-03  sigma(2 1)=  0.00000000E+00


 scprqt:  WARNING -
  nstep=   15 was not enough SCF cycles to converge;
  density residual=  3.147E-09 exceeds tolvrs=  1.000E-11


 PAW TEST:
 ==== Compensation charge inside spheres ============
 The following values must be close to each other ...
 Compensation charge over spherical meshes =     19.154024103464018
 Compensation charge over fine fft grid    =     19.153975022520306

 ==== Results concerning PAW augmentation regions ====

 Total pseudopotential strength Dij (hartree):
 Atom #  1 - Spin component 1
  -2.53774   0.26324   0.00000   0.00000   0.00000   0.00000   0.00000   0.00000   0.00000   0.00000   0.00000   0.00000 ...
   0.26324   0.06301   0.00000   0.00000   0.00000   0.00000   0.00000   0.00000   0.00000   0.00000   0.00000   0.00000 ...
   0.00000   0.00000  -1.81649   0.00000   0.00000   0.07932   0.00000   0.00000   0.00000   0.00000   0.00000   0.00000 ...
   0.00000   0.00000   0.00000  -1.81649   0.00000   0.00000   0.07932   0.00000   0.00000   0.00000   0.00000   0.00000 ...
   0.00000   0.00000   0.00000   0.00000  -1.81649   0.00000   0.00000   0.07932   0.00000   0.00000   0.00000   0.00000 ...
   0.00000   0.00000   0.07932   0.00000   0.00000   0.01692   0.00000   0.00000   0.00000   0.00000   0.00000   0.00000 ...
   0.00000   0.00000   0.00000   0.07932   0.00000   0.00000   0.01692   0.00000   0.00000   0.00000   0.00000   0.00000 ...
   0.00000   0.00000   0.00000   0.00000   0.07932   0.00000   0.00000   0.01692   0.00000   0.00000   0.00000   0.00000 ...
   0.00000   0.00000   0.00000   0.00000   0.00000   0.00000   0.00000   0.00000  -0.22233   0.00000   0.00000   0.00000 ...
   0.00000   0.00000   0.00000   0.00000   0.00000   0.00000   0.00000   0.00000   0.00000  -0.22233   0.00000   0.00000 ...
   0.00000   0.00000   0.00000   0.00000   0.00000   0.00000   0.00000   0.00000   0.00000   0.00000  -0.22723   0.00000 ...
   0.00000   0.00000   0.00000   0.00000   0.00000   0.00000   0.00000   0.00000   0.00000   0.00000   0.00000  -0.22233 ...
   ...  only 12  components have been written...
 Atom #  1 - Spin component 2
  -2.47681   0.24889   0.00000   0.00000   0.00000   0.00000   0.00000   0.00000   0.00000   0.00000   0.00000   0.00000 ...
   0.24889   0.06380   0.00000   0.00000   0.00000   0.00000   0.00000   0.00000   0.00000   0.00000   0.00000   0.00000 ...
   0.00000   0.00000  -1.73831   0.00000   0.00000   0.06987   0.00000   0.00000   0.00000   0.00000   0.00000   0.00000 ...
   0.00000   0.00000   0.00000  -1.73831   0.00000   0.00000   0.06987   0.00000   0.00000   0.00000   0.00000   0.00000 ...
   0.00000   0.00000   0.00000   0.00000  -1.73831   0.00000   0.00000   0.06987   0.00000   0.00000   0.00000   0.00000 ...
   0.00000   0.00000   0.06987   0.00000   0.00000   0.01754   0.00000   0.00000   0.00000   0.00000   0.00000   0.00000 ...
   0.00000   0.00000   0.00000   0.06987   0.00000   0.00000   0.01754   0.00000   0.00000   0.00000   0.00000   0.00000 ...
   0.00000   0.00000   0.00000   0.00000   0.06987   0.00000   0.00000   0.01754   0.00000   0.00000   0.00000   0.00000 ...
   0.00000   0.00000   0.00000   0.00000   0.00000   0.00000   0.00000   0.00000  -0.16514   0.00000   0.00000   0.00000 ...
   0.00000   0.00000   0.00000   0.00000   0.00000   0.00000   0.00000   0.00000   0.00000  -0.16514   0.00000   0.00000 ...
   0.00000   0.00000   0.00000   0.00000   0.00000   0.00000   0.00000   0.00000   0.00000   0.00000  -0.16105   0.00000 ...
   0.00000   0.00000   0.00000   0.00000   0.00000   0.00000   0.00000   0.00000   0.00000   0.00000   0.00000  -0.16514 ...
   ...  only 12  components have been written...
 Atom #  2 - Spin component 1
  -2.53774   0.26324   0.00000   0.00000   0.00000   0.00000   0.00000   0.00000   0.00000   0.00000   0.00000   0.00000 ...
   0.26324   0.06301   0.00000   0.00000   0.00000   0.00000   0.00000   0.00000   0.00000   0.00000   0.00000   0.00000 ...
   0.00000   0.00000  -1.81649   0.00000   0.00000   0.07932   0.00000   0.00000   0.00000   0.00000   0.00000   0.00000 ...
   0.00000   0.00000   0.00000  -1.81649   0.00000   0.00000   0.07932   0.00000   0.00000   0.00000   0.00000   0.00000 ...
   0.00000   0.00000   0.00000   0.00000  -1.81649   0.00000   0.00000   0.07932   0.00000   0.00000   0.00000   0.00000 ...
   0.00000   0.00000   0.07932   0.00000   0.00000   0.01692   0.00000   0.00000   0.00000   0.00000   0.00000   0.00000 ...
   0.00000   0.00000   0.00000   0.07932   0.00000   0.00000   0.01692   0.00000   0.00000   0.00000   0.00000   0.00000 ...
   0.00000   0.00000   0.00000   0.00000   0.07932   0.00000   0.00000   0.01692   0.00000   0.00000   0.00000   0.00000 ...
   0.00000   0.00000   0.00000   0.00000   0.00000   0.00000   0.00000   0.00000  -0.22233   0.00000   0.00000   0.00000 ...
   0.00000   0.00000   0.00000   0.00000   0.00000   0.00000   0.00000   0.00000   0.00000  -0.22233   0.00000   0.00000 ...
   0.00000   0.00000   0.00000   0.00000   0.00000   0.00000   0.00000   0.00000   0.00000   0.00000  -0.22723   0.00000 ...
   0.00000   0.00000   0.00000   0.00000   0.00000   0.00000   0.00000   0.00000   0.00000   0.00000   0.00000  -0.22233 ...
   ...  only 12  components have been written...
 Atom #  2 - Spin component 2
  -2.47681   0.24889   0.00000   0.00000   0.00000   0.00000   0.00000   0.00000   0.00000   0.00000   0.00000   0.00000 ...
   0.24889   0.06380   0.00000   0.00000   0.00000   0.00000   0.00000   0.00000   0.00000   0.00000   0.00000   0.00000 ...
   0.00000   0.00000  -1.73831   0.00000   0.00000   0.06987   0.00000   0.00000   0.00000   0.00000   0.00000   0.00000 ...
   0.00000   0.00000   0.00000  -1.73831   0.00000   0.00000   0.06987   0.00000   0.00000   0.00000   0.00000   0.00000 ...
   0.00000   0.00000   0.00000   0.00000  -1.73831   0.00000   0.00000   0.06987   0.00000   0.00000   0.00000   0.00000 ...
   0.00000   0.00000   0.06987   0.00000   0.00000   0.01754   0.00000   0.00000   0.00000   0.00000   0.00000   0.00000 ...
   0.00000   0.00000   0.00000   0.06987   0.00000   0.00000   0.01754   0.00000   0.00000   0.00000   0.00000   0.00000 ...
   0.00000   0.00000   0.00000   0.00000   0.06987   0.00000   0.00000   0.01754   0.00000   0.00000   0.00000   0.00000 ...
   0.00000   0.00000   0.00000   0.00000   0.00000   0.00000   0.00000   0.00000  -0.16514   0.00000   0.00000   0.00000 ...
   0.00000   0.00000   0.00000   0.00000   0.00000   0.00000   0.00000   0.00000   0.00000  -0.16514   0.00000   0.00000 ...
   0.00000   0.00000   0.00000   0.00000   0.00000   0.00000   0.00000   0.00000   0.00000   0.00000  -0.16105   0.00000 ...
   0.00000   0.00000   0.00000   0.00000   0.00000   0.00000   0.00000   0.00000   0.00000   0.00000   0.00000  -0.16514 ...
   ...  only 12  components have been written...


 Augmentation waves occupancies Rhoij:
 Atom #  1 - Spin component 1
   0.99916  -0.02060   0.00000   0.00000   0.00000   0.00000   0.00000   0.00000   0.00000   0.00000   0.00000   0.00000 ...
  -0.02060   0.63934   0.00000   0.00000   0.00000   0.00000   0.00000   0.00000   0.00000   0.00000   0.00000   0.00000 ...
   0.00000   0.00000   1.00532   0.00000   0.00000   0.01881   0.00000   0.00000   0.00000   0.00000   0.00000   0.00000 ...
   0.00000   0.00000   0.00000   1.00532   0.00000   0.00000   0.01881   0.00000   0.00000   0.00000   0.00000   0.00000 ...
   0.00000   0.00000   0.00000   0.00000   1.00532   0.00000   0.00000   0.01881   0.00000   0.00000   0.00000   0.00000 ...
   0.00000   0.00000   0.01881   0.00000   0.00000   0.73245   0.00000   0.00000   0.00000   0.00000   0.00000   0.00000 ...
   0.00000   0.00000   0.00000   0.01881   0.00000   0.00000   0.73245   0.00000   0.00000   0.00000   0.00000   0.00000 ...
   0.00000   0.00000   0.00000   0.00000   0.01881   0.00000   0.00000   0.73245   0.00000   0.00000   0.00000   0.00000 ...
   0.00000   0.00000   0.00000   0.00000   0.00000   0.00000   0.00000   0.00000   0.99506   0.00000   0.00000   0.00000 ...
   0.00000   0.00000   0.00000   0.00000   0.00000   0.00000   0.00000   0.00000   0.00000   0.99506   0.00000   0.00000 ...
   0.00000   0.00000   0.00000   0.00000   0.00000   0.00000   0.00000   0.00000   0.00000   0.00000   0.98695   0.00000 ...
   0.00000   0.00000   0.00000   0.00000   0.00000   0.00000   0.00000   0.00000   0.00000   0.00000   0.00000   0.99506 ...
   ...  only 12  components have been written...
 Atom #  1 - Spin component 2
   0.99967  -0.01414   0.00000   0.00000   0.00000   0.00000   0.00000   0.00000   0.00000   0.00000   0.00000   0.00000 ...
  -0.01414   0.67512   0.00000   0.00000   0.00000   0.00000   0.00000   0.00000   0.00000   0.00000   0.00000   0.00000 ...
   0.00000   0.00000   1.00650   0.00000   0.00000   0.04005   0.00000   0.00000   0.00000   0.00000   0.00000   0.00000 ...
   0.00000   0.00000   0.00000   1.00650   0.00000   0.00000   0.04005   0.00000   0.00000   0.00000   0.00000   0.00000 ...
   0.00000   0.00000   0.00000   0.00000   1.00650   0.00000   0.00000   0.04005   0.00000   0.00000   0.00000   0.00000 ...
   0.00000   0.00000   0.04005   0.00000   0.00000   0.98905   0.00000   0.00000   0.00000   0.00000   0.00000   0.00000 ...
   0.00000   0.00000   0.00000   0.04005   0.00000   0.00000   0.98905   0.00000   0.00000   0.00000   0.00000   0.00000 ...
   0.00000   0.00000   0.00000   0.00000   0.04005   0.00000   0.00000   0.98905   0.00000   0.00000   0.00000   0.00000 ...
   0.00000   0.00000   0.00000   0.00000   0.00000   0.00000   0.00000   0.00000   0.63143   0.00000   0.00000   0.00000 ...
   0.00000   0.00000   0.00000   0.00000   0.00000   0.00000   0.00000   0.00000   0.00000   0.63143   0.00000   0.00000 ...
   0.00000   0.00000   0.00000   0.00000   0.00000   0.00000   0.00000   0.00000   0.00000   0.00000   0.38081   0.00000 ...
   0.00000   0.00000   0.00000   0.00000   0.00000   0.00000   0.00000   0.00000   0.00000   0.00000   0.00000   0.63143 ...
   ...  only 12  components have been written...
 Atom #  2 - Spin component 1
   0.99916  -0.02060   0.00000   0.00000   0.00000   0.00000   0.00000   0.00000   0.00000   0.00000   0.00000   0.00000 ...
  -0.02060   0.63934   0.00000   0.00000   0.00000   0.00000   0.00000   0.00000   0.00000   0.00000   0.00000   0.00000 ...
   0.00000   0.00000   1.00532   0.00000   0.00000   0.01881   0.00000   0.00000   0.00000   0.00000   0.00000   0.00000 ...
   0.00000   0.00000   0.00000   1.00532   0.00000   0.00000   0.01881   0.00000   0.00000   0.00000   0.00000   0.00000 ...
   0.00000   0.00000   0.00000   0.00000   1.00532   0.00000   0.00000   0.01881   0.00000   0.00000   0.00000   0.00000 ...
   0.00000   0.00000   0.01881   0.00000   0.00000   0.73245   0.00000   0.00000   0.00000   0.00000   0.00000   0.00000 ...
   0.00000   0.00000   0.00000   0.01881   0.00000   0.00000   0.73245   0.00000   0.00000   0.00000   0.00000   0.00000 ...
   0.00000   0.00000   0.00000   0.00000   0.01881   0.00000   0.00000   0.73245   0.00000   0.00000   0.00000   0.00000 ...
   0.00000   0.00000   0.00000   0.00000   0.00000   0.00000   0.00000   0.00000   0.99506   0.00000   0.00000   0.00000 ...
   0.00000   0.00000   0.00000   0.00000   0.00000   0.00000   0.00000   0.00000   0.00000   0.99506   0.00000   0.00000 ...
   0.00000   0.00000   0.00000   0.00000   0.00000   0.00000   0.00000   0.00000   0.00000   0.00000   0.98695   0.00000 ...
   0.00000   0.00000   0.00000   0.00000   0.00000   0.00000   0.00000   0.00000   0.00000   0.00000   0.00000   0.99506 ...
   ...  only 12  components have been written...
 Atom #  2 - Spin component 2
   0.99967  -0.01414   0.00000   0.00000   0.00000   0.00000   0.00000   0.00000   0.00000   0.00000   0.00000   0.00000 ...
  -0.01414   0.67512   0.00000   0.00000   0.00000   0.00000   0.00000   0.00000   0.00000   0.00000   0.00000   0.00000 ...
   0.00000   0.00000   1.00650   0.00000   0.00000   0.04005   0.00000   0.00000   0.00000   0.00000   0.00000   0.00000 ...
   0.00000   0.00000   0.00000   1.00650   0.00000   0.00000   0.04005   0.00000   0.00000   0.00000   0.00000   0.00000 ...
   0.00000   0.00000   0.00000   0.00000   1.00650   0.00000   0.00000   0.04005   0.00000   0.00000   0.00000   0.00000 ...
   0.00000   0.00000   0.04005   0.00000   0.00000   0.98905   0.00000   0.00000   0.00000   0.00000   0.00000   0.00000 ...
   0.00000   0.00000   0.00000   0.04005   0.00000   0.00000   0.98905   0.00000   0.00000   0.00000   0.00000   0.00000 ...
   0.00000   0.00000   0.00000   0.00000   0.04005   0.00000   0.00000   0.98905   0.00000   0.00000   0.00000   0.00000 ...
   0.00000   0.00000   0.00000   0.00000   0.00000   0.00000   0.00000   0.00000   0.63143   0.00000   0.00000   0.00000 ...
   0.00000   0.00000   0.00000   0.00000   0.00000   0.00000   0.00000   0.00000   0.00000   0.63143   0.00000   0.00000 ...
   0.00000   0.00000   0.00000   0.00000   0.00000   0.00000   0.00000   0.00000   0.00000   0.00000   0.38081   0.00000 ...
   0.00000   0.00000   0.00000   0.00000   0.00000   0.00000   0.00000   0.00000   0.00000   0.00000   0.00000   0.63143 ...
   ...  only 12  components have been written...

 "PAW+U" part of augmentation waves occupancies Rhoij:
 Atom #  1 - L=2 ONLY - Spin component 1
   0.99506   0.00000   0.00000   0.00000   0.00000   0.01316   0.00000   0.00000   0.00000   0.00000
   0.00000   0.99506   0.00000   0.00000   0.00000   0.00000   0.01316   0.00000   0.00000   0.00000
   0.00000   0.00000   0.98695   0.00000   0.00000   0.00000   0.00000   0.00417   0.00000   0.00000
   0.00000   0.00000   0.00000   0.99506   0.00000   0.00000   0.00000   0.00000   0.01316   0.00000
   0.00000   0.00000   0.00000   0.00000   0.98695   0.00000   0.00000   0.00000   0.00000   0.00417
   0.01316   0.00000   0.00000   0.00000   0.00000   0.00247   0.00000   0.00000   0.00000   0.00000
   0.00000   0.01316   0.00000   0.00000   0.00000   0.00000   0.00247   0.00000   0.00000   0.00000
   0.00000   0.00000   0.00417   0.00000   0.00000   0.00000   0.00000   0.00229   0.00000   0.00000
   0.00000   0.00000   0.00000   0.01316   0.00000   0.00000   0.00000   0.00000   0.00247   0.00000
   0.00000   0.00000   0.00000   0.00000   0.00417   0.00000   0.00000   0.00000   0.00000   0.00229
 Atom #  1 - L=2 ONLY - Spin component 2
   0.63143   0.00000   0.00000   0.00000   0.00000   0.04363   0.00000   0.00000   0.00000   0.00000
   0.00000   0.63143   0.00000   0.00000   0.00000   0.00000   0.04363   0.00000   0.00000   0.00000
   0.00000   0.00000   0.38081   0.00000   0.00000   0.00000   0.00000   0.03518   0.00000   0.00000
   0.00000   0.00000   0.00000   0.63143   0.00000   0.00000   0.00000   0.00000   0.04363   0.00000
   0.00000   0.00000   0.00000   0.00000   0.38081   0.00000   0.00000   0.00000   0.00000   0.03518
   0.04363   0.00000   0.00000   0.00000   0.00000   0.00339   0.00000   0.00000   0.00000   0.00000
   0.00000   0.04363   0.00000   0.00000   0.00000   0.00000   0.00339   0.00000   0.00000   0.00000
   0.00000   0.00000   0.03518   0.00000   0.00000   0.00000   0.00000   0.00342   0.00000   0.00000
   0.00000   0.00000   0.00000   0.04363   0.00000   0.00000   0.00000   0.00000   0.00339   0.00000
   0.00000   0.00000   0.00000   0.00000   0.03518   0.00000   0.00000   0.00000   0.00000   0.00342
 Atom #  2 - L=2 ONLY - Spin component 1
   0.99506   0.00000   0.00000   0.00000   0.00000   0.01316   0.00000   0.00000   0.00000   0.00000
   0.00000   0.99506   0.00000   0.00000   0.00000   0.00000   0.01316   0.00000   0.00000   0.00000
   0.00000   0.00000   0.98695   0.00000   0.00000   0.00000   0.00000   0.00417   0.00000   0.00000
   0.00000   0.00000   0.00000   0.99506   0.00000   0.00000   0.00000   0.00000   0.01316   0.00000
   0.00000   0.00000   0.00000   0.00000   0.98695   0.00000   0.00000   0.00000   0.00000   0.00417
   0.01316   0.00000   0.00000   0.00000   0.00000   0.00247   0.00000   0.00000   0.00000   0.00000
   0.00000   0.01316   0.00000   0.00000   0.00000   0.00000   0.00247   0.00000   0.00000   0.00000
   0.00000   0.00000   0.00417   0.00000   0.00000   0.00000   0.00000   0.00229   0.00000   0.00000
   0.00000   0.00000   0.00000   0.01316   0.00000   0.00000   0.00000   0.00000   0.00247   0.00000
   0.00000   0.00000   0.00000   0.00000   0.00417   0.00000   0.00000   0.00000   0.00000   0.00229
 Atom #  2 - L=2 ONLY - Spin component 2
   0.63143   0.00000   0.00000   0.00000   0.00000   0.04363   0.00000   0.00000   0.00000   0.00000
   0.00000   0.63143   0.00000   0.00000   0.00000   0.00000   0.04363   0.00000   0.00000   0.00000
   0.00000   0.00000   0.38081   0.00000   0.00000   0.00000   0.00000   0.03518   0.00000   0.00000
   0.00000   0.00000   0.00000   0.63143   0.00000   0.00000   0.00000   0.00000   0.04363   0.00000
   0.00000   0.00000   0.00000   0.00000   0.38081   0.00000   0.00000   0.00000   0.00000   0.03518
   0.04363   0.00000   0.00000   0.00000   0.00000   0.00339   0.00000   0.00000   0.00000   0.00000
   0.00000   0.04363   0.00000   0.00000   0.00000   0.00000   0.00339   0.00000   0.00000   0.00000
   0.00000   0.00000   0.03518   0.00000   0.00000   0.00000   0.00000   0.00342   0.00000   0.00000
   0.00000   0.00000   0.00000   0.04363   0.00000   0.00000   0.00000   0.00000   0.00339   0.00000
   0.00000   0.00000   0.00000   0.00000   0.03518   0.00000   0.00000   0.00000   0.00000   0.00342

 ---------- LDA+U DATA --------------------------------------------------- 

 ====== For Atom     1, occupations for correlated orbitals. lpawu =   2

 Atom   1. Occ. for lpawu and for spin  1 =   4.13398
 Atom   1. Occ. for lpawu and for spin  2 =   1.71004
 => On atom   1,  local Mag. for lpawu is       -2.423933

 == Occupation matrix for correlated orbitals:

 Occupation matrix for spin  1
     0.81871    0.00000    0.00000    0.00000    0.00000
     0.00000    0.81871    0.00000    0.00000    0.00000
     0.00000    0.00000    0.83893    0.00000    0.00000
     0.00000    0.00000    0.00000    0.81871    0.00000
     0.00000    0.00000    0.00000    0.00000    0.83893


 Occupation matrix for spin  2
     0.41714    0.00000    0.00000    0.00000    0.00000
     0.00000    0.41714    0.00000    0.00000    0.00000
     0.00000    0.00000    0.22932    0.00000    0.00000
     0.00000    0.00000    0.00000    0.41714    0.00000
     0.00000    0.00000    0.00000    0.00000    0.22932


 ====== For Atom     2, occupations for correlated orbitals. lpawu =   2

 Atom   2. Occ. for lpawu and for spin  1 =   4.13398
 Atom   2. Occ. for lpawu and for spin  2 =   1.71004
 => On atom   2,  local Mag. for lpawu is       -2.423933

 == Occupation matrix for correlated orbitals:

 Occupation matrix for spin  1
     0.81871    0.00000    0.00000    0.00000    0.00000
     0.00000    0.81871    0.00000    0.00000    0.00000
     0.00000    0.00000    0.83893    0.00000    0.00000
     0.00000    0.00000    0.00000    0.81871    0.00000
     0.00000    0.00000    0.00000    0.00000    0.83893


 Occupation matrix for spin  2
     0.41714    0.00000    0.00000    0.00000    0.00000
     0.00000    0.41714    0.00000    0.00000    0.00000
     0.00000    0.00000    0.22932    0.00000    0.00000
     0.00000    0.00000    0.00000    0.41714    0.00000
     0.00000    0.00000    0.00000    0.00000    0.22932



================================================================================

 ----iterations are completed or convergence reached----

 Mean square residual over all n,k,spin=   1.0306E-08; max=  2.0417E-06
   0.1667  0.1667  0.1667    1  5.06403E-09 kpt; spin; max resid(k); each band:
  1.54E-13 1.57E-13 2.31E-13 2.00E-13 6.76E-14 6.83E-14 6.73E-14 6.74E-14
  4.93E-13 5.85E-13 1.18E-12 2.38E-13 2.38E-13 1.87E-13 6.93E-14 6.94E-14
  3.43E-14 4.91E-14 6.88E-14 1.26E-12 1.80E-12 1.17E-12 1.17E-12 5.06E-09
  1.46E-12
   0.5000  0.1667  0.1667    1  1.43904E-08 kpt; spin; max resid(k); each band:
  2.24E-13 2.14E-13 2.26E-13 1.95E-13 1.36E-13 1.36E-13 1.05E-14 1.49E-13
  8.74E-13 8.71E-13 6.94E-13 6.94E-13 3.36E-13 2.93E-13 1.28E-14 1.28E-14
  3.33E-14 3.12E-14 6.37E-13 6.80E-13 1.87E-12 1.87E-12 1.43E-12 1.51E-12
  1.44E-08
   0.5000  0.5000  0.1667    1  8.02741E-12 kpt; spin; max resid(k); each band:
  2.42E-13 2.24E-13 2.24E-13 2.24E-13 2.78E-14 1.95E-13 9.43E-14 9.43E-14
  8.39E-13 6.79E-13 2.74E-13 2.74E-13 8.20E-13 8.20E-13 9.87E-15 1.23E-14
  3.12E-17 3.12E-17 1.36E-12 1.36E-12 1.04E-12 2.11E-12 1.55E-12 8.03E-12
  1.23E-12
   0.5000  0.5000  0.5000    1  1.44497E-12 kpt; spin; max resid(k); each band:
  6.64E-17 3.09E-13 1.63E-13 1.63E-13 1.63E-13 1.63E-13 1.63E-13 1.63E-13
  7.72E-13 7.73E-13 7.73E-13 7.73E-13 7.73E-13 7.73E-13 2.39E-16 2.39E-16
  2.39E-16 2.39E-16 1.41E-12 1.41E-12 1.41E-12 1.41E-12 1.42E-12 1.44E-12
  5.73E-13
   0.1667  0.1667  0.1667    2  1.39065E-11 kpt; spin; max resid(k); each band:
  9.64E-14 1.00E-13 1.28E-13 1.31E-13 4.98E-14 3.21E-14 1.96E-14 1.96E-14
  2.95E-13 3.04E-13 8.20E-13 2.33E-13 2.33E-13 1.96E-13 1.86E-14 4.42E-14
  4.42E-14 7.30E-14 7.13E-14 1.02E-12 1.02E-12 7.76E-13 1.14E-12 1.39E-11
  1.10E-12
   0.5000  0.1667  0.1667    2  2.04170E-06 kpt; spin; max resid(k); each band:
  1.39E-13 1.37E-13 1.33E-13 1.05E-13 7.61E-14 7.60E-14 6.94E-15 6.57E-14
  5.75E-13 5.78E-13 5.49E-13 5.49E-13 2.16E-13 1.99E-13 3.08E-14 3.14E-14
  4.13E-14 4.13E-14 2.17E-13 2.03E-13 1.26E-12 1.26E-12 8.08E-13 8.08E-13
  2.04E-06
   0.5000  0.5000  0.1667    2  8.09160E-13 kpt; spin; max resid(k); each band:
  1.47E-13 1.23E-13 1.13E-13 1.13E-13 9.24E-15 1.14E-13 3.63E-14 3.63E-14
  5.74E-13 4.58E-13 2.00E-13 2.00E-13 7.09E-13 7.10E-13 2.33E-14 1.54E-14
  2.20E-17 2.20E-17 4.21E-13 4.21E-13 5.67E-13 5.58E-13 5.85E-13 8.09E-13
  6.70E-13
   0.5000  0.5000  0.5000    2  1.57724E-12 kpt; spin; max resid(k); each band:
  7.99E-17 1.56E-13 7.23E-14 7.23E-14 7.23E-14 7.23E-14 7.23E-14 7.23E-14
  5.29E-13 5.29E-13 5.29E-13 5.29E-13 5.29E-13 5.29E-13 1.40E-17 1.40E-17
  1.40E-17 1.40E-17 7.38E-13 7.52E-13 7.41E-13 7.39E-13 7.38E-13 1.58E-12
  4.10E-13
 reduced coordinates (array xred) for    2 atoms
       0.000000000000      0.000000000000      0.000000000000
       0.500000000000      0.500000000000      0.500000000000
 rms dE/dt=  0.0000E+00; max dE/dt=  0.0000E+00; dE/dt below (all hartree)
    1       0.000000000000      0.000000000000      0.000000000000
    2       0.000000000000      0.000000000000      0.000000000000

 cartesian coordinates (angstrom) at end:
    1      0.00000000000000     0.00000000000000     0.00000000000000
    2      1.43407023527890     1.43407023527890     1.43407023527890

 cartesian forces (hartree/bohr) at end:
    1     -0.00000000000000    -0.00000000000000    -0.00000000000000
    2     -0.00000000000000    -0.00000000000000    -0.00000000000000
 frms,max,avg= 0.0000000E+00 0.0000000E+00   0.000E+00  0.000E+00  0.000E+00 h/b

 cartesian forces (eV/Angstrom) at end:
    1     -0.00000000000000    -0.00000000000000    -0.00000000000000
    2     -0.00000000000000    -0.00000000000000    -0.00000000000000
 frms,max,avg= 0.0000000E+00 0.0000000E+00   0.000E+00  0.000E+00  0.000E+00 e/A
 length scales=  5.420000000000  5.420000000000  5.420000000000 bohr
              =  2.868140470558  2.868140470558  2.868140470558 angstroms
 Fermi (or HOMO) energy (hartree) =   0.25092   Average Vxc (hartree)=  -0.50501
 Magnetization (Bohr magneton)=  4.59259259E+00
 Total spin up =  1.82962963E+01   Total spin down =  1.37037037E+01
 Eigenvalues (hartree) for nkpt=   4  k points, SPIN UP:
 kpt#   1, nband= 25, wtk=  0.29630, kpt=  0.1667  0.1667  0.1667 (reduced coord)
  -2.99973  -2.99715  -1.74718  -1.74718  -1.74394  -1.74035  -1.73841  -1.73841
   0.01995   0.11461   0.11461   0.16572   0.16572   0.18790   0.21052   0.21052
   0.21390   0.23969   0.23969   0.54727   0.54727   0.60294   0.96818   0.96818
   0.98043
      occupation numbers for kpt#   1
   1.00000   1.00000   1.00000   1.00000   1.00000   1.00000   1.00000   1.00000
   1.00000   1.00000   1.00000   1.00000   1.00000   1.00000   1.00000   1.00000
   1.00000   1.00000   1.00000   0.00000   0.00000   0.00000   0.00000   0.00000
   0.00000
 kpt#   2, nband= 25, wtk=  0.44444, kpt=  0.5000  0.1667  0.1667 (reduced coord)
  -2.99852  -2.99852  -1.74940  -1.74940  -1.74421  -1.74421  -1.73926  -1.73926
   0.10808   0.10808   0.14021   0.14021   0.16958   0.16958   0.20033   0.20033
   0.22942   0.22942   0.29108   0.29108   0.71677   0.71677   0.74283   0.74283
   1.08211
      occupation numbers for kpt#   2
   1.00000   1.00000   1.00000   1.00000   1.00000   1.00000   1.00000   1.00000
   1.00000   1.00000   1.00000   1.00000   1.00000   1.00000   1.00000   1.00000
   1.00000   1.00000   0.00000   0.00000   0.00000   0.00000   0.00000   0.00000
   0.00000
 kpt#   3, nband= 25, wtk=  0.22222, kpt=  0.5000  0.5000  0.1667 (reduced coord)
  -2.99826  -2.99826  -1.74960  -1.74960  -1.74313  -1.74313  -1.73744  -1.73744
   0.10100   0.10100   0.13724   0.13724   0.20565   0.20565   0.22110   0.22110
   0.22802   0.22802   0.35450   0.35450   0.51993   0.51993   0.83101   0.83101
   0.87310
      occupation numbers for kpt#   3
   1.00000   1.00000   1.00000   1.00000   1.00000   1.00000   1.00000   1.00000
   1.00000   1.00000   1.00000   1.00000   1.00000   1.00000   1.00000   1.00000
   1.00000   1.00000   0.00000   0.00000   0.00000   0.00000   0.00000   0.00000
   0.00000
 kpt#   4, nband= 25, wtk=  0.03704, kpt=  0.5000  0.5000  0.5000 (reduced coord)
  -2.99808  -2.99808  -1.74301  -1.74301  -1.74301  -1.74301  -1.74301  -1.74301
   0.14305   0.14305   0.14305   0.14305   0.14305   0.14305   0.23161   0.23161
   0.23161   0.23161   0.56906   0.56906   0.56906   0.56906   0.56906   0.56906
   0.64073
      occupation numbers for kpt#   4
   1.00000   1.00000   1.00000   1.00000   1.00000   1.00000   1.00000   1.00000
   1.00000   1.00000   1.00000   1.00000   1.00000   1.00000   1.00000   1.00000
   1.00000   1.00000   0.00000   0.00000   0.00000   0.00000   0.00000   0.00000
   0.00000
 Eigenvalues (hartree) for nkpt=   4  k points, SPIN DOWN:
 kpt#   1, nband= 25, wtk=  0.29630, kpt=  0.1667  0.1667  0.1667 (reduced coord)
  -2.89806  -2.89525  -1.64840  -1.64840  -1.64467  -1.64118  -1.63869  -1.63869
   0.02428   0.17945   0.17945   0.24019   0.24019   0.26129   0.29453   0.30801
   0.30801   0.32560   0.32560   0.57596   0.57596   0.62875   0.97597   0.97597
   0.99292
      occupation numbers for kpt#   1
   1.00000   1.00000   1.00000   1.00000   1.00000   1.00000   1.00000   1.00000
   1.00000   1.00000   1.00000   1.00000   1.00000   0.00000   0.00000   0.00000
   0.00000   0.00000   0.00000   0.00000   0.00000   0.00000   0.00000   0.00000
   0.00000
 kpt#   2, nband= 25, wtk=  0.44444, kpt=  0.5000  0.1667  0.1667 (reduced coord)
  -2.89672  -2.89672  -1.65064  -1.65064  -1.64490  -1.64490  -1.63971  -1.63971
   0.13717   0.13717   0.21014   0.21014   0.23675   0.23675   0.28770   0.28770
   0.32167   0.32167   0.36357   0.36357   0.74304   0.74304   0.76612   0.76612
   1.09419
      occupation numbers for kpt#   2
   1.00000   1.00000   1.00000   1.00000   1.00000   1.00000   1.00000   1.00000
   1.00000   1.00000   1.00000   1.00000   1.00000   1.00000   0.00000   0.00000
   0.00000   0.00000   0.00000   0.00000   0.00000   0.00000   0.00000   0.00000
   0.00000
 kpt#   3, nband= 25, wtk=  0.22222, kpt=  0.5000  0.5000  0.1667 (reduced coord)
  -2.89646  -2.89646  -1.65120  -1.65120  -1.64381  -1.64381  -1.63786  -1.63786
   0.15159   0.15159   0.20534   0.20534   0.24946   0.24946   0.31658   0.31658
   0.32869   0.32869   0.40120   0.40120   0.56829   0.56829   0.84125   0.84125
   0.89382
      occupation numbers for kpt#   3
   1.00000   1.00000   1.00000   1.00000   1.00000   1.00000   1.00000   1.00000
   1.00000   1.00000   1.00000   1.00000   1.00000   1.00000   0.00000   0.00000
   0.00000   0.00000   0.00000   0.00000   0.00000   0.00000   0.00000   0.00000
   0.00000
 kpt#   4, nband= 25, wtk=  0.03704, kpt=  0.5000  0.5000  0.5000 (reduced coord)
  -2.89628  -2.89628  -1.64400  -1.64400  -1.64400  -1.64400  -1.64400  -1.64400
   0.20000   0.20000   0.20000   0.20000   0.20000   0.20000   0.33236   0.33236
   0.33236   0.33236   0.60021   0.60021   0.60021   0.60021   0.60021   0.60021
   0.66793
      occupation numbers for kpt#   4
   1.00000   1.00000   1.00000   1.00000   1.00000   1.00000   1.00000   1.00000
   1.00000   1.00000   1.00000   1.00000   1.00000   1.00000   0.00000   0.00000
   0.00000   0.00000   0.00000   0.00000   0.00000   0.00000   0.00000   0.00000
   0.00000
 Total charge density [el/Bohr^3]
,     Maximum=    2.6950E+00  at reduced coord.    0.5000    0.5000    0.5000
,Next maximum=    2.6950E+00  at reduced coord.    0.0000    0.0000    0.0000
,     Minimum=    3.1807E-02  at reduced coord.    0.5000    0.0000    0.0000
,Next minimum=    3.1807E-02  at reduced coord.    0.0000    0.5000    0.0000
,  Integrated=    3.2000E+01
 Spin up density      [el/Bohr^3]
,     Maximum=    1.5689E+00  at reduced coord.    0.5000    0.5000    0.5000
,Next maximum=    1.5689E+00  at reduced coord.    0.0000    0.0000    0.0000
,     Minimum=    1.4327E-02  at reduced coord.    0.5000    0.0000    0.0000
,Next minimum=    1.4327E-02  at reduced coord.    0.0000    0.5000    0.0000
,  Integrated=    1.8296E+01
 Spin down density    [el/Bohr^3]
,     Maximum=    1.1261E+00  at reduced coord.    0.5000    0.5000    0.5000
,Next maximum=    1.1261E+00  at reduced coord.    0.0000    0.0000    0.0000
,     Minimum=    1.7480E-02  at reduced coord.    0.5000    0.0000    0.0000
,Next minimum=    1.7480E-02  at reduced coord.    0.0000    0.5000    0.0000
,  Integrated=    1.3704E+01
 Magnetization (spin up - spin down) [el/Bohr^3]
,     Maximum=    4.4277E-01  at reduced coord.    0.5000    0.5000    0.5000
,Next maximum=    4.4277E-01  at reduced coord.    0.0000    0.0000    0.0000
,     Minimum=   -4.5107E-03  at reduced coord.    0.5000    0.2500    0.0000
,Next minimum=   -4.5107E-03  at reduced coord.    0.2500    0.5000    0.0000
,  Integrated=    4.5926E+00
 Relative magnetization (=zeta, between -1 and 1)
,     Maximum=    2.5694E-01  at reduced coord.    0.5000    0.5000    0.7917
,Next maximum=    2.5694E-01  at reduced coord.    0.0000    0.0000    0.7083
,     Minimum=   -1.2452E-01  at reduced coord.    0.5000    0.2500    0.0000
,Next minimum=   -1.2452E-01  at reduced coord.    0.2500    0.5000    0.0000

--------------------------------------------------------------------------------
 Components of total free energy (in Hartree) :

    Kinetic energy  =  1.88389739115903E+01
    Hartree energy  =  4.68350285074659E+01
    XC energy       = -2.34889558341194E+01
    Ewald energy    = -1.71889993187126E+02
    PspCore energy  =  1.45811374803458E+01
    Loc. psp. energy= -1.18713491857262E+02
    Spherical terms = -1.48311611707527E+01
    >>>>> Internal E= -2.48668462149858E+02

    -kT*entropy     =  5.08873107423005E-05
    >>>>>>>>> Etotal= -2.48668411262548E+02

 "Double-counting" decomposition of free energy:
    Band energy     = -2.92541146383780E+01
    Ewald energy    = -1.71889993187126E+02
    PspCore energy  =  1.45811374803458E+01
    Dble-C XC-energy= -3.96581949547268E+01
    Spherical terms = -2.24473353943795E+01
    >>>>> Internal E= -2.48668500694265E+02

    -kT*entropy     =  5.08873107423005E-05
    >>>> Etotal (DC)= -2.48668449806954E+02

  >Total energy in eV           = -6.76661159272153E+03
  >Total DC energy in eV        = -6.76661264156817E+03
--------------------------------------------------------------------------------

 Cartesian components of stress tensor (hartree/bohr^3)
  sigma(1 1)=  7.34114219E-03  sigma(3 2)=  0.00000000E+00
  sigma(2 2)=  7.34114219E-03  sigma(3 1)=  0.00000000E+00
  sigma(3 3)=  7.34114219E-03  sigma(2 1)=  0.00000000E+00

-Cartesian components of stress tensor (GPa)         [Pressure= -2.1598E+02 GPa]
- sigma(1 1)=  2.15983824E+02  sigma(3 2)=  0.00000000E+00
- sigma(2 2)=  2.15983824E+02  sigma(3 1)=  0.00000000E+00
- sigma(3 3)=  2.15983824E+02  sigma(2 1)=  0.00000000E+00

== END DATASET(S) ==============================================================
================================================================================
  
 -outvars: echo values of variables after computation  --------
            acell      5.4200000000E+00  5.4200000000E+00  5.4200000000E+00 Bohr
              amu      5.58470000E+01
             ecut      8.00000000E+00 Hartree
           etotal     -2.4866844981E+02
            fcart     -0.0000000000E+00 -0.0000000000E+00 -0.0000000000E+00
                      -0.0000000000E+00 -0.0000000000E+00 -0.0000000000E+00
-          fftalg         112
           istwfk        0    0    0    9
              ixc          11
              kpt      1.66666667E-01  1.66666667E-01  1.66666667E-01
                       5.00000000E-01  1.66666667E-01  1.66666667E-01
                       5.00000000E-01  5.00000000E-01  1.66666667E-01
                       5.00000000E-01  5.00000000E-01  5.00000000E-01
         kptrlatt        3    0    0      0    3    0      0    0    3
          kptrlen      1.62600000E+01
            lpawu           2
P           mkmem           4
            natom           2
            nband          25
            ngfft          15      15      15
          ngfftdg          24      24      24
             nkpt           4
           nspden           2
           nsppol           2
            nstep          15
             nsym          96
           ntypat           1
              occ      1.000000  1.000000  1.000000  1.000000  1.000000  1.000000
                       1.000000  1.000000  1.000000  1.000000  1.000000  1.000000
                       1.000000  1.000000  1.000000  1.000000  1.000000  1.000000
                       1.000000  0.000000  0.000000  0.000000  0.000000  0.000000
                       0.000000
                       1.000000  1.000000  1.000000  1.000000  1.000000  1.000000
                       1.000000  1.000000  1.000000  1.000000  1.000000  1.000000
                       1.000000  1.000000  1.000000  1.000000  1.000000  1.000000
                       0.000000  0.000000  0.000000  0.000000  0.000000  0.000000
                       0.000000
                       1.000000  1.000000  1.000000  1.000000  1.000000  1.000000
                       1.000000  1.000000  1.000000  1.000000  1.000000  1.000000
                       1.000000  1.000000  1.000000  1.000000  1.000000  1.000000
                       0.000000  0.000000  0.000000  0.000000  0.000000  0.000000
                       0.000000
                       1.000000  1.000000  1.000000  1.000000  1.000000  1.000000
                       1.000000  1.000000  1.000000  1.000000  1.000000  1.000000
                       1.000000  1.000000  1.000000  1.000000  1.000000  1.000000
                       0.000000  0.000000  0.000000  0.000000  0.000000  0.000000
                       0.000000
                       1.000000  1.000000  1.000000  1.000000  1.000000  1.000000
                       1.000000  1.000000  1.000000  1.000000  1.000000  1.000000
                       1.000000  0.000000  0.000000  0.000000  0.000000  0.000000
                       0.000000  0.000000  0.000000  0.000000  0.000000  0.000000
                       0.000000
                       1.000000  1.000000  1.000000  1.000000  1.000000  1.000000
                       1.000000  1.000000  1.000000  1.000000  1.000000  1.000000
                       1.000000  1.000000  0.000000  0.000000  0.000000  0.000000
                       0.000000  0.000000  0.000000  0.000000  0.000000  0.000000
                       0.000000
                       1.000000  1.000000  1.000000  1.000000  1.000000  1.000000
                       1.000000  1.000000  1.000000  1.000000  1.000000  1.000000
                       1.000000  1.000000  0.000000  0.000000  0.000000  0.000000
                       0.000000  0.000000  0.000000  0.000000  0.000000  0.000000
                       0.000000
                       1.000000  1.000000  1.000000  1.000000  1.000000  1.000000
                       1.000000  1.000000  1.000000  1.000000  1.000000  1.000000
                       1.000000  1.000000  0.000000  0.000000  0.000000  0.000000
                       0.000000  0.000000  0.000000  0.000000  0.000000  0.000000
                       0.000000
           occopt           4
        pawecutdg      2.00000000E+01 Hartree
           prteig           0
           shiftk      5.00000000E-01  5.00000000E-01  5.00000000E-01
           spinat      0.0000000000E+00  0.0000000000E+00  2.8430620000E+00
                       0.0000000000E+00  0.0000000000E+00  2.8430620000E+00
           strten      7.3411421933E-03  7.3411421933E-03  7.3411421933E-03
                       0.0000000000E+00  0.0000000000E+00  0.0000000000E+00
           symrel      1  0  0   0  1  0   0  0  1       1  0  0   0  1  0   0  0  1
                      -1  0  0   0 -1  0   0  0 -1      -1  0  0   0 -1  0   0  0 -1
                      -1  0  0   0  1  0   0  0 -1      -1  0  0   0  1  0   0  0 -1
                       1  0  0   0 -1  0   0  0  1       1  0  0   0 -1  0   0  0  1
                      -1  0  0   0 -1  0   0  0  1      -1  0  0   0 -1  0   0  0  1
                       1  0  0   0  1  0   0  0 -1       1  0  0   0  1  0   0  0 -1
                       1  0  0   0 -1  0   0  0 -1       1  0  0   0 -1  0   0  0 -1
                      -1  0  0   0  1  0   0  0  1      -1  0  0   0  1  0   0  0  1
                       0  1  0   1  0  0   0  0  1       0  1  0   1  0  0   0  0  1
                       0 -1  0  -1  0  0   0  0 -1       0 -1  0  -1  0  0   0  0 -1
                       0 -1  0   1  0  0   0  0 -1       0 -1  0   1  0  0   0  0 -1
                       0  1  0  -1  0  0   0  0  1       0  1  0  -1  0  0   0  0  1
                       0 -1  0  -1  0  0   0  0  1       0 -1  0  -1  0  0   0  0  1
                       0  1  0   1  0  0   0  0 -1       0  1  0   1  0  0   0  0 -1
                       0  1  0  -1  0  0   0  0 -1       0  1  0  -1  0  0   0  0 -1
                       0 -1  0   1  0  0   0  0  1       0 -1  0   1  0  0   0  0  1
                       0  0  1   1  0  0   0  1  0       0  0  1   1  0  0   0  1  0
                       0  0 -1  -1  0  0   0 -1  0       0  0 -1  -1  0  0   0 -1  0
                       0  0 -1   1  0  0   0 -1  0       0  0 -1   1  0  0   0 -1  0
                       0  0  1  -1  0  0   0  1  0       0  0  1  -1  0  0   0  1  0
                       0  0 -1  -1  0  0   0  1  0       0  0 -1  -1  0  0   0  1  0
                       0  0  1   1  0  0   0 -1  0       0  0  1   1  0  0   0 -1  0
                       0  0  1  -1  0  0   0 -1  0       0  0  1  -1  0  0   0 -1  0
                       0  0 -1   1  0  0   0  1  0       0  0 -1   1  0  0   0  1  0
                       1  0  0   0  0  1   0  1  0       1  0  0   0  0  1   0  1  0
                      -1  0  0   0  0 -1   0 -1  0      -1  0  0   0  0 -1   0 -1  0
                      -1  0  0   0  0  1   0 -1  0      -1  0  0   0  0  1   0 -1  0
                       1  0  0   0  0 -1   0  1  0       1  0  0   0  0 -1   0  1  0
                      -1  0  0   0  0 -1   0  1  0      -1  0  0   0  0 -1   0  1  0
                       1  0  0   0  0  1   0 -1  0       1  0  0   0  0  1   0 -1  0
                       1  0  0   0  0 -1   0 -1  0       1  0  0   0  0 -1   0 -1  0
                      -1  0  0   0  0  1   0  1  0      -1  0  0   0  0  1   0  1  0
                       0  1  0   0  0  1   1  0  0       0  1  0   0  0  1   1  0  0
                       0 -1  0   0  0 -1  -1  0  0       0 -1  0   0  0 -1  -1  0  0
                       0 -1  0   0  0  1  -1  0  0       0 -1  0   0  0  1  -1  0  0
                       0  1  0   0  0 -1   1  0  0       0  1  0   0  0 -1   1  0  0
                       0 -1  0   0  0 -1   1  0  0       0 -1  0   0  0 -1   1  0  0
                       0  1  0   0  0  1  -1  0  0       0  1  0   0  0  1  -1  0  0
                       0  1  0   0  0 -1  -1  0  0       0  1  0   0  0 -1  -1  0  0
                       0 -1  0   0  0  1   1  0  0       0 -1  0   0  0  1   1  0  0
                       0  0  1   0  1  0   1  0  0       0  0  1   0  1  0   1  0  0
                       0  0 -1   0 -1  0  -1  0  0       0  0 -1   0 -1  0  -1  0  0
                       0  0 -1   0  1  0  -1  0  0       0  0 -1   0  1  0  -1  0  0
                       0  0  1   0 -1  0   1  0  0       0  0  1   0 -1  0   1  0  0
                       0  0 -1   0 -1  0   1  0  0       0  0 -1   0 -1  0   1  0  0
                       0  0  1   0  1  0  -1  0  0       0  0  1   0  1  0  -1  0  0
                       0  0  1   0 -1  0  -1  0  0       0  0  1   0 -1  0  -1  0  0
                       0  0 -1   0  1  0   1  0  0       0  0 -1   0  1  0   1  0  0
            tnons      0.0000000  0.0000000  0.0000000     0.5000000  0.5000000  0.5000000
                       0.0000000  0.0000000  0.0000000     0.5000000  0.5000000  0.5000000
                       0.0000000  0.0000000  0.0000000     0.5000000  0.5000000  0.5000000
                       0.0000000  0.0000000  0.0000000     0.5000000  0.5000000  0.5000000
                       0.0000000  0.0000000  0.0000000     0.5000000  0.5000000  0.5000000
                       0.0000000  0.0000000  0.0000000     0.5000000  0.5000000  0.5000000
                       0.0000000  0.0000000  0.0000000     0.5000000  0.5000000  0.5000000
                       0.0000000  0.0000000  0.0000000     0.5000000  0.5000000  0.5000000
                       0.0000000  0.0000000  0.0000000     0.5000000  0.5000000  0.5000000
                       0.0000000  0.0000000  0.0000000     0.5000000  0.5000000  0.5000000
                       0.0000000  0.0000000  0.0000000     0.5000000  0.5000000  0.5000000
                       0.0000000  0.0000000  0.0000000     0.5000000  0.5000000  0.5000000
                       0.0000000  0.0000000  0.0000000     0.5000000  0.5000000  0.5000000
                       0.0000000  0.0000000  0.0000000     0.5000000  0.5000000  0.5000000
                       0.0000000  0.0000000  0.0000000     0.5000000  0.5000000  0.5000000
                       0.0000000  0.0000000  0.0000000     0.5000000  0.5000000  0.5000000
                       0.0000000  0.0000000  0.0000000     0.5000000  0.5000000  0.5000000
                       0.0000000  0.0000000  0.0000000     0.5000000  0.5000000  0.5000000
                       0.0000000  0.0000000  0.0000000     0.5000000  0.5000000  0.5000000
                       0.0000000  0.0000000  0.0000000     0.5000000  0.5000000  0.5000000
                       0.0000000  0.0000000  0.0000000     0.5000000  0.5000000  0.5000000
                       0.0000000  0.0000000  0.0000000     0.5000000  0.5000000  0.5000000
                       0.0000000  0.0000000  0.0000000     0.5000000  0.5000000  0.5000000
                       0.0000000  0.0000000  0.0000000     0.5000000  0.5000000  0.5000000
                       0.0000000  0.0000000  0.0000000     0.5000000  0.5000000  0.5000000
                       0.0000000  0.0000000  0.0000000     0.5000000  0.5000000  0.5000000
                       0.0000000  0.0000000  0.0000000     0.5000000  0.5000000  0.5000000
                       0.0000000  0.0000000  0.0000000     0.5000000  0.5000000  0.5000000
                       0.0000000  0.0000000  0.0000000     0.5000000  0.5000000  0.5000000
                       0.0000000  0.0000000  0.0000000     0.5000000  0.5000000  0.5000000
                       0.0000000  0.0000000  0.0000000     0.5000000  0.5000000  0.5000000
                       0.0000000  0.0000000  0.0000000     0.5000000  0.5000000  0.5000000
                       0.0000000  0.0000000  0.0000000     0.5000000  0.5000000  0.5000000
                       0.0000000  0.0000000  0.0000000     0.5000000  0.5000000  0.5000000
                       0.0000000  0.0000000  0.0000000     0.5000000  0.5000000  0.5000000
                       0.0000000  0.0000000  0.0000000     0.5000000  0.5000000  0.5000000
                       0.0000000  0.0000000  0.0000000     0.5000000  0.5000000  0.5000000
                       0.0000000  0.0000000  0.0000000     0.5000000  0.5000000  0.5000000
                       0.0000000  0.0000000  0.0000000     0.5000000  0.5000000  0.5000000
                       0.0000000  0.0000000  0.0000000     0.5000000  0.5000000  0.5000000
                       0.0000000  0.0000000  0.0000000     0.5000000  0.5000000  0.5000000
                       0.0000000  0.0000000  0.0000000     0.5000000  0.5000000  0.5000000
                       0.0000000  0.0000000  0.0000000     0.5000000  0.5000000  0.5000000
                       0.0000000  0.0000000  0.0000000     0.5000000  0.5000000  0.5000000
                       0.0000000  0.0000000  0.0000000     0.5000000  0.5000000  0.5000000
                       0.0000000  0.0000000  0.0000000     0.5000000  0.5000000  0.5000000
                       0.0000000  0.0000000  0.0000000     0.5000000  0.5000000  0.5000000
                       0.0000000  0.0000000  0.0000000     0.5000000  0.5000000  0.5000000
           tolvrs      1.00000000E-11
           tsmear      1.83746627E-03 Hartree
            typat      1  1
          usepawu           1
           useylm           1
              wtk        0.29630    0.44444    0.22222    0.03704
           xangst      0.0000000000E+00  0.0000000000E+00  0.0000000000E+00
                       1.4340702353E+00  1.4340702353E+00  1.4340702353E+00
            xcart      0.0000000000E+00  0.0000000000E+00  0.0000000000E+00
                       2.7100000000E+00  2.7100000000E+00  2.7100000000E+00
             xred      0.0000000000E+00  0.0000000000E+00  0.0000000000E+00
                       5.0000000000E-01  5.0000000000E-01  5.0000000000E-01
            znucl       26.00000

================================================================================


- Timing analysis has been suppressed with timopt=0



================================================================================

 Suggested references for the acknowledgment of ABINIT usage.

 The users of ABINIT have little formal obligations with respect to the ABINIT group
 (those specified in the GNU General Public License, http://www.gnu.org/copyleft/gpl.txt).
 However, it is common practice in the scientific literature,
 to acknowledge the efforts of people that have made the research possible.
 In this spirit, please find below suggested citations of work written by ABINIT developers,
 corresponding to implementations inside of ABINIT that you have used in the present run.
 Note also that it will be of great value to readers of publications presenting these results,
 to read papers enabling them to understand the theoretical formalism and details
 of the ABINIT implementation.
 For information on why they are suggested, see also http://www.abinit.org/about/?text=acknowledgments.

 [1] Gamma and beta cerium: LDA+U calculations of ground-state parameters.
 B. Amadon, F. Jollet and M. Torrent, Phys. Rev. B 77, 155104 (2008).
 Comment : LDA+U calculations, usepawu/=0. Strong suggestion to cite this paper.

 [2] Implementation of the Projector Augmented-Wave Method in the ABINIT code.
 M. Torrent, F. Jollet, F. Bottin, G. Zerah, and X. Gonze Comput. Mat. Science 42, 337, (2008).
 Comment : PAW calculations. Strong suggestion to cite this paper.

 [3] ABINIT : First-principles approach of materials and nanosystem properties.
 X. Gonze, B. Amadon, P.-M. Anglade, J.-M. Beuken, F. Bottin, P. Boulanger, F. Bruneval,
 D. Caliste, R. Caracas, M. Cote, T. Deutsch, L. Genovese, Ph. Ghosez, M. Giantomassi
 S. Goedecker, D.R. Hamann, P. Hermet, F. Jollet, G. Jomard, S. Leroux, M. Mancini, S. Mazevet,
 M.J.T. Oliveira, G. Onida, Y. Pouillon, T. Rangel, G.-M. Rignanese, D. Sangalli, R. Shaltaf,
 M. Torrent, M.J. Verstraete, G. Zerah, J.W. Zwanziger
 Computer Phys. Comm. 180, 2582-2615 (2009).
 Comment : the third generic paper describing the ABINIT project.
 Note that a version of this paper, that is not formatted for Computer Phys. Comm. 
 is available at http://www.abinit.org/about/ABINIT_CPC_v10.pdf .
 The licence allows the authors to put it on the Web.

 [4] A brief introduction to the ABINIT software package.
 X. Gonze, G.-M. Rignanese, M. Verstraete, J.-M. Beuken, Y. Pouillon, R. Caracas, F. Jollet,
 M. Torrent, G. Zerah, M. Mikami, Ph. Ghosez, M. Veithen, J.-Y. Raty, V. Olevano, F. Bruneval,
 L. Reining, R. Godby, G. Onida, D.R. Hamann, and D.C. Allan.
 Z. Kristallogr. 220, 558-562 (2005).
 Comment : the second generic paper describing the ABINIT project. Note that this paper
 should be cited especially if you are using the GW part of ABINIT, as several authors
 of this part are not in the list of authors of the first or third paper.
 The .pdf of the latter paper is available at http://www.abinit.org/about/zfk_0505-06_558-562.pdf.
 Note that it should not redistributed (Copyright by Oldenburg Wissenshaftverlag,
 the licence allows the authors to put it on the Web).


 And optionally :

 [5] First-principles computation of material properties : the ABINIT software project. 
 X. Gonze, J.-M. Beuken, R. Caracas, F. Detraux, M. Fuchs, G.-M. Rignanese, L. Sindic,
 M. Verstraete, G. Zerah, F. Jollet, M. Torrent, A. Roy, M. Mikami, Ph. Ghosez, J.-Y. Raty, D.C. Allan.
 Computational Materials Science 25, 478-492 (2002). http://dx.doi.org/10.1016/S0927-0256(02)00325-7
 Comment : the original paper describing the ABINIT project.
-
- Proc.   0 individual time (sec): cpu=          5.1  wall=          5.1

================================================================================

 Calculation completed.
.Delivered    1 WARNINGs and   1 COMMENTs to log file.
+Overall time at end (sec) : cpu=          5.1  wall=          5.1
