
.Version 7.9.3 of ABINIT 
.(MPI version, prepared for a x86_64_linux_gnu4.7 computer) 

.Copyright (C) 1998-2014 ABINIT group . 
 ABINIT comes with ABSOLUTELY NO WARRANTY.
 It is free software, and you are welcome to redistribute it
 under certain conditions (GNU General Public License,
 see ~abinit/COPYING or http://www.gnu.org/copyleft/gpl.txt).

 ABINIT is a project of the Universite Catholique de Louvain,
 Corning Inc. and other collaborators, see ~abinit/doc/developers/contributors.txt .
 Please read ~abinit/doc/users/acknowledgments.html for suggested
 acknowledgments of the ABINIT effort.
 For more information, see http://www.abinit.org .

.Starting date : Sat 30 Aug 2014.
- ( at 22h37 )
  
- input  file    -> t41.in
- output file    -> t41.out
- root for input  files -> t41i
- root for output files -> t41o


 DATASET    1 : space group P4/m m m (#123); Bravais tP (primitive tetrag.)
================================================================================
 Values of the parameters that define the memory need for DATASET  1.
   intxc =         0  ionmov =         3    iscf =         5 xclevel =         1
  lmnmax =         3   lnmax =         3   mband =         5  mffmem =         1
P  mgfft =        24   mkmem =         1 mpssoang=         3     mpw =       180
  mqgrid =      3001   natom =         2    nfft =      6144    nkpt =         1
  nloalg =         4  nspden =         1 nspinor =         1  nsppol =         1
    nsym =        16  n1xccc =         0  ntypat =         1  occopt =         4
================================================================================
P This job should need less than                       2.663 Mbytes of memory.
  Rough estimation (10% accuracy) of disk space for files :
_ WF disk file :      0.016 Mbytes ; DEN or POT disk file :      0.049 Mbytes.
================================================================================


 DATASET    2 : space group P4/m m m (#123); Bravais tP (primitive tetrag.)
================================================================================
 Values of the parameters that define the memory need for DATASET  2.
   intxc =         0  ionmov =         3    iscf =         5 xclevel =         1
  lmnmax =         3   lnmax =         3   mband =         5  mffmem =         1
P  mgfft =        24   mkmem =         1 mpssoang=         3     mpw =       180
  mqgrid =      3001   natom =         2    nfft =      6144    nkpt =         1
  nloalg =         4  nspden =         1 nspinor =         1  nsppol =         1
    nsym =        16  n1xccc =         0  ntypat =         1  occopt =         4
================================================================================
P This job should need less than                       2.663 Mbytes of memory.
  Rough estimation (10% accuracy) of disk space for files :
_ WF disk file :      0.016 Mbytes ; DEN or POT disk file :      0.049 Mbytes.
================================================================================

--------------------------------------------------------------------------------
------------- Echo of variables that govern the present computation ------------
--------------------------------------------------------------------------------
-
- outvars: echo of selected default values                                      
-   accesswff0 =  0 , fftalg0 =112 , wfoptalg0 =  0
-
- outvars: echo of global parameters not present in the input file              
-  max_nthreads =    0
-
 -outvars: echo values of preprocessed input variables --------
            acell      1.1000000000E+01  1.1000000000E+01  1.6000000000E+01 Bohr
              amu      2.69815390E+01
           diemac      1.00000000E+00
           diemix      3.33333333E-01
             ecut      2.50000000E+00 Hartree
-          fftalg         112
           ionmov           3
             iscf           5
           istwfk        2
           jdtset        1    2
           kptopt           0
P           mkmem           1
            natom           2
            nband           5
           ndtset           2
            ngfft          16      16      24
             nkpt           1
            nstep          40
             nsym          16
            ntime          15
           ntypat           1
              occ      2.000000  2.000000  2.000000  0.000000  0.000000
           occopt           4
        optforces           1
          spgroup         123
           symrel      1  0  0   0  1  0   0  0  1      -1  0  0   0 -1  0   0  0 -1
                      -1  0  0   0  1  0   0  0 -1       1  0  0   0 -1  0   0  0  1
                      -1  0  0   0 -1  0   0  0  1       1  0  0   0  1  0   0  0 -1
                       1  0  0   0 -1  0   0  0 -1      -1  0  0   0  1  0   0  0  1
                       0  1  0   1  0  0   0  0  1       0 -1  0  -1  0  0   0  0 -1
                       0 -1  0   1  0  0   0  0 -1       0  1  0  -1  0  0   0  0  1
                       0 -1  0  -1  0  0   0  0  1       0  1  0   1  0  0   0  0 -1
                       0  1  0  -1  0  0   0  0 -1       0 -1  0   1  0  0   0  0  1
           toldff1     5.00000000E-06
           toldff2     0.00000000E+00
           tolrff1     0.00000000E+00
           tolrff2     2.00000000E-02
           tsmear      8.00000000E-02 Hartree
            typat      1  1
           xangst      0.0000000000E+00  0.0000000000E+00 -1.5240303607E+00
                       0.0000000000E+00  0.0000000000E+00  1.5240303607E+00
            xcart      0.0000000000E+00  0.0000000000E+00 -2.8800000000E+00
                       0.0000000000E+00  0.0000000000E+00  2.8800000000E+00
             xred      0.0000000000E+00  0.0000000000E+00 -1.8000000000E-01
                       0.0000000000E+00  0.0000000000E+00  1.8000000000E-01
            znucl       13.00000

================================================================================

 chkinp: Checking input parameters for consistency, jdtset=   1.

 chkinp: Checking input parameters for consistency, jdtset=   2.

================================================================================
== DATASET  1 ==================================================================
-   nproc =    1

 Exchange-correlation functional for the present dataset will be:
  LDA: new Teter (4/93) with spin-polarized option - ixc=1
 Citation for XC functional:
  S. Goedecker, M. Teter, J. Huetter, PRB 54, 1703 (1996)

 Real(R)+Recip(G) space primitive vectors, cartesian coordinates (Bohr,Bohr^-1):
 R(1)= 11.0000000  0.0000000  0.0000000  G(1)=  0.0909091  0.0000000  0.0000000
 R(2)=  0.0000000 11.0000000  0.0000000  G(2)=  0.0000000  0.0909091  0.0000000
 R(3)=  0.0000000  0.0000000 16.0000000  G(3)=  0.0000000  0.0000000  0.0625000
 Unit cell volume ucvol=  1.9360000E+03 bohr^3
 Angles (23,13,12)=  9.00000000E+01  9.00000000E+01  9.00000000E+01 degrees

 getcut: wavevector=  0.0000  0.0000  0.0000  ngfft=  16  16  24
         ecut(hartree)=      2.500   => boxcut(ratio)=   2.04358

--- Pseudopotential description ------------------------------------------------
- pspini: atom type   1  psp file is /home/gonze/ABINIT/ABINITv7.9.3/trunk/7.9.3-private/tests/Psps_for_tests/13al.981214.fhi
- pspatm: opening atomic psp file    /home/gonze/ABINIT/ABINITv7.9.3/trunk/7.9.3-private/tests/Psps_for_tests/13al.981214.fhi
- Aluminum, fhi98PP : Hamann-type, LDA CA PerdewWang, l=2 local
- 13.00000   3.00000    981214                znucl, zion, pspdat
    6    7    2    2       493   0.00000      pspcod,pspxc,lmax,lloc,mmax,r2well
  No XC core correction.
  1.024700          amesh (Hamman grid)
 pspatm: epsatm=    1.36305739
         --- l  ekb(1:nproj) -->
             0    1.768744
             1    0.900554
 pspatm: atomic psp has been read  and splines computed

   1.63566886E+01                                ecore*ucvol(ha*bohr**3)
--------------------------------------------------------------------------------

P newkpt: treating      5 bands with npw=     180 for ikpt=   1 by node    0

_setup2: Arith. and geom. avg. npw (full set) are     359.000     359.000

================================================================================

=== [ionmov= 3] Broyden-Fletcher-Goldfard-Shanno method (forces,Tot energy) 
================================================================================

--- Iteration: ( 1/15) Internal Cycle: (1/1)
--------------------------------------------------------------------------------

---SELF-CONSISTENT-FIELD CONVERGENCE--------------------------------------------

     iter   Etot(hartree)      deltaE(h)  residm     vres2    diffor    maxfor
 ETOT  1  -3.9613615599902    -3.961E+00 4.625E-04 8.369E-01 5.067E-03 5.067E-03
 ETOT  2  -3.9628100698994    -1.449E-03 7.306E-09 3.761E-01 1.123E-03 6.190E-03
 ETOT  3  -3.9631346148867    -3.245E-04 8.756E-07 1.146E-01 3.344E-05 6.223E-03
 ETOT  4  -3.9631541782045    -1.956E-05 7.862E-08 7.967E-02 1.941E-05 6.204E-03
 ETOT  5  -3.9631916012844    -3.742E-05 3.487E-07 2.746E-02 1.985E-04 6.005E-03
 ETOT  6  -3.9631953799841    -3.779E-06 8.088E-08 1.328E-02 7.883E-05 5.927E-03
 ETOT  7  -3.9631988479178    -3.468E-06 1.476E-08 5.721E-03 3.023E-05 5.896E-03
 ETOT  8  -3.9632007982997    -1.950E-06 2.966E-09 1.733E-05 7.526E-05 5.821E-03
 ETOT  9  -3.9632008014259    -3.126E-09 1.113E-10 1.057E-05 3.775E-06 5.825E-03
 ETOT 10  -3.9632008028595    -1.434E-09 6.079E-12 1.279E-05 3.910E-07 5.824E-03

 At SCF step   10, forces are converged : 
  for the second time, max diff in force=  3.910E-07 < toldff=  5.000E-06

 Cartesian components of stress tensor (hartree/bohr^3)
  sigma(1 1)=  6.02186741E-05  sigma(3 2)=  0.00000000E+00
  sigma(2 2)=  6.02186741E-05  sigma(3 1)=  0.00000000E+00
  sigma(3 3)=  7.35834760E-05  sigma(2 1)=  0.00000000E+00


---OUTPUT-----------------------------------------------------------------------

 Cartesian coordinates (xcart) [bohr]
  0.00000000000000E+00  0.00000000000000E+00 -2.88000000000000E+00
  0.00000000000000E+00  0.00000000000000E+00  2.88000000000000E+00
 Reduced coordinates (xred)
  0.00000000000000E+00  0.00000000000000E+00 -1.80000000000000E-01
  0.00000000000000E+00  0.00000000000000E+00  1.80000000000000E-01
 Cartesian forces (fcart) [Ha/bohr]; max,rms= 5.82449E-03 3.36277E-03 (free atoms)
 -0.00000000000000E+00 -0.00000000000000E+00  5.82449450162087E-03
 -0.00000000000000E+00 -0.00000000000000E+00 -5.82449450162087E-03
 Reduced forces (fred)
  0.00000000000000E+00  0.00000000000000E+00 -9.31919120259340E-02
  0.00000000000000E+00  0.00000000000000E+00  9.31919120259340E-02
 Total energy (etotal) [Ha]= -3.96320080285955E+00

--- Iteration: ( 2/15) Internal Cycle: (1/1)
--------------------------------------------------------------------------------

---SELF-CONSISTENT-FIELD CONVERGENCE--------------------------------------------

     iter   Etot(hartree)      deltaE(h)  residm     vres2    diffor    maxfor
 ETOT  1  -3.9632680753317    -3.963E+00 1.002E-12 8.824E-05 7.962E-05 5.745E-03
 ETOT  2  -3.9632682091456    -1.338E-07 4.831E-15 1.064E-05 3.592E-06 5.741E-03
 ETOT  3  -3.9632682149633    -5.818E-09 1.223E-12 3.698E-06 3.413E-06 5.745E-03

 At SCF step    3, forces are converged : 
  for the second time, max diff in force=  3.413E-06 < toldff=  5.000E-06

 Cartesian components of stress tensor (hartree/bohr^3)
  sigma(1 1)=  6.00952888E-05  sigma(3 2)=  0.00000000E+00
  sigma(2 2)=  6.00952888E-05  sigma(3 1)=  0.00000000E+00
  sigma(3 3)=  7.31148152E-05  sigma(2 1)=  0.00000000E+00


---OUTPUT-----------------------------------------------------------------------

 Cartesian coordinates (xcart) [bohr]
  0.00000000000000E+00  0.00000000000000E+00 -2.87417550549838E+00
  0.00000000000000E+00  0.00000000000000E+00  2.87417550549838E+00
 Reduced coordinates (xred)
  0.00000000000000E+00  0.00000000000000E+00 -1.79635969093649E-01
  0.00000000000000E+00  0.00000000000000E+00  1.79635969093649E-01
 Cartesian forces (fcart) [Ha/bohr]; max,rms= 5.74469E-03 3.31670E-03 (free atoms)
 -0.00000000000000E+00 -0.00000000000000E+00  5.74469211461918E-03
 -0.00000000000000E+00 -0.00000000000000E+00 -5.74469211461918E-03
 Reduced forces (fred)
  0.00000000000000E+00  0.00000000000000E+00 -9.19150738339069E-02
  0.00000000000000E+00  0.00000000000000E+00  9.19150738339069E-02
 Total energy (etotal) [Ha]= -3.96326821496333E+00

 Difference of energy with previous step (new-old):
           Absolute (Ha)=-6.74121E-05
           Relative     =-1.70094E-05

--- Iteration: ( 3/15) Internal Cycle: (1/1)
--------------------------------------------------------------------------------

---SELF-CONSISTENT-FIELD CONVERGENCE--------------------------------------------

     iter   Etot(hartree)      deltaE(h)  residm     vres2    diffor    maxfor
 ETOT  1  -3.9640414616407    -3.964E+00 1.416E-10 1.419E-02 1.191E-03 4.554E-03
 ETOT  2  -3.9640639708000    -2.251E-05 8.049E-13 1.689E-03 6.318E-05 4.491E-03
 ETOT  3  -3.9640648484737    -8.777E-07 1.420E-10 5.929E-04 4.690E-05 4.538E-03
 ETOT  4  -3.9640651405749    -2.921E-07 8.503E-10 6.868E-05 5.667E-05 4.594E-03
 ETOT  5  -3.9640651596606    -1.909E-08 1.681E-11 1.354E-05 2.340E-05 4.618E-03
 ETOT  6  -3.9640651633117    -3.651E-09 1.469E-12 9.702E-08 1.700E-05 4.635E-03
 ETOT  7  -3.9640651633290    -1.724E-11 1.796E-14 4.425E-08 1.375E-06 4.636E-03
 ETOT  8  -3.9640651633796    -5.060E-11 1.726E-12 1.069E-08 2.796E-07 4.636E-03

 At SCF step    8, forces are converged : 
  for the second time, max diff in force=  2.796E-07 < toldff=  5.000E-06

 Cartesian components of stress tensor (hartree/bohr^3)
  sigma(1 1)=  5.89137119E-05  sigma(3 2)=  0.00000000E+00
  sigma(2 2)=  5.89137119E-05  sigma(3 1)=  0.00000000E+00
  sigma(3 3)=  6.66054038E-05  sigma(2 1)=  0.00000000E+00


---OUTPUT-----------------------------------------------------------------------

 Cartesian coordinates (xcart) [bohr]
  0.00000000000000E+00  0.00000000000000E+00 -2.79795484323573E+00
  0.00000000000000E+00  0.00000000000000E+00  2.79795484323573E+00
 Reduced coordinates (xred)
  0.00000000000000E+00  0.00000000000000E+00 -1.74872177702233E-01
  0.00000000000000E+00  0.00000000000000E+00  1.74872177702233E-01
 Cartesian forces (fcart) [Ha/bohr]; max,rms= 4.63573E-03 2.67644E-03 (free atoms)
 -0.00000000000000E+00 -0.00000000000000E+00  4.63573390368890E-03
 -0.00000000000000E+00 -0.00000000000000E+00 -4.63573390368890E-03
 Reduced forces (fred)
  0.00000000000000E+00  0.00000000000000E+00 -7.41717424590224E-02
  0.00000000000000E+00  0.00000000000000E+00  7.41717424590224E-02
 Total energy (etotal) [Ha]= -3.96406516337957E+00

 Difference of energy with previous step (new-old):
           Absolute (Ha)=-7.96948E-04
           Relative     =-2.01063E-04

--- Iteration: ( 4/15) Internal Cycle: (1/1)
--------------------------------------------------------------------------------

---SELF-CONSISTENT-FIELD CONVERGENCE--------------------------------------------

     iter   Etot(hartree)      deltaE(h)  residm     vres2    diffor    maxfor
 ETOT  1  -3.9648118595248    -3.965E+00 1.591E-08 9.121E-02 4.597E-03 3.880E-05
 ETOT  2  -3.9649566884623    -1.448E-04 1.528E-11 1.499E-02 5.996E-04 5.608E-04
 ETOT  3  -3.9649807717049    -2.408E-05 3.865E-07 7.924E-03 1.684E-04 3.923E-04
 ETOT  4  -3.9649845689004    -3.797E-06 1.139E-08 1.368E-03 2.211E-04 1.713E-04
 ETOT  5  -3.9649848457811    -2.769E-07 7.939E-11 4.317E-04 5.643E-05 1.149E-04
 ETOT  6  -3.9649849519261    -1.061E-07 3.747E-11 5.536E-05 6.811E-05 4.674E-05
 ETOT  7  -3.9649849643258    -1.240E-08 1.865E-11 2.559E-07 3.454E-05 1.221E-05
 ETOT  8  -3.9649849644334    -1.077E-10 9.874E-13 1.343E-07 2.525E-06 9.681E-06
 ETOT  9  -3.9649849644444    -1.091E-11 2.564E-13 1.315E-08 4.756E-07 1.016E-05

 At SCF step    9, forces are converged : 
  for the second time, max diff in force=  4.756E-07 < toldff=  5.000E-06

 Cartesian components of stress tensor (hartree/bohr^3)
  sigma(1 1)=  5.58099197E-05  sigma(3 2)=  0.00000000E+00
  sigma(2 2)=  5.58099197E-05  sigma(3 1)=  0.00000000E+00
  sigma(3 3)=  4.64175020E-05  sigma(2 1)=  0.00000000E+00


---OUTPUT-----------------------------------------------------------------------

 Cartesian coordinates (xcart) [bohr]
  0.00000000000000E+00  0.00000000000000E+00 -2.62150860944128E+00
  0.00000000000000E+00  0.00000000000000E+00  2.62150860944128E+00
 Reduced coordinates (xred)
  0.00000000000000E+00  0.00000000000000E+00 -1.63844288090080E-01
  0.00000000000000E+00  0.00000000000000E+00  1.63844288090080E-01
 Cartesian forces (fcart) [Ha/bohr]; max,rms= 1.01569E-05 5.86409E-06 (free atoms)
 -0.00000000000000E+00 -0.00000000000000E+00 -1.01568937088714E-05
 -0.00000000000000E+00 -0.00000000000000E+00  1.01568937088714E-05
 Reduced forces (fred)
  0.00000000000000E+00  0.00000000000000E+00  1.62510299341943E-04
  0.00000000000000E+00  0.00000000000000E+00 -1.62510299341943E-04
 Total energy (etotal) [Ha]= -3.96498496444436E+00

 Difference of energy with previous step (new-old):
           Absolute (Ha)=-9.19801E-04
           Relative     =-2.32008E-04

 At Broyd/MD step   4, gradients are converged : 
  max grad (force/stress) = 1.0157E-05 < tolmxf= 5.0000E-05 ha/bohr (free atoms)

================================================================================

 ----iterations are completed or convergence reached----

 Mean square residual over all n,k,spin=   1.0278E-13; max=  2.5637E-13
   0.0000  0.0000  0.0000    1  2.56369E-13 kpt; spin; max resid(k); each band:
  2.52E-13 4.28E-15 2.56E-13 4.61E-16 4.61E-16
 reduced coordinates (array xred) for    2 atoms
       0.000000000000      0.000000000000     -0.163844288090
       0.000000000000      0.000000000000      0.163844288090
 rms dE/dt=  9.3825E-05; max dE/dt=  1.6251E-04; dE/dt below (all hartree)
    1       0.000000000000      0.000000000000      0.000162510299
    2       0.000000000000      0.000000000000     -0.000162510299

 cartesian coordinates (angstrom) at end:
    1      0.00000000000000     0.00000000000000    -1.38724260823879
    2      0.00000000000000     0.00000000000000     1.38724260823879

 cartesian forces (hartree/bohr) at end:
    1     -0.00000000000000    -0.00000000000000    -0.00001015689371
    2     -0.00000000000000    -0.00000000000000     0.00001015689371
 frms,max,avg= 5.8640853E-06 1.0156894E-05   0.000E+00  0.000E+00  0.000E+00 h/b

 cartesian forces (eV/Angstrom) at end:
    1     -0.00000000000000    -0.00000000000000    -0.00052228843013
    2     -0.00000000000000    -0.00000000000000     0.00052228843013
 frms,max,avg= 3.0154337E-04 5.2228843E-04   0.000E+00  0.000E+00  0.000E+00 e/A
 length scales= 11.000000000000 11.000000000000 16.000000000000 bohr
              =  5.820949294490  5.820949294490  8.466835337440 angstroms
 prteigrs : about to open file t41o_DS1_EIG
 Fermi (or HOMO) energy (hartree) =  -0.08875   Average Vxc (hartree)=  -0.13562
 Eigenvalues (hartree) for nkpt=   1  k points:
 kpt#   1, nband=  5, wtk=  1.00000, kpt=  0.0000  0.0000  0.0000 (reduced coord)
  -0.27659  -0.18575  -0.09293  -0.06862  -0.06862
      occupation numbers for kpt#   1
   2.01087   2.14176   0.93051   0.45843   0.45843
 Total charge density [el/Bohr^3]
,     Maximum=    3.9691E-02  at reduced coord.    0.0000    0.0000    0.0000
,Next maximum=    3.6895E-02  at reduced coord.    0.0000    0.0000    0.9583
,     Minimum=    3.3367E-05  at reduced coord.    0.5000    0.5000    0.0000
,Next minimum=    3.4391E-05  at reduced coord.    0.5000    0.4375    0.0000
,  Integrated=    6.0000E+00

--------------------------------------------------------------------------------
 Components of total free energy (in Hartree) :

    Kinetic energy  =  1.15632575042977E+00
    Hartree energy  =  1.06891691793604E+00
    XC energy       = -1.22328912629395E+00
    Ewald energy    = -2.13223416391173E+00
    PspCore energy  =  8.44870280673896E-03
    Loc. psp. energy= -3.89187615544888E+00
    NL   psp  energy=  1.08613802759521E+00
    >>>>> Internal E= -3.92757004688680E+00

    -kT*entropy     = -3.74149175575580E-02
    >>>>>>>>> Etotal= -3.96498496444436E+00

 Other information on the energy :
    Total energy(eV)= -1.07892727866624E+02 ; Band energy (Ha)=  -1.1034111783E+00
--------------------------------------------------------------------------------
 rms coord change=  9.3275E-03   atom, delta coord (reduced):
     1        0.000000000000      0.000000000000      0.016155711910
     2        0.000000000000      0.000000000000     -0.016155711910

 Cartesian components of stress tensor (hartree/bohr^3)
  sigma(1 1)=  5.58099197E-05  sigma(3 2)=  0.00000000E+00
  sigma(2 2)=  5.58099197E-05  sigma(3 1)=  0.00000000E+00
  sigma(3 3)=  4.64175020E-05  sigma(2 1)=  0.00000000E+00

-Cartesian components of stress tensor (GPa)         [Pressure= -1.5499E+00 GPa]
- sigma(1 1)=  1.64198425E+00  sigma(3 2)=  0.00000000E+00
- sigma(2 2)=  1.64198425E+00  sigma(3 1)=  0.00000000E+00
- sigma(3 3)=  1.36564983E+00  sigma(2 1)=  0.00000000E+00

================================================================================
== DATASET  2 ==================================================================
-   nproc =    1

 Exchange-correlation functional for the present dataset will be:
  LDA: new Teter (4/93) with spin-polarized option - ixc=1
 Citation for XC functional:
  S. Goedecker, M. Teter, J. Huetter, PRB 54, 1703 (1996)

 Real(R)+Recip(G) space primitive vectors, cartesian coordinates (Bohr,Bohr^-1):
 R(1)= 11.0000000  0.0000000  0.0000000  G(1)=  0.0909091  0.0000000  0.0000000
 R(2)=  0.0000000 11.0000000  0.0000000  G(2)=  0.0000000  0.0909091  0.0000000
 R(3)=  0.0000000  0.0000000 16.0000000  G(3)=  0.0000000  0.0000000  0.0625000
 Unit cell volume ucvol=  1.9360000E+03 bohr^3
 Angles (23,13,12)=  9.00000000E+01  9.00000000E+01  9.00000000E+01 degrees

 getcut: wavevector=  0.0000  0.0000  0.0000  ngfft=  16  16  24
         ecut(hartree)=      2.500   => boxcut(ratio)=   2.04358
--------------------------------------------------------------------------------

P newkpt: treating      5 bands with npw=     180 for ikpt=   1 by node    0

_setup2: Arith. and geom. avg. npw (full set) are     359.000     359.000

================================================================================

=== [ionmov= 3] Broyden-Fletcher-Goldfard-Shanno method (forces,Tot energy) 
================================================================================

--- Iteration: ( 1/15) Internal Cycle: (1/1)
--------------------------------------------------------------------------------

---SELF-CONSISTENT-FIELD CONVERGENCE--------------------------------------------

     iter   Etot(hartree)      deltaE(h)  residm     vres2    diffor    maxfor
 ETOT  1  -3.9613615599902    -3.961E+00 4.625E-04 8.369E-01 5.067E-03 5.067E-03
 ETOT  2  -3.9628100698994    -1.449E-03 7.306E-09 3.761E-01 1.123E-03 6.190E-03
 ETOT  3  -3.9631346148867    -3.245E-04 8.756E-07 1.146E-01 3.344E-05 6.223E-03
 ETOT  4  -3.9631541782045    -1.956E-05 7.862E-08 7.967E-02 1.941E-05 6.204E-03

 At SCF step    4, forces are sufficiently converged : 
  for the second time, max diff in force=  1.941E-05 is less than < tolrff=  2.000E-02 times max force

 Cartesian components of stress tensor (hartree/bohr^3)
  sigma(1 1)=  5.91602057E-05  sigma(3 2)=  0.00000000E+00
  sigma(2 2)=  5.91602057E-05  sigma(3 1)=  0.00000000E+00
  sigma(3 3)=  7.30317082E-05  sigma(2 1)=  0.00000000E+00


---OUTPUT-----------------------------------------------------------------------

 Cartesian coordinates (xcart) [bohr]
  0.00000000000000E+00  0.00000000000000E+00 -2.88000000000000E+00
  0.00000000000000E+00  0.00000000000000E+00  2.88000000000000E+00
 Reduced coordinates (xred)
  0.00000000000000E+00  0.00000000000000E+00 -1.80000000000000E-01
  0.00000000000000E+00  0.00000000000000E+00  1.80000000000000E-01
 Cartesian forces (fcart) [Ha/bohr]; max,rms= 6.20389E-03 3.58182E-03 (free atoms)
 -0.00000000000000E+00 -0.00000000000000E+00  6.20388586641162E-03
 -0.00000000000000E+00 -0.00000000000000E+00 -6.20388586641162E-03
 Reduced forces (fred)
  0.00000000000000E+00  0.00000000000000E+00 -9.92621738625860E-02
  0.00000000000000E+00  0.00000000000000E+00  9.92621738625860E-02
 Total energy (etotal) [Ha]= -3.96315417820451E+00

--- Iteration: ( 2/15) Internal Cycle: (1/1)
--------------------------------------------------------------------------------

---SELF-CONSISTENT-FIELD CONVERGENCE--------------------------------------------

     iter   Etot(hartree)      deltaE(h)  residm     vres2    diffor    maxfor
 ETOT  1  -3.9632155381008    -3.963E+00 2.590E-12 2.365E-02 6.828E-04 5.521E-03
 ETOT  2  -3.9632705613447    -5.502E-05 7.405E-13 8.824E-04 1.828E-04 5.704E-03
 ETOT  3  -3.9632725271895    -1.966E-06 3.624E-08 2.010E-04 4.179E-05 5.746E-03
 ETOT  4  -3.9632725542872    -2.710E-08 6.330E-12 9.832E-05 6.352E-07 5.746E-03

 At SCF step    4, forces are sufficiently converged : 
  for the second time, max diff in force=  6.352E-07 is less than < tolrff=  2.000E-02 times max force

 Cartesian components of stress tensor (hartree/bohr^3)
  sigma(1 1)=  6.01266931E-05  sigma(3 2)=  0.00000000E+00
  sigma(2 2)=  6.01266931E-05  sigma(3 1)=  0.00000000E+00
  sigma(3 3)=  7.31220785E-05  sigma(2 1)=  0.00000000E+00


---OUTPUT-----------------------------------------------------------------------

 Cartesian coordinates (xcart) [bohr]
  0.00000000000000E+00  0.00000000000000E+00 -2.87379611413359E+00
  0.00000000000000E+00  0.00000000000000E+00  2.87379611413359E+00
 Reduced coordinates (xred)
  0.00000000000000E+00  0.00000000000000E+00 -1.79612257133349E-01
  0.00000000000000E+00  0.00000000000000E+00  1.79612257133349E-01
 Cartesian forces (fcart) [Ha/bohr]; max,rms= 5.74631E-03 3.31763E-03 (free atoms)
 -0.00000000000000E+00 -0.00000000000000E+00  5.74630505101508E-03
 -0.00000000000000E+00 -0.00000000000000E+00 -5.74630505101508E-03
 Reduced forces (fred)
  0.00000000000000E+00  0.00000000000000E+00 -9.19408808162413E-02
  0.00000000000000E+00  0.00000000000000E+00  9.19408808162413E-02
 Total energy (etotal) [Ha]= -3.96327255428721E+00

 Difference of energy with previous step (new-old):
           Absolute (Ha)=-1.18376E-04
           Relative     =-2.98687E-05

--- Iteration: ( 3/15) Internal Cycle: (1/1)
--------------------------------------------------------------------------------

---SELF-CONSISTENT-FIELD CONVERGENCE--------------------------------------------

     iter   Etot(hartree)      deltaE(h)  residm     vres2    diffor    maxfor
 ETOT  1  -3.9633781230406    -3.963E+00 2.473E-12 2.293E-04 1.252E-04 5.621E-03
 ETOT  2  -3.9633784477749    -3.247E-07 9.030E-15 4.071E-05 5.044E-06 5.616E-03
 ETOT  3  -3.9633784666994    -1.892E-08 2.587E-10 2.318E-05 1.718E-06 5.614E-03

 At SCF step    3, forces are sufficiently converged : 
  for the second time, max diff in force=  1.718E-06 is less than < tolrff=  2.000E-02 times max force

 Cartesian components of stress tensor (hartree/bohr^3)
  sigma(1 1)=  5.99056428E-05  sigma(3 2)=  0.00000000E+00
  sigma(2 2)=  5.99056428E-05  sigma(3 1)=  0.00000000E+00
  sigma(3 3)=  7.22937387E-05  sigma(2 1)=  0.00000000E+00


---OUTPUT-----------------------------------------------------------------------

 Cartesian coordinates (xcart) [bohr]
  0.00000000000000E+00  0.00000000000000E+00 -2.86449028533397E+00
  0.00000000000000E+00  0.00000000000000E+00  2.86449028533397E+00
 Reduced coordinates (xred)
  0.00000000000000E+00  0.00000000000000E+00 -1.79030642833373E-01
  0.00000000000000E+00  0.00000000000000E+00  1.79030642833373E-01
 Cartesian forces (fcart) [Ha/bohr]; max,rms= 5.61431E-03 3.24143E-03 (free atoms)
 -0.00000000000000E+00 -0.00000000000000E+00  5.61431383101998E-03
 -0.00000000000000E+00 -0.00000000000000E+00 -5.61431383101998E-03
 Reduced forces (fred)
  0.00000000000000E+00  0.00000000000000E+00 -8.98290212963196E-02
  0.00000000000000E+00  0.00000000000000E+00  8.98290212963196E-02
 Total energy (etotal) [Ha]= -3.96337846669943E+00

 Difference of energy with previous step (new-old):
           Absolute (Ha)=-1.05912E-04
           Relative     =-2.67231E-05

--- Iteration: ( 4/15) Internal Cycle: (1/1)
--------------------------------------------------------------------------------

---SELF-CONSISTENT-FIELD CONVERGENCE--------------------------------------------

     iter   Etot(hartree)      deltaE(h)  residm     vres2    diffor    maxfor
 ETOT  1  -3.9639310258910    -3.964E+00 6.854E-11 7.398E-03 8.202E-04 4.794E-03
 ETOT  2  -3.9639423169243    -1.129E-05 3.034E-13 1.235E-03 3.718E-05 4.757E-03
 ETOT  3  -3.9639429244918    -6.076E-07 8.630E-09 7.284E-04 1.168E-05 4.745E-03

 At SCF step    3, forces are sufficiently converged : 
  for the second time, max diff in force=  1.168E-05 is less than < tolrff=  2.000E-02 times max force

 Cartesian components of stress tensor (hartree/bohr^3)
  sigma(1 1)=  5.87584627E-05  sigma(3 2)=  0.00000000E+00
  sigma(2 2)=  5.87584627E-05  sigma(3 1)=  0.00000000E+00
  sigma(3 3)=  6.74007082E-05  sigma(2 1)=  0.00000000E+00


---OUTPUT-----------------------------------------------------------------------

 Cartesian coordinates (xcart) [bohr]
  0.00000000000000E+00  0.00000000000000E+00 -2.81078099511120E+00
  0.00000000000000E+00  0.00000000000000E+00  2.81078099511120E+00
 Reduced coordinates (xred)
  0.00000000000000E+00  0.00000000000000E+00 -1.75673812194450E-01
  0.00000000000000E+00  0.00000000000000E+00  1.75673812194450E-01
 Cartesian forces (fcart) [Ha/bohr]; max,rms= 4.74520E-03 2.73964E-03 (free atoms)
 -0.00000000000000E+00 -0.00000000000000E+00  4.74520431990930E-03
 -0.00000000000000E+00 -0.00000000000000E+00 -4.74520431990930E-03
 Reduced forces (fred)
  0.00000000000000E+00  0.00000000000000E+00 -7.59232691185489E-02
  0.00000000000000E+00  0.00000000000000E+00  7.59232691185489E-02
 Total energy (etotal) [Ha]= -3.96394292449180E+00

 Difference of energy with previous step (new-old):
           Absolute (Ha)=-5.64458E-04
           Relative     =-1.42408E-04

--- Iteration: ( 5/15) Internal Cycle: (1/1)
--------------------------------------------------------------------------------

---SELF-CONSISTENT-FIELD CONVERGENCE--------------------------------------------

     iter   Etot(hartree)      deltaE(h)  residm     vres2    diffor    maxfor
 ETOT  1  -3.9646529865167    -3.965E+00 5.516E-10 2.739E-02 1.926E-03 2.819E-03
 ETOT  2  -3.9646991020388    -4.612E-05 1.020E-12 3.999E-03 1.251E-04 2.694E-03
 ETOT  3  -3.9647012298259    -2.128E-06 3.295E-08 2.395E-03 3.440E-05 2.660E-03
 ETOT  4  -3.9647020835697    -8.537E-07 1.562E-09 1.052E-03 6.785E-05 2.728E-03
 ETOT  5  -3.9647025051195    -4.215E-07 9.462E-10 1.109E-04 8.518E-05 2.813E-03
 ETOT  6  -3.9647025337188    -2.860E-08 1.031E-11 2.830E-05 2.690E-05 2.840E-03
 ETOT  7  -3.9647025413159    -7.597E-09 4.450E-12 1.488E-07 2.542E-05 2.865E-03

 At SCF step    7, forces are sufficiently converged : 
  for the second time, max diff in force=  2.542E-05 is less than < tolrff=  2.000E-02 times max force

 Cartesian components of stress tensor (hartree/bohr^3)
  sigma(1 1)=  5.74863190E-05  sigma(3 2)=  0.00000000E+00
  sigma(2 2)=  5.74863190E-05  sigma(3 1)=  0.00000000E+00
  sigma(3 3)=  5.80716099E-05  sigma(2 1)=  0.00000000E+00


---OUTPUT-----------------------------------------------------------------------

 Cartesian coordinates (xcart) [bohr]
  0.00000000000000E+00  0.00000000000000E+00 -2.71420788053633E+00
  0.00000000000000E+00  0.00000000000000E+00  2.71420788053633E+00
 Reduced coordinates (xred)
  0.00000000000000E+00  0.00000000000000E+00 -1.69637992533520E-01
  0.00000000000000E+00  0.00000000000000E+00  1.69637992533520E-01
 Cartesian forces (fcart) [Ha/bohr]; max,rms= 2.86511E-03 1.65417E-03 (free atoms)
 -0.00000000000000E+00 -0.00000000000000E+00  2.86511135588136E-03
 -0.00000000000000E+00 -0.00000000000000E+00 -2.86511135588136E-03
 Reduced forces (fred)
  0.00000000000000E+00  0.00000000000000E+00 -4.58417816941017E-02
  0.00000000000000E+00  0.00000000000000E+00  4.58417816941017E-02
 Total energy (etotal) [Ha]= -3.96470254131593E+00

 Difference of energy with previous step (new-old):
           Absolute (Ha)=-7.59617E-04
           Relative     =-1.91613E-04

--- Iteration: ( 6/15) Internal Cycle: (1/1)
--------------------------------------------------------------------------------

---SELF-CONSISTENT-FIELD CONVERGENCE--------------------------------------------

     iter   Etot(hartree)      deltaE(h)  residm     vres2    diffor    maxfor
 ETOT  1  -3.9649319818798    -3.965E+00 2.454E-10 2.282E-02 2.306E-03 5.591E-04
 ETOT  2  -3.9649749457698    -4.296E-05 2.584E-12 2.030E-03 2.787E-04 2.804E-04
 ETOT  3  -3.9649770503995    -2.105E-06 3.491E-08 1.510E-03 5.020E-05 3.306E-04
 ETOT  4  -3.9649777819137    -7.315E-07 1.138E-09 3.538E-04 8.742E-05 4.180E-04
 ETOT  5  -3.9649778796978    -9.778E-08 2.997E-11 8.041E-05 3.881E-05 4.568E-04
 ETOT  6  -3.9649779021828    -2.249E-08 7.791E-12 1.267E-05 2.969E-05 4.865E-04
 ETOT  7  -3.9649779054623    -3.280E-09 2.072E-12 5.401E-08 1.798E-05 5.045E-04
 ETOT  8  -3.9649779054856    -2.324E-11 3.294E-13 2.588E-08 9.906E-07 5.055E-04
 ETOT  9  -3.9649779054894    -3.787E-12 1.353E-13 3.084E-09 1.432E-07 5.054E-04

 At SCF step    9, forces are sufficiently converged : 
  for the second time, max diff in force=  1.432E-07 is less than < tolrff=  2.000E-02 times max force

 Cartesian components of stress tensor (hartree/bohr^3)
  sigma(1 1)=  5.60708008E-05  sigma(3 2)=  0.00000000E+00
  sigma(2 2)=  5.60708008E-05  sigma(3 1)=  0.00000000E+00
  sigma(3 3)=  4.83705595E-05  sigma(2 1)=  0.00000000E+00


---OUTPUT-----------------------------------------------------------------------

 Cartesian coordinates (xcart) [bohr]
  0.00000000000000E+00  0.00000000000000E+00 -2.63562988223321E+00
  0.00000000000000E+00  0.00000000000000E+00  2.63562988223321E+00
 Reduced coordinates (xred)
  0.00000000000000E+00  0.00000000000000E+00 -1.64726867639575E-01
  0.00000000000000E+00  0.00000000000000E+00  1.64726867639575E-01
 Cartesian forces (fcart) [Ha/bohr]; max,rms= 5.05360E-04 2.91769E-04 (free atoms)
 -0.00000000000000E+00 -0.00000000000000E+00  5.05359550396154E-04
 -0.00000000000000E+00 -0.00000000000000E+00 -5.05359550396154E-04
 Reduced forces (fred)
  0.00000000000000E+00  0.00000000000000E+00 -8.08575280633846E-03
  0.00000000000000E+00  0.00000000000000E+00  8.08575280633846E-03
 Total energy (etotal) [Ha]= -3.96497790548935E+00

 Difference of energy with previous step (new-old):
           Absolute (Ha)=-2.75364E-04
           Relative     =-6.94515E-05

--- Iteration: ( 7/15) Internal Cycle: (1/1)
--------------------------------------------------------------------------------

---SELF-CONSISTENT-FIELD CONVERGENCE--------------------------------------------

     iter   Etot(hartree)      deltaE(h)  residm     vres2    diffor    maxfor
 ETOT  1  -3.9649830286304    -3.965E+00 1.392E-11 9.117E-04 4.880E-04 1.734E-05
 ETOT  2  -3.9649842704700    -1.242E-06 2.104E-13 2.989E-04 8.368E-05 6.634E-05
 ETOT  3  -3.9649849406030    -6.701E-07 1.152E-08 4.677E-05 3.150E-05 3.485E-05
 ETOT  4  -3.9649849655353    -2.493E-08 2.425E-11 5.197E-06 2.037E-05 1.448E-05
 ETOT  5  -3.9649849662216    -6.863E-10 3.269E-12 2.545E-06 2.282E-06 1.220E-05
 ETOT  6  -3.9649849670246    -8.031E-10 3.372E-13 2.527E-07 6.188E-06 6.011E-06
 ETOT  7  -3.9649849670966    -7.198E-11 4.251E-14 7.064E-10 2.670E-06 3.341E-06
 ETOT  8  -3.9649849670968    -2.149E-13 1.171E-15 5.792E-10 1.126E-07 3.228E-06
 ETOT  9  -3.9649849670969    -9.859E-14 4.064E-15 7.279E-11 7.209E-08 3.300E-06
 ETOT 10  -3.9649849670970    -2.620E-14 9.904E-16 1.222E-11 5.063E-09 3.295E-06
 ETOT 11  -3.9649849670970    -3.020E-14 1.973E-17 3.841E-13 1.212E-08 3.307E-06

 At SCF step   11, forces are sufficiently converged : 
  for the second time, max diff in force=  1.212E-08 is less than < tolrff=  2.000E-02 times max force

 Cartesian components of stress tensor (hartree/bohr^3)
  sigma(1 1)=  5.58137959E-05  sigma(3 2)=  0.00000000E+00
  sigma(2 2)=  5.58137959E-05  sigma(3 1)=  0.00000000E+00
  sigma(3 3)=  4.64447224E-05  sigma(2 1)=  0.00000000E+00


---OUTPUT-----------------------------------------------------------------------

 Cartesian coordinates (xcart) [bohr]
  0.00000000000000E+00  0.00000000000000E+00 -2.62170026104566E+00
  0.00000000000000E+00  0.00000000000000E+00  2.62170026104566E+00
 Reduced coordinates (xred)
  0.00000000000000E+00  0.00000000000000E+00 -1.63856266315354E-01
  0.00000000000000E+00  0.00000000000000E+00  1.63856266315354E-01
 Cartesian forces (fcart) [Ha/bohr]; max,rms= 3.30748E-06 1.90957E-06 (free atoms)
 -0.00000000000000E+00 -0.00000000000000E+00 -3.30747897692516E-06
 -0.00000000000000E+00 -0.00000000000000E+00  3.30747897692516E-06
 Reduced forces (fred)
  0.00000000000000E+00  0.00000000000000E+00  5.29196636308026E-05
  0.00000000000000E+00  0.00000000000000E+00 -5.29196636308026E-05
 Total energy (etotal) [Ha]= -3.96498496709700E+00

 Difference of energy with previous step (new-old):
           Absolute (Ha)=-7.06161E-06
           Relative     =-1.78099E-06

 At Broyd/MD step   7, gradients are converged : 
  max grad (force/stress) = 3.3075E-06 < tolmxf= 5.0000E-05 ha/bohr (free atoms)

================================================================================

 ----iterations are completed or convergence reached----

 Mean square residual over all n,k,spin=   8.0439E-18; max=  1.9728E-17
   0.0000  0.0000  0.0000    1  1.97280E-17 kpt; spin; max resid(k); each band:
  1.95E-17 8.24E-19 1.97E-17 8.96E-20 8.96E-20
 reduced coordinates (array xred) for    2 atoms
       0.000000000000      0.000000000000     -0.163856266315
       0.000000000000      0.000000000000      0.163856266315
 rms dE/dt=  3.0553E-05; max dE/dt=  5.2920E-05; dE/dt below (all hartree)
    1       0.000000000000      0.000000000000      0.000052919664
    2       0.000000000000      0.000000000000     -0.000052919664

 cartesian coordinates (angstrom) at end:
    1      0.00000000000000     0.00000000000000    -1.38734402589982
    2      0.00000000000000     0.00000000000000     1.38734402589982

 cartesian forces (hartree/bohr) at end:
    1     -0.00000000000000    -0.00000000000000    -0.00000330747898
    2     -0.00000000000000    -0.00000000000000     0.00000330747898
 frms,max,avg= 1.9095739E-06 3.3074790E-06   0.000E+00  0.000E+00  0.000E+00 h/b

 cartesian forces (eV/Angstrom) at end:
    1     -0.00000000000000    -0.00000000000000    -0.00017007739296
    2     -0.00000000000000    -0.00000000000000     0.00017007739296
 frms,max,avg= 9.8194229E-05 1.7007739E-04   0.000E+00  0.000E+00  0.000E+00 e/A
 length scales= 11.000000000000 11.000000000000 16.000000000000 bohr
              =  5.820949294490  5.820949294490  8.466835337440 angstroms
 prteigrs : about to open file t41o_DS2_EIG
 Fermi (or HOMO) energy (hartree) =  -0.08875   Average Vxc (hartree)=  -0.13562
 Eigenvalues (hartree) for nkpt=   1  k points:
 kpt#   1, nband=  5, wtk=  1.00000, kpt=  0.0000  0.0000  0.0000 (reduced coord)
  -0.27658  -0.18576  -0.09293  -0.06862  -0.06862
      occupation numbers for kpt#   1
   2.01088   2.14176   0.93061   0.45838   0.45838
 Total charge density [el/Bohr^3]
,     Maximum=    3.9683E-02  at reduced coord.    0.0000    0.0000    0.0000
,Next maximum=    3.6890E-02  at reduced coord.    0.0000    0.0000    0.9583
,     Minimum=    3.3369E-05  at reduced coord.    0.5000    0.5000    0.0000
,Next minimum=    3.4393E-05  at reduced coord.    0.5000    0.4375    0.0000
,  Integrated=    6.0000E+00

--------------------------------------------------------------------------------
 Components of total free energy (in Hartree) :

    Kinetic energy  =  1.15628175658358E+00
    Hartree energy  =  1.06881929752444E+00
    XC energy       = -1.22327168470862E+00
    Ewald energy    = -2.13234442093390E+00
    PspCore energy  =  8.44870280673896E-03
    Loc. psp. energy= -3.89164063840285E+00
    NL   psp  energy=  1.08613359302404E+00
    >>>>> Internal E= -3.92757339410656E+00

    -kT*entropy     = -3.74115729904465E-02
    >>>>>>>>> Etotal= -3.96498496709700E+00

 Other information on the energy :
    Total energy(eV)= -1.07892727938806E+02 ; Band energy (Ha)=  -1.1033943429E+00
--------------------------------------------------------------------------------
 rms coord change=  9.3206E-03   atom, delta coord (reduced):
     1        0.000000000000      0.000000000000      0.016143733685
     2        0.000000000000      0.000000000000     -0.016143733685

 Cartesian components of stress tensor (hartree/bohr^3)
  sigma(1 1)=  5.58137959E-05  sigma(3 2)=  0.00000000E+00
  sigma(2 2)=  5.58137959E-05  sigma(3 1)=  0.00000000E+00
  sigma(3 3)=  4.64447224E-05  sigma(2 1)=  0.00000000E+00

-Cartesian components of stress tensor (GPa)         [Pressure= -1.5502E+00 GPa]
- sigma(1 1)=  1.64209829E+00  sigma(3 2)=  0.00000000E+00
- sigma(2 2)=  1.64209829E+00  sigma(3 1)=  0.00000000E+00
- sigma(3 3)=  1.36645068E+00  sigma(2 1)=  0.00000000E+00

== END DATASET(S) ==============================================================
================================================================================
  
 -outvars: echo values of variables after computation  --------
            acell      1.1000000000E+01  1.1000000000E+01  1.6000000000E+01 Bohr
              amu      2.69815390E+01
           diemac      1.00000000E+00
           diemix      3.33333333E-01
             ecut      2.50000000E+00 Hartree
           etotal1    -3.9649849644E+00
           etotal2    -3.9649849671E+00
            fcart1    -0.0000000000E+00 -0.0000000000E+00 -1.0156893709E-05
                      -0.0000000000E+00 -0.0000000000E+00  1.0156893709E-05
            fcart2    -0.0000000000E+00 -0.0000000000E+00 -3.3074789769E-06
                      -0.0000000000E+00 -0.0000000000E+00  3.3074789769E-06
-          fftalg         112
           ionmov           3
             iscf           5
           istwfk        2
           jdtset        1    2
           kptopt           0
P           mkmem           1
            natom           2
            nband           5
           ndtset           2
            ngfft          16      16      24
             nkpt           1
            nstep          40
             nsym          16
            ntime          15
           ntypat           1
              occ1     2.010874  2.141761  0.930514  0.458425  0.458425
              occ2     2.010878  2.141763  0.930607  0.458376  0.458376
           occopt           4
        optforces           1
          spgroup         123
           strten1     5.5809919705E-05  5.5809919705E-05  4.6417501992E-05
                       0.0000000000E+00  0.0000000000E+00  0.0000000000E+00
           strten2     5.5813795908E-05  5.5813795908E-05  4.6444722372E-05
                       0.0000000000E+00  0.0000000000E+00  0.0000000000E+00
           symrel      1  0  0   0  1  0   0  0  1      -1  0  0   0 -1  0   0  0 -1
                      -1  0  0   0  1  0   0  0 -1       1  0  0   0 -1  0   0  0  1
                      -1  0  0   0 -1  0   0  0  1       1  0  0   0  1  0   0  0 -1
                       1  0  0   0 -1  0   0  0 -1      -1  0  0   0  1  0   0  0  1
                       0  1  0   1  0  0   0  0  1       0 -1  0  -1  0  0   0  0 -1
                       0 -1  0   1  0  0   0  0 -1       0  1  0  -1  0  0   0  0  1
                       0 -1  0  -1  0  0   0  0  1       0  1  0   1  0  0   0  0 -1
                       0  1  0  -1  0  0   0  0 -1       0 -1  0   1  0  0   0  0  1
           toldff1     5.00000000E-06
           toldff2     0.00000000E+00
           tolrff1     0.00000000E+00
           tolrff2     2.00000000E-02
           tsmear      8.00000000E-02 Hartree
            typat      1  1
           xangst1     0.0000000000E+00  0.0000000000E+00 -1.3872426082E+00
                       0.0000000000E+00  0.0000000000E+00  1.3872426082E+00
           xangst2     0.0000000000E+00  0.0000000000E+00 -1.3873440259E+00
                       0.0000000000E+00  0.0000000000E+00  1.3873440259E+00
            xcart1     0.0000000000E+00  0.0000000000E+00 -2.6215086094E+00
                       0.0000000000E+00  0.0000000000E+00  2.6215086094E+00
            xcart2     0.0000000000E+00  0.0000000000E+00 -2.6217002610E+00
                       0.0000000000E+00  0.0000000000E+00  2.6217002610E+00
             xred1     0.0000000000E+00  0.0000000000E+00 -1.6384428809E-01
                       0.0000000000E+00  0.0000000000E+00  1.6384428809E-01
             xred2     0.0000000000E+00  0.0000000000E+00 -1.6385626632E-01
                       0.0000000000E+00  0.0000000000E+00  1.6385626632E-01
            znucl       13.00000

================================================================================


- Timing analysis has been suppressed with timopt=0



================================================================================

 Suggested references for the acknowledgment of ABINIT usage.

 The users of ABINIT have little formal obligations with respect to the ABINIT group
 (those specified in the GNU General Public License, http://www.gnu.org/copyleft/gpl.txt).
 However, it is common practice in the scientific literature,
 to acknowledge the efforts of people that have made the research possible.
 In this spirit, please find below suggested citations of work written by ABINIT developers,
 corresponding to implementations inside of ABINIT that you have used in the present run.
 Note also that it will be of great value to readers of publications presenting these results,
 to read papers enabling them to understand the theoretical formalism and details
 of the ABINIT implementation.
 For information on why they are suggested, see also http://www.abinit.org/about/?text=acknowledgments.

 [1] Ab initio pseudopotentials for electronic structure calculations of poly-atomic systems, 
 using density-functional theory.
 M. Fuchs, M. Scheffler, Comput. Phys. Commun. 119, 67 (1999).
 Comment : Some pseudopotential generated using the FHI code were used.

 [2] ABINIT : First-principles approach of materials and nanosystem properties.
 X. Gonze, B. Amadon, P.-M. Anglade, J.-M. Beuken, F. Bottin, P. Boulanger, F. Bruneval,
 D. Caliste, R. Caracas, M. Cote, T. Deutsch, L. Genovese, Ph. Ghosez, M. Giantomassi
 S. Goedecker, D.R. Hamann, P. Hermet, F. Jollet, G. Jomard, S. Leroux, M. Mancini, S. Mazevet,
 M.J.T. Oliveira, G. Onida, Y. Pouillon, T. Rangel, G.-M. Rignanese, D. Sangalli, R. Shaltaf,
 M. Torrent, M.J. Verstraete, G. Zerah, J.W. Zwanziger
 Computer Phys. Comm. 180, 2582-2615 (2009).
 Comment : the third generic paper describing the ABINIT project.
 Note that a version of this paper, that is not formatted for Computer Phys. Comm. 
 is available at http://www.abinit.org/about/ABINIT_CPC_v10.pdf .
 The licence allows the authors to put it on the Web.

 [3] A brief introduction to the ABINIT software package.
 X. Gonze, G.-M. Rignanese, M. Verstraete, J.-M. Beuken, Y. Pouillon, R. Caracas, F. Jollet,
 M. Torrent, G. Zerah, M. Mikami, Ph. Ghosez, M. Veithen, J.-Y. Raty, V. Olevano, F. Bruneval,
 L. Reining, R. Godby, G. Onida, D.R. Hamann, and D.C. Allan.
 Z. Kristallogr. 220, 558-562 (2005).
 Comment : the second generic paper describing the ABINIT project. Note that this paper
 should be cited especially if you are using the GW part of ABINIT, as several authors
 of this part are not in the list of authors of the first or third paper.
 The .pdf of the latter paper is available at http://www.abinit.org/about/zfk_0505-06_558-562.pdf.
 Note that it should not redistributed (Copyright by Oldenburg Wissenshaftverlag,
 the licence allows the authors to put it on the Web).


 And optionally :

 [4] First-principles computation of material properties : the ABINIT software project. 
 X. Gonze, J.-M. Beuken, R. Caracas, F. Detraux, M. Fuchs, G.-M. Rignanese, L. Sindic,
 M. Verstraete, G. Zerah, F. Jollet, M. Torrent, A. Roy, M. Mikami, Ph. Ghosez, J.-Y. Raty, D.C. Allan.
 Computational Materials Science 25, 478-492 (2002). http://dx.doi.org/10.1016/S0927-0256(02)00325-7
 Comment : the original paper describing the ABINIT project.

 [5] Fast radix 2, 3, 4 and 5 kernels for Fast Fourier Transformations
 on computers with overlapping multiply-add instructions.
 S. Goedecker, SIAM J. on Scientific Computing 18, 1605 (1997).
-
- Proc.   0 individual time (sec): cpu=          1.7  wall=          1.7

================================================================================

 Calculation completed.
.Delivered    7 WARNINGs and   1 COMMENTs to log file.
+Overall time at end (sec) : cpu=          1.7  wall=          1.7
