
.Version 7.10.4 of ABINIT 
.(MPI version, prepared for a x86_64_linux_gnu4.7 computer) 

.Copyright (C) 1998-2014 ABINIT group . 
 ABINIT comes with ABSOLUTELY NO WARRANTY.
 It is free software, and you are welcome to redistribute it
 under certain conditions (GNU General Public License,
 see ~abinit/COPYING or http://www.gnu.org/copyleft/gpl.txt).

 ABINIT is a project of the Universite Catholique de Louvain,
 Corning Inc. and other collaborators, see ~abinit/doc/developers/contributors.txt .
 Please read ~abinit/doc/users/acknowledgments.html for suggested
 acknowledgments of the ABINIT effort.
 For more information, see http://www.abinit.org .

.Starting date : Sun  1 Feb 2015.
- ( at 15h10 )
  
- input  file    -> t81.in
- output file    -> t81.out
- root for input  files -> t81i
- root for output files -> t81o


 DATASET    1 : space group Fd -3 m (#227); Bravais cF (face-center cubic)
================================================================================
 Values of the parameters that define the memory need for DATASET  1.
   intxc =         0  ionmov =         0    iscf =         7 xclevel =         1
  lmnmax =         2   lnmax =         2   mband =         4  mffmem =         1
P  mgfft =        16   mkmem =         2 mpssoang=         3     mpw =       150
  mqgrid =      3001   natom =         2    nfft =      4096    nkpt =         2
  nloalg =         4  nspden =         1 nspinor =         1  nsppol =         1
    nsym =        48  n1xccc =      2501  ntypat =         1  occopt =         1
================================================================================
P This job should need less than                       1.751 Mbytes of memory.
  Rough estimation (10% accuracy) of disk space for files :
_ WF disk file :      0.020 Mbytes ; DEN or POT disk file :      0.033 Mbytes.
================================================================================


 DATASET    2 : space group Fd -3 m (#227); Bravais cF (face-center cubic)
================================================================================
 Values of the parameters that define the memory need for DATASET  2 (RF).
   intxc =         0    iscf =        -3 xclevel =         1  lmnmax =         2
   lnmax =         2   mband =         4  mffmem =         1   mgfft =        16
P  mkmem =        32  mkqmem =        32  mk1mem =        32 mpssoang=         3
     mpw =       150  mqgrid =      3001   natom =         2    nfft =      4096
    nkpt =        32  nloalg =         4  nspden =         1 nspinor =         1
  nsppol =         1    nsym =        48  n1xccc =      2501  ntypat =         1
  occopt =         1
================================================================================
P This job should need less than                       2.387 Mbytes of memory.
  Rough estimation (10% accuracy) of disk space for files :
_ WF disk file :      0.295 Mbytes ; DEN or POT disk file :      0.033 Mbytes.
================================================================================

--------------------------------------------------------------------------------
------------- Echo of variables that govern the present computation ------------
--------------------------------------------------------------------------------
-
- outvars: echo of selected default values                                      
-   accesswff0 =  0 , fftalg0 =112 , wfoptalg0 =  0
-
- outvars: echo of global parameters not present in the input file              
-  max_nthreads =    0
-
 -outvars: echo values of preprocessed input variables --------
            acell      1.0261212902E+01  1.0261212902E+01  1.0261212902E+01 Bohr
              amu      2.80855000E+01
             ecut      5.00000000E+00 Hartree
-          fftalg         112
           getwfk1          0
           getwfk2          1
             iscf1          7
             iscf2         -3
           jdtset        1    2
              kpt1    -2.50000000E-01  5.00000000E-01  0.00000000E+00
                      -2.50000000E-01  0.00000000E+00  0.00000000E+00
              kpt2    -2.50000000E-01  5.00000000E-01  0.00000000E+00
                       5.00000000E-01 -2.50000000E-01  0.00000000E+00
                      -2.50000000E-01 -2.50000000E-01  2.50000000E-01
                      -2.50000000E-01  0.00000000E+00  0.00000000E+00
                       5.00000000E-01  2.50000000E-01  0.00000000E+00
                      -2.50000000E-01  2.50000000E-01  2.50000000E-01
                       2.50000000E-01  5.00000000E-01  0.00000000E+00
                       5.00000000E-01  5.00000000E-01  2.50000000E-01
                      -2.50000000E-01  5.00000000E-01  5.00000000E-01
                       0.00000000E+00 -2.50000000E-01  0.00000000E+00
                       2.50000000E-01 -2.50000000E-01  2.50000000E-01
                       5.00000000E-01 -2.50000000E-01  5.00000000E-01
                      -2.50000000E-01 -2.50000000E-01 -2.50000000E-01
                       2.50000000E-01  0.00000000E+00  0.00000000E+00
                       5.00000000E-01  0.00000000E+00  2.50000000E-01
                      -2.50000000E-01  0.00000000E+00  5.00000000E-01
                       0.00000000E+00  2.50000000E-01  0.00000000E+00
                       2.50000000E-01  2.50000000E-01  2.50000000E-01
                       5.00000000E-01  2.50000000E-01  5.00000000E-01
                      -2.50000000E-01  2.50000000E-01 -2.50000000E-01
                       0.00000000E+00  5.00000000E-01  2.50000000E-01
                       2.50000000E-01  5.00000000E-01  5.00000000E-01
                       5.00000000E-01  5.00000000E-01 -2.50000000E-01
                       0.00000000E+00 -2.50000000E-01  5.00000000E-01
                       2.50000000E-01 -2.50000000E-01 -2.50000000E-01
                       0.00000000E+00  0.00000000E+00  2.50000000E-01
                       2.50000000E-01  0.00000000E+00  5.00000000E-01
                       5.00000000E-01  0.00000000E+00 -2.50000000E-01
                       0.00000000E+00  2.50000000E-01  5.00000000E-01
                       2.50000000E-01  2.50000000E-01 -2.50000000E-01
                       0.00000000E+00  5.00000000E-01 -2.50000000E-01
                       0.00000000E+00  0.00000000E+00 -2.50000000E-01
           kptopt1          1
           kptopt2          3
         kptrlatt        2   -2    2     -2    2    2     -2   -2    2
          kptrlen      2.05224258E+01
P           mkmem1          2
P           mkmem2         32
P          mkqmem1          2
P          mkqmem2         32
P          mk1mem1          2
P          mk1mem2         32
            natom           2
            nband1          4
            nband2          4
           ndtset           2
            ngfft          16      16      16
             nkpt1          2
             nkpt2         32
             nqpt1          0
             nqpt2          1
            nstep          50
             nsym          48
           ntypat           1
              occ1     2.000000  2.000000  2.000000  2.000000
              occ2     2.000000  2.000000  2.000000  2.000000
        optdriver1          0
        optdriver2          1
           prtden           0
           prteig           0
            rfdir1          0       0       0
            rfdir2          1       0       0
           rfelfd1          0
           rfelfd2          2
            rprim      0.0000000000E+00  5.0000000000E-01  5.0000000000E-01
                       5.0000000000E-01  0.0000000000E+00  5.0000000000E-01
                       5.0000000000E-01  5.0000000000E-01  0.0000000000E+00
           shiftk      5.00000000E-01  5.00000000E-01  5.00000000E-01
          spgroup         227
           symrel      1  0  0   0  1  0   0  0  1      -1  0  0   0 -1  0   0  0 -1
                       0 -1  1   0 -1  0   1 -1  0       0  1 -1   0  1  0  -1  1  0
                      -1  0  0  -1  0  1  -1  1  0       1  0  0   1  0 -1   1 -1  0
                       0  1 -1   1  0 -1   0  0 -1       0 -1  1  -1  0  1   0  0  1
                      -1  0  0  -1  1  0  -1  0  1       1  0  0   1 -1  0   1  0 -1
                       0 -1  1   1 -1  0   0 -1  0       0  1 -1  -1  1  0   0  1  0
                       1  0  0   0  0  1   0  1  0      -1  0  0   0  0 -1   0 -1  0
                       0  1 -1   0  0 -1   1  0 -1       0 -1  1   0  0  1  -1  0  1
                      -1  0  1  -1  1  0  -1  0  0       1  0 -1   1 -1  0   1  0  0
                       0 -1  0   1 -1  0   0 -1  1       0  1  0  -1  1  0   0  1 -1
                       1  0 -1   0  0 -1   0  1 -1      -1  0  1   0  0  1   0 -1  1
                       0  1  0   0  0  1   1  0  0       0 -1  0   0  0 -1  -1  0  0
                       1  0 -1   0  1 -1   0  0 -1      -1  0  1   0 -1  1   0  0  1
                       0 -1  0   0 -1  1   1 -1  0       0  1  0   0  1 -1  -1  1  0
                      -1  0  1  -1  0  0  -1  1  0       1  0 -1   1  0  0   1 -1  0
                       0  1  0   1  0  0   0  0  1       0 -1  0  -1  0  0   0  0 -1
                       0  0 -1   0  1 -1   1  0 -1       0  0  1   0 -1  1  -1  0  1
                       1 -1  0   0 -1  1   0 -1  0      -1  1  0   0  1 -1   0  1  0
                       0  0  1   1  0  0   0  1  0       0  0 -1  -1  0  0   0 -1  0
                      -1  1  0  -1  0  0  -1  0  1       1 -1  0   1  0  0   1  0 -1
                       0  0  1   0  1  0   1  0  0       0  0 -1   0 -1  0  -1  0  0
                       1 -1  0   0 -1  0   0 -1  1      -1  1  0   0  1  0   0  1 -1
                       0  0 -1   1  0 -1   0  1 -1       0  0  1  -1  0  1   0 -1  1
                      -1  1  0  -1  0  1  -1  0  0       1 -1  0   1  0 -1   1  0  0
            tnons      0.0000000  0.0000000  0.0000000     0.2500000  0.2500000  0.2500000
                       0.0000000  0.0000000  0.0000000     0.2500000  0.2500000  0.2500000
                       0.0000000  0.0000000  0.0000000     0.2500000  0.2500000  0.2500000
                       0.0000000  0.0000000  0.0000000     0.2500000  0.2500000  0.2500000
                       0.0000000  0.0000000  0.0000000     0.2500000  0.2500000  0.2500000
                       0.0000000  0.0000000  0.0000000     0.2500000  0.2500000  0.2500000
                       0.0000000  0.0000000  0.0000000     0.2500000  0.2500000  0.2500000
                       0.0000000  0.0000000  0.0000000     0.2500000  0.2500000  0.2500000
                       0.0000000  0.0000000  0.0000000     0.2500000  0.2500000  0.2500000
                       0.0000000  0.0000000  0.0000000     0.2500000  0.2500000  0.2500000
                       0.0000000  0.0000000  0.0000000     0.2500000  0.2500000  0.2500000
                       0.0000000  0.0000000  0.0000000     0.2500000  0.2500000  0.2500000
                       0.0000000  0.0000000  0.0000000     0.2500000  0.2500000  0.2500000
                       0.0000000  0.0000000  0.0000000     0.2500000  0.2500000  0.2500000
                       0.0000000  0.0000000  0.0000000     0.2500000  0.2500000  0.2500000
                       0.0000000  0.0000000  0.0000000     0.2500000  0.2500000  0.2500000
                       0.0000000  0.0000000  0.0000000     0.2500000  0.2500000  0.2500000
                       0.0000000  0.0000000  0.0000000     0.2500000  0.2500000  0.2500000
                       0.0000000  0.0000000  0.0000000     0.2500000  0.2500000  0.2500000
                       0.0000000  0.0000000  0.0000000     0.2500000  0.2500000  0.2500000
                       0.0000000  0.0000000  0.0000000     0.2500000  0.2500000  0.2500000
                       0.0000000  0.0000000  0.0000000     0.2500000  0.2500000  0.2500000
                       0.0000000  0.0000000  0.0000000     0.2500000  0.2500000  0.2500000
                       0.0000000  0.0000000  0.0000000     0.2500000  0.2500000  0.2500000
           tolvrs1     1.00000000E-18
           tolvrs2     0.00000000E+00
           tolwfr1     0.00000000E+00
           tolwfr2     1.00000000E-20
            typat      1  1
              wtk1       0.75000    0.25000
              wtk2       0.03125    0.03125    0.03125    0.03125    0.03125    0.03125
                         0.03125    0.03125    0.03125    0.03125    0.03125    0.03125
                         0.03125    0.03125    0.03125    0.03125    0.03125    0.03125
                         0.03125    0.03125    0.03125    0.03125    0.03125    0.03125
                         0.03125    0.03125    0.03125    0.03125    0.03125    0.03125
                         0.03125    0.03125
           xangst      0.0000000000E+00  0.0000000000E+00  0.0000000000E+00
                       1.3575000000E+00  1.3575000000E+00  1.3575000000E+00
            xcart      0.0000000000E+00  0.0000000000E+00  0.0000000000E+00
                       2.5653032254E+00  2.5653032254E+00  2.5653032254E+00
             xred      0.0000000000E+00  0.0000000000E+00  0.0000000000E+00
                       2.5000000000E-01  2.5000000000E-01  2.5000000000E-01
            znucl       14.00000

================================================================================

 chkinp: Checking input parameters for consistency, jdtset=   1.

 chkinp: Checking input parameters for consistency, jdtset=   2.

================================================================================
== DATASET  1 ==================================================================
-   nproc =    1

 Exchange-correlation functional for the present dataset will be:
  LDA: new Teter (4/93) with spin-polarized option - ixc=1
 Citation for XC functional:
  S. Goedecker, M. Teter, J. Huetter, PRB 54, 1703 (1996)

 Real(R)+Recip(G) space primitive vectors, cartesian coordinates (Bohr,Bohr^-1):
 R(1)=  0.0000000  5.1306065  5.1306065  G(1)= -0.0974544  0.0974544  0.0974544
 R(2)=  5.1306065  0.0000000  5.1306065  G(2)=  0.0974544 -0.0974544  0.0974544
 R(3)=  5.1306065  5.1306065  0.0000000  G(3)=  0.0974544  0.0974544 -0.0974544
 Unit cell volume ucvol=  2.7010716E+02 bohr^3
 Angles (23,13,12)=  6.00000000E+01  6.00000000E+01  6.00000000E+01 degrees

 getcut: wavevector=  0.0000  0.0000  0.0000  ngfft=  16  16  16
         ecut(hartree)=      5.000   => boxcut(ratio)=   2.19072

--- Pseudopotential description ------------------------------------------------
- pspini: atom type   1  psp file is /data/ABINIT/testf_gcc47/trunk_7.10.4-training/tests/Psps_for_tests/14si.pspnc
- pspatm: opening atomic psp file    /data/ABINIT/testf_gcc47/trunk_7.10.4-training/tests/Psps_for_tests/14si.pspnc
-  Troullier-Martins psp for element  Si        Thu Oct 27 17:31:21 EDT 1994
- 14.00000   4.00000    940714                znucl, zion, pspdat
    1    1    2    2      2001   0.00000      pspcod,pspxc,lmax,lloc,mmax,r2well
    0   5.907  14.692    1   2.0872718        l,e99.0,e99.9,nproj,rcpsp
   0.00000000   0.00000000   0.00000000   0.00000000     rms, ekb1, ekb2, epsatm
    1   2.617   4.181    1   2.0872718        l,e99.0,e99.9,nproj,rcpsp
   0.00000000   0.00000000   0.00000000   0.00000000     rms, ekb1, ekb2, epsatm
    2   0.000   0.000    0   2.0872718        l,e99.0,e99.9,nproj,rcpsp
   0.00000000   0.00000000   0.00000000   0.00000000     rms, ekb1, ekb2, epsatm
    1.80626423934776    0.22824404341771    1.17378968127746   rchrg,fchrg,qchrg
 pspatm: epsatm=    1.43386982
         --- l  ekb(1:nproj) -->
             0    3.287949
             1    1.849886
 pspatm: atomic psp has been read  and splines computed

   2.29419171E+01                                ecore*ucvol(ha*bohr**3)
--------------------------------------------------------------------------------

P newkpt: treating      4 bands with npw=     143 for ikpt=   1 by node    0
P newkpt: treating      4 bands with npw=     150 for ikpt=   2 by node    0

_setup2: Arith. and geom. avg. npw (full set) are     144.750     144.719

================================================================================

     iter   Etot(hartree)      deltaE(h)  residm     vres2
 ETOT  1  -8.8440746423523    -8.844E+00 5.261E-03 2.863E+00
 ETOT  2  -8.8493237505068    -5.249E-03 1.815E-08 1.267E-01
 ETOT  3  -8.8494526288239    -1.289E-04 4.589E-07 2.441E-03
 ETOT  4  -8.8494541510858    -1.522E-06 7.954E-09 6.540E-06
 ETOT  5  -8.8494541571506    -6.065E-09 2.797E-11 1.310E-08
 ETOT  6  -8.8494541571651    -1.452E-11 6.468E-14 1.007E-10
 ETOT  7  -8.8494541571651     3.553E-15 2.116E-16 5.394E-13
 ETOT  8  -8.8494541571652    -2.132E-14 2.572E-18 1.126E-15
 ETOT  9  -8.8494541571651     6.040E-14 7.322E-22 1.863E-18
 ETOT 10  -8.8494541571650     6.217E-14 3.199E-24 1.127E-20

 At SCF step   10       vres2   =  1.13E-20 < tolvrs=  1.00E-18 =>converged.

 Cartesian components of stress tensor (hartree/bohr^3)
  sigma(1 1)=  1.56751622E-04  sigma(3 2)=  0.00000000E+00
  sigma(2 2)=  1.56751622E-04  sigma(3 1)=  0.00000000E+00
  sigma(3 3)=  1.56751622E-04  sigma(2 1)=  0.00000000E+00

================================================================================

 ----iterations are completed or convergence reached----

 Mean square residual over all n,k,spin=   1.4568E-24; max=  3.1990E-24
  -0.2500  0.5000  0.0000    1  3.19898E-24 kpt; spin; max resid(k); each band:
  8.65E-25 3.20E-24 2.69E-24 6.13E-25
  -0.2500  0.0000  0.0000    1  1.45831E-24 kpt; spin; max resid(k); each band:
  1.12E-24 1.15E-24 1.46E-24 5.62E-25
 reduced coordinates (array xred) for    2 atoms
       0.000000000000      0.000000000000      0.000000000000
       0.250000000000      0.250000000000      0.250000000000
 rms dE/dt=  0.0000E+00; max dE/dt=  0.0000E+00; dE/dt below (all hartree)
    1       0.000000000000      0.000000000000      0.000000000000
    2       0.000000000000      0.000000000000      0.000000000000

 cartesian coordinates (angstrom) at end:
    1      0.00000000000000     0.00000000000000     0.00000000000000
    2      1.35750000000000     1.35750000000000     1.35750000000000

 cartesian forces (hartree/bohr) at end:
    1     -0.00000000000000    -0.00000000000000    -0.00000000000000
    2     -0.00000000000000    -0.00000000000000    -0.00000000000000
 frms,max,avg= 0.0000000E+00 0.0000000E+00   0.000E+00  0.000E+00  0.000E+00 h/b

 cartesian forces (eV/Angstrom) at end:
    1     -0.00000000000000    -0.00000000000000    -0.00000000000000
    2     -0.00000000000000    -0.00000000000000    -0.00000000000000
 frms,max,avg= 0.0000000E+00 0.0000000E+00   0.000E+00  0.000E+00  0.000E+00 e/A
 length scales= 10.261212901569 10.261212901569 10.261212901569 bohr
              =  5.430000000000  5.430000000000  5.430000000000 angstroms
 Fermi (or HOMO) energy (hartree) =   0.18615   Average Vxc (hartree)=  -0.35240
 Eigenvalues (hartree) for nkpt=   2  k points:
 kpt#   1, nband=  4, wtk=  0.75000, kpt= -0.2500  0.5000  0.0000 (reduced coord)
  -0.12364  -0.01960   0.08258   0.13205
 kpt#   2, nband=  4, wtk=  0.25000, kpt= -0.2500  0.0000  0.0000 (reduced coord)
  -0.19553   0.06931   0.18615   0.18615
 Total charge density [el/Bohr^3]
,     Maximum=    8.7140E-02  at reduced coord.    0.1250    0.1250    0.6250
,Next maximum=    8.7140E-02  at reduced coord.    0.1250    0.6250    0.1250
,     Minimum=    3.1757E-03  at reduced coord.    0.5000    0.5000    0.5000
,Next minimum=    3.1757E-03  at reduced coord.    0.7500    0.7500    0.7500
,  Integrated=    8.0000E+00

--------------------------------------------------------------------------------
 Components of total free energy (in Hartree) :

    Kinetic energy  =  2.99072468101389E+00
    Hartree energy  =  5.47038909263150E-01
    XC energy       = -3.53382757828201E+00
    Ewald energy    = -8.39947182979608E+00
    PspCore energy  =  8.49363517011973E-02
    Loc. psp. energy= -2.50191515481396E+00
    NL   psp  energy=  1.96306046374879E+00
    >>>>>>>>> Etotal= -8.84945415716503E+00

 Other information on the energy :
    Total energy(eV)= -2.40805894022090E+02 ; Band energy (Ha)=   2.3012396705E-01
--------------------------------------------------------------------------------

 Cartesian components of stress tensor (hartree/bohr^3)
  sigma(1 1)=  1.56751622E-04  sigma(3 2)=  0.00000000E+00
  sigma(2 2)=  1.56751622E-04  sigma(3 1)=  0.00000000E+00
  sigma(3 3)=  1.56751622E-04  sigma(2 1)=  0.00000000E+00

-Cartesian components of stress tensor (GPa)         [Pressure= -4.6118E+00 GPa]
- sigma(1 1)=  4.61179116E+00  sigma(3 2)=  0.00000000E+00
- sigma(2 2)=  4.61179116E+00  sigma(3 1)=  0.00000000E+00
- sigma(3 3)=  4.61179116E+00  sigma(2 1)=  0.00000000E+00

================================================================================
== DATASET  2 ==================================================================
-   nproc =    1

 mkfilename : getwfk/=0, take file _WFK from output of DATASET   1.

 Exchange-correlation functional for the present dataset will be:
  LDA: new Teter (4/93) with spin-polarized option - ixc=1
 Citation for XC functional:
  S. Goedecker, M. Teter, J. Huetter, PRB 54, 1703 (1996)

 Real(R)+Recip(G) space primitive vectors, cartesian coordinates (Bohr,Bohr^-1):
 R(1)=  0.0000000  5.1306065  5.1306065  G(1)= -0.0974544  0.0974544  0.0974544
 R(2)=  5.1306065  0.0000000  5.1306065  G(2)=  0.0974544 -0.0974544  0.0974544
 R(3)=  5.1306065  5.1306065  0.0000000  G(3)=  0.0974544  0.0974544 -0.0974544
 Unit cell volume ucvol=  2.7010716E+02 bohr^3
 Angles (23,13,12)=  6.00000000E+01  6.00000000E+01  6.00000000E+01 degrees
 setup1 : take into account q-point for computing boxcut.

 getcut: wavevector=  0.0000  0.0000  0.0000  ngfft=  16  16  16
         ecut(hartree)=      5.000   => boxcut(ratio)=   2.19072
--------------------------------------------------------------------------------

-inwffil : will read wavefunctions from disk file t81o_DS1_WFK
- newkpt: read input wf with ikpt,npw=   1     143, make ikpt,npw=   1     143
- newkpt: read input wf with ikpt,npw=   1     143, make ikpt,npw=   2     143
- newkpt: read input wf with ikpt,npw=   1     143, make ikpt,npw=   3     143
- newkpt: read input wf with ikpt,npw=   2     150, make ikpt,npw=   4     150
- newkpt: read input wf with ikpt,npw=   1     143, make ikpt,npw=   5     143
- newkpt: read input wf with ikpt,npw=   1     143, make ikpt,npw=   6     143
- newkpt: read input wf with ikpt,npw=   1     143, make ikpt,npw=   7     143
- newkpt: read input wf with ikpt,npw=   1     143, make ikpt,npw=   8     143
- newkpt: read input wf with ikpt,npw=   1     143, make ikpt,npw=   9     143
- newkpt: read input wf with ikpt,npw=   2     150, make ikpt,npw=  10     150
- newkpt: read input wf with ikpt,npw=   1     143, make ikpt,npw=  11     143
- newkpt: read input wf with ikpt,npw=   1     143, make ikpt,npw=  12     143
- newkpt: read input wf with ikpt,npw=   2     150, make ikpt,npw=  13     150
- newkpt: read input wf with ikpt,npw=   2     150, make ikpt,npw=  14     150
- newkpt: read input wf with ikpt,npw=   1     143, make ikpt,npw=  15     143
- newkpt: read input wf with ikpt,npw=   1     143, make ikpt,npw=  16     143
- newkpt: read input wf with ikpt,npw=   2     150, make ikpt,npw=  17     150
- newkpt: read input wf with ikpt,npw=   2     150, make ikpt,npw=  18     150
- newkpt: read input wf with ikpt,npw=   1     143, make ikpt,npw=  19     143
- newkpt: read input wf with ikpt,npw=   1     143, make ikpt,npw=  20     143
- newkpt: read input wf with ikpt,npw=   1     143, make ikpt,npw=  21     143
- newkpt: read input wf with ikpt,npw=   1     143, make ikpt,npw=  22     143
- newkpt: read input wf with ikpt,npw=   1     143, make ikpt,npw=  23     143
- newkpt: read input wf with ikpt,npw=   1     143, make ikpt,npw=  24     143
- newkpt: read input wf with ikpt,npw=   1     143, make ikpt,npw=  25     143
- newkpt: read input wf with ikpt,npw=   2     150, make ikpt,npw=  26     150
- newkpt: read input wf with ikpt,npw=   1     143, make ikpt,npw=  27     143
- newkpt: read input wf with ikpt,npw=   1     143, make ikpt,npw=  28     143
- newkpt: read input wf with ikpt,npw=   1     143, make ikpt,npw=  29     143
- newkpt: read input wf with ikpt,npw=   1     143, make ikpt,npw=  30     143
- newkpt: read input wf with ikpt,npw=   1     143, make ikpt,npw=  31     143
- newkpt: read input wf with ikpt,npw=   2     150, make ikpt,npw=  32     150


 ==>  initialize data related to q vector <== 

 The list of irreducible perturbations for this q vector is:
    1)    idir= 1    ipert=   3

================================================================================

--------------------------------------------------------------------------------
 Perturbation wavevector (in red.coord.)   0.000000  0.000000  0.000000
 Perturbation : derivative vs k along direction   1
 The set of symmetries contains only one element for this perturbation.
 symkpt : not enough symmetry to change the number of k points.

--------------------------------------------------------------------------------

-inwffil : will read wavefunctions from disk file t81o_DS1_WFK
- newkpt: read input wf with ikpt,npw=   1     143, make ikpt,npw=   1     143
- newkpt: read input wf with ikpt,npw=   1     143, make ikpt,npw=   2     143
- newkpt: read input wf with ikpt,npw=   1     143, make ikpt,npw=   3     143
- newkpt: read input wf with ikpt,npw=   2     150, make ikpt,npw=   4     150
- newkpt: read input wf with ikpt,npw=   1     143, make ikpt,npw=   5     143
- newkpt: read input wf with ikpt,npw=   1     143, make ikpt,npw=   6     143
- newkpt: read input wf with ikpt,npw=   1     143, make ikpt,npw=   7     143
- newkpt: read input wf with ikpt,npw=   1     143, make ikpt,npw=   8     143
- newkpt: read input wf with ikpt,npw=   1     143, make ikpt,npw=   9     143
- newkpt: read input wf with ikpt,npw=   2     150, make ikpt,npw=  10     150
- newkpt: read input wf with ikpt,npw=   1     143, make ikpt,npw=  11     143
- newkpt: read input wf with ikpt,npw=   1     143, make ikpt,npw=  12     143
- newkpt: read input wf with ikpt,npw=   2     150, make ikpt,npw=  13     150
- newkpt: read input wf with ikpt,npw=   2     150, make ikpt,npw=  14     150
- newkpt: read input wf with ikpt,npw=   1     143, make ikpt,npw=  15     143
- newkpt: read input wf with ikpt,npw=   1     143, make ikpt,npw=  16     143
- newkpt: read input wf with ikpt,npw=   2     150, make ikpt,npw=  17     150
- newkpt: read input wf with ikpt,npw=   2     150, make ikpt,npw=  18     150
- newkpt: read input wf with ikpt,npw=   1     143, make ikpt,npw=  19     143
- newkpt: read input wf with ikpt,npw=   1     143, make ikpt,npw=  20     143
- newkpt: read input wf with ikpt,npw=   1     143, make ikpt,npw=  21     143
- newkpt: read input wf with ikpt,npw=   1     143, make ikpt,npw=  22     143
- newkpt: read input wf with ikpt,npw=   1     143, make ikpt,npw=  23     143
- newkpt: read input wf with ikpt,npw=   1     143, make ikpt,npw=  24     143
- newkpt: read input wf with ikpt,npw=   1     143, make ikpt,npw=  25     143
- newkpt: read input wf with ikpt,npw=   2     150, make ikpt,npw=  26     150
- newkpt: read input wf with ikpt,npw=   1     143, make ikpt,npw=  27     143
- newkpt: read input wf with ikpt,npw=   1     143, make ikpt,npw=  28     143
- newkpt: read input wf with ikpt,npw=   1     143, make ikpt,npw=  29     143
- newkpt: read input wf with ikpt,npw=   1     143, make ikpt,npw=  30     143
- newkpt: read input wf with ikpt,npw=   1     143, make ikpt,npw=  31     143
- newkpt: read input wf with ikpt,npw=   2     150, make ikpt,npw=  32     150

--------------------------------------------------------------------------------

-inwffil : will read wavefunctions from disk file t81o_DS1_WFK
- newkpt: read input wf with ikpt,npw=   1     143, make ikpt,npw=   1     143
- newkpt: read input wf with ikpt,npw=   1     143, make ikpt,npw=   2     143
- newkpt: read input wf with ikpt,npw=   1     143, make ikpt,npw=   3     143
- newkpt: read input wf with ikpt,npw=   2     150, make ikpt,npw=   4     150
- newkpt: read input wf with ikpt,npw=   1     143, make ikpt,npw=   5     143
- newkpt: read input wf with ikpt,npw=   1     143, make ikpt,npw=   6     143
- newkpt: read input wf with ikpt,npw=   1     143, make ikpt,npw=   7     143
- newkpt: read input wf with ikpt,npw=   1     143, make ikpt,npw=   8     143
- newkpt: read input wf with ikpt,npw=   1     143, make ikpt,npw=   9     143
- newkpt: read input wf with ikpt,npw=   2     150, make ikpt,npw=  10     150
- newkpt: read input wf with ikpt,npw=   1     143, make ikpt,npw=  11     143
- newkpt: read input wf with ikpt,npw=   1     143, make ikpt,npw=  12     143
- newkpt: read input wf with ikpt,npw=   2     150, make ikpt,npw=  13     150
- newkpt: read input wf with ikpt,npw=   2     150, make ikpt,npw=  14     150
- newkpt: read input wf with ikpt,npw=   1     143, make ikpt,npw=  15     143
- newkpt: read input wf with ikpt,npw=   1     143, make ikpt,npw=  16     143
- newkpt: read input wf with ikpt,npw=   2     150, make ikpt,npw=  17     150
- newkpt: read input wf with ikpt,npw=   2     150, make ikpt,npw=  18     150
- newkpt: read input wf with ikpt,npw=   1     143, make ikpt,npw=  19     143
- newkpt: read input wf with ikpt,npw=   1     143, make ikpt,npw=  20     143
- newkpt: read input wf with ikpt,npw=   1     143, make ikpt,npw=  21     143
- newkpt: read input wf with ikpt,npw=   1     143, make ikpt,npw=  22     143
- newkpt: read input wf with ikpt,npw=   1     143, make ikpt,npw=  23     143
- newkpt: read input wf with ikpt,npw=   1     143, make ikpt,npw=  24     143
- newkpt: read input wf with ikpt,npw=   1     143, make ikpt,npw=  25     143
- newkpt: read input wf with ikpt,npw=   2     150, make ikpt,npw=  26     150
- newkpt: read input wf with ikpt,npw=   1     143, make ikpt,npw=  27     143
- newkpt: read input wf with ikpt,npw=   1     143, make ikpt,npw=  28     143
- newkpt: read input wf with ikpt,npw=   1     143, make ikpt,npw=  29     143
- newkpt: read input wf with ikpt,npw=   1     143, make ikpt,npw=  30     143
- newkpt: read input wf with ikpt,npw=   1     143, make ikpt,npw=  31     143
- newkpt: read input wf with ikpt,npw=   2     150, make ikpt,npw=  32     150

 Initialisation of the first-order wave-functions :
  ireadwf=   0
P newkpt: treating      4 bands with npw=     143 for ikpt=   1 by node    0
P newkpt: treating      4 bands with npw=     143 for ikpt=   2 by node    0
P newkpt: treating      4 bands with npw=     143 for ikpt=   3 by node    0
P newkpt: treating      4 bands with npw=     150 for ikpt=   4 by node    0
P newkpt: treating      4 bands with npw=     143 for ikpt=   5 by node    0
P newkpt: treating      4 bands with npw=     143 for ikpt=   6 by node    0
P newkpt: treating      4 bands with npw=     143 for ikpt=   7 by node    0
P newkpt: treating      4 bands with npw=     143 for ikpt=   8 by node    0
P newkpt: treating      4 bands with npw=     143 for ikpt=   9 by node    0
P newkpt: treating      4 bands with npw=     150 for ikpt=  10 by node    0
P newkpt: treating      4 bands with npw=     143 for ikpt=  11 by node    0
P newkpt: treating      4 bands with npw=     143 for ikpt=  12 by node    0
P newkpt: treating      4 bands with npw=     150 for ikpt=  13 by node    0
P newkpt: treating      4 bands with npw=     150 for ikpt=  14 by node    0
P newkpt: treating      4 bands with npw=     143 for ikpt=  15 by node    0
P newkpt: treating      4 bands with npw=     143 for ikpt=  16 by node    0
P newkpt: treating      4 bands with npw=     150 for ikpt=  17 by node    0
P newkpt: treating      4 bands with npw=     150 for ikpt=  18 by node    0
P newkpt: treating      4 bands with npw=     143 for ikpt=  19 by node    0
P newkpt: treating      4 bands with npw=     143 for ikpt=  20 by node    0
P newkpt: treating      4 bands with npw=     143 for ikpt=  21 by node    0
P newkpt: treating      4 bands with npw=     143 for ikpt=  22 by node    0
P newkpt: treating      4 bands with npw=     143 for ikpt=  23 by node    0
P newkpt: treating      4 bands with npw=     143 for ikpt=  24 by node    0
P newkpt: treating      4 bands with npw=     143 for ikpt=  25 by node    0
P newkpt: treating      4 bands with npw=     150 for ikpt=  26 by node    0
P newkpt: treating      4 bands with npw=     143 for ikpt=  27 by node    0
P newkpt: treating      4 bands with npw=     143 for ikpt=  28 by node    0
P newkpt: treating      4 bands with npw=     143 for ikpt=  29 by node    0
P newkpt: treating      4 bands with npw=     143 for ikpt=  30 by node    0
P newkpt: treating      4 bands with npw=     143 for ikpt=  31 by node    0
P newkpt: treating      4 bands with npw=     150 for ikpt=  32 by node    0


     iter   2DEtotal(Ha)        deltaE(Ha) residm    vres2
-ETOT  1  -10.720403274927     -1.072E+01 1.869E-02 0.000E+00
 ETOT  2  -10.725645867290     -5.243E-03 2.772E-05 0.000E+00
 ETOT  3  -10.725652453661     -6.586E-06 3.860E-08 0.000E+00
 ETOT  4  -10.725652467043     -1.338E-08 9.735E-11 0.000E+00
 ETOT  5  -10.725652467072     -2.970E-11 2.137E-13 0.000E+00
 ETOT  6  -10.725652467073     -1.208E-13 6.101E-16 0.000E+00
 ETOT  7  -10.725652467072      3.553E-14 1.586E-18 0.000E+00
 ETOT  8  -10.725652467072      1.066E-14 9.192E-21 0.000E+00

 At SCF step    8   max residual=  9.19E-21 < tolwfr=  1.00E-20 =>converged.
================================================================================

 ----iterations are completed or convergence reached----

 Mean square residual over all n,k,spin=   4.3553E-21; max=  9.1920E-21
  -0.2500  0.5000  0.0000    1  5.53518E-21 kpt; spin; max resid(k); each band:
  5.54E-21 5.25E-21 2.12E-21 7.31E-22
   0.5000 -0.2500  0.0000    1  9.19202E-21 kpt; spin; max resid(k); each band:
  9.28E-22 9.19E-21 6.05E-21 1.21E-21
  -0.2500 -0.2500  0.2500    1  8.35676E-21 kpt; spin; max resid(k); each band:
  2.91E-21 5.83E-21 8.36E-21 1.43E-21
  -0.2500  0.0000  0.0000    1  7.27559E-21 kpt; spin; max resid(k); each band:
  2.38E-21 2.75E-21 7.28E-21 7.28E-21
   0.5000  0.2500  0.0000    1  9.19202E-21 kpt; spin; max resid(k); each band:
  9.28E-22 9.19E-21 6.05E-21 1.21E-21
  -0.2500  0.2500  0.2500    1  9.19202E-21 kpt; spin; max resid(k); each band:
  9.28E-22 9.19E-21 6.05E-21 1.21E-21
   0.2500  0.5000  0.0000    1  5.53518E-21 kpt; spin; max resid(k); each band:
  5.54E-21 5.25E-21 2.12E-21 7.31E-22
   0.5000  0.5000  0.2500    1  8.35676E-21 kpt; spin; max resid(k); each band:
  2.91E-21 5.83E-21 8.36E-21 1.43E-21
  -0.2500  0.5000  0.5000    1  5.53518E-21 kpt; spin; max resid(k); each band:
  5.54E-21 5.25E-21 2.12E-21 7.31E-22
   0.0000 -0.2500  0.0000    1  6.24612E-21 kpt; spin; max resid(k); each band:
  6.25E-21 3.21E-21 1.12E-21 6.08E-21
   0.2500 -0.2500  0.2500    1  8.35675E-21 kpt; spin; max resid(k); each band:
  2.91E-21 5.83E-21 8.36E-21 1.43E-21
   0.5000 -0.2500  0.5000    1  8.35675E-21 kpt; spin; max resid(k); each band:
  2.91E-21 5.83E-21 8.36E-21 1.43E-21
  -0.2500 -0.2500 -0.2500    1  6.24612E-21 kpt; spin; max resid(k); each band:
  6.25E-21 3.21E-21 1.61E-21 4.48E-21
   0.2500  0.0000  0.0000    1  7.27559E-21 kpt; spin; max resid(k); each band:
  2.38E-21 2.75E-21 7.28E-21 7.28E-21
   0.5000  0.0000  0.2500    1  9.19202E-21 kpt; spin; max resid(k); each band:
  9.28E-22 9.19E-21 6.05E-21 1.21E-21
  -0.2500  0.0000  0.5000    1  5.53518E-21 kpt; spin; max resid(k); each band:
  5.54E-21 5.25E-21 2.12E-21 7.31E-22
   0.0000  0.2500  0.0000    1  6.24612E-21 kpt; spin; max resid(k); each band:
  6.25E-21 3.21E-21 1.12E-21 6.08E-21
   0.2500  0.2500  0.2500    1  6.24612E-21 kpt; spin; max resid(k); each band:
  6.25E-21 3.21E-21 1.61E-21 4.48E-21
   0.5000  0.2500  0.5000    1  8.35675E-21 kpt; spin; max resid(k); each band:
  2.91E-21 5.83E-21 8.36E-21 1.43E-21
  -0.2500  0.2500 -0.2500    1  8.35676E-21 kpt; spin; max resid(k); each band:
  2.91E-21 5.83E-21 8.36E-21 1.43E-21
   0.0000  0.5000  0.2500    1  8.35676E-21 kpt; spin; max resid(k); each band:
  2.91E-21 5.83E-21 8.36E-21 1.43E-21
   0.2500  0.5000  0.5000    1  5.53518E-21 kpt; spin; max resid(k); each band:
  5.54E-21 5.25E-21 2.12E-21 7.31E-22
   0.5000  0.5000 -0.2500    1  8.35676E-21 kpt; spin; max resid(k); each band:
  2.91E-21 5.83E-21 8.36E-21 1.43E-21
   0.0000 -0.2500  0.5000    1  8.35676E-21 kpt; spin; max resid(k); each band:
  2.91E-21 5.83E-21 8.36E-21 1.43E-21
   0.2500 -0.2500 -0.2500    1  9.19201E-21 kpt; spin; max resid(k); each band:
  9.28E-22 9.19E-21 6.05E-21 1.21E-21
   0.0000  0.0000  0.2500    1  8.42398E-21 kpt; spin; max resid(k); each band:
  6.25E-21 3.21E-21 8.42E-21 4.74E-21
   0.2500  0.0000  0.5000    1  5.53518E-21 kpt; spin; max resid(k); each band:
  5.54E-21 5.25E-21 2.12E-21 7.31E-22
   0.5000  0.0000 -0.2500    1  9.19201E-21 kpt; spin; max resid(k); each band:
  9.28E-22 9.19E-21 6.05E-21 1.21E-21
   0.0000  0.2500  0.5000    1  8.35675E-21 kpt; spin; max resid(k); each band:
  2.91E-21 5.83E-21 8.36E-21 1.43E-21
   0.2500  0.2500 -0.2500    1  8.35676E-21 kpt; spin; max resid(k); each band:
  2.91E-21 5.83E-21 8.36E-21 1.43E-21
   0.0000  0.5000 -0.2500    1  8.35675E-21 kpt; spin; max resid(k); each band:
  2.91E-21 5.83E-21 8.36E-21 1.43E-21
   0.0000  0.0000 -0.2500    1  8.42383E-21 kpt; spin; max resid(k); each band:
  6.25E-21 3.21E-21 8.42E-21 4.74E-21
 loper3 : ek2=    1.7997143397E+01
          f-sum rule ratio=    1.2746397923E+00
 Expectation of eigenvalue derivatives (hartree) for nkpt=  32  k points:
  (in case of degenerate eigenvalues, averaged derivative)
 kpt#   1, nband=  4, wtk=  0.03125, kpt= -0.2500  0.5000  0.0000 (reduced coord)
  -0.12357  -0.04951   0.22291   0.18009
 kpt#   2, nband=  4, wtk=  0.03125, kpt=  0.5000 -0.2500  0.0000 (reduced coord)
  -0.25857   0.34723   0.20642  -0.04977
 kpt#   3, nband=  4, wtk=  0.03125, kpt= -0.2500 -0.2500  0.2500 (reduced coord)
  -0.19107   0.14886   0.21466   0.06516
 kpt#   4, nband=  4, wtk=  0.03125, kpt= -0.2500  0.0000  0.0000 (reduced coord)
  -0.22748   0.66195   0.12792   0.12792
 kpt#   5, nband=  4, wtk=  0.03125, kpt=  0.5000  0.2500  0.0000 (reduced coord)
   0.25857  -0.34723  -0.20642   0.04977
 kpt#   6, nband=  4, wtk=  0.03125, kpt= -0.2500  0.2500  0.2500 (reduced coord)
  -0.25857   0.34723   0.20642  -0.04977
 kpt#   7, nband=  4, wtk=  0.03125, kpt=  0.2500  0.5000  0.0000 (reduced coord)
   0.12357   0.04951  -0.22291  -0.18009
 kpt#   8, nband=  4, wtk=  0.03125, kpt=  0.5000  0.5000  0.2500 (reduced coord)
   0.19107  -0.14886  -0.21466  -0.06516
 kpt#   9, nband=  4, wtk=  0.03125, kpt= -0.2500  0.5000  0.5000 (reduced coord)
   0.12357   0.04951  -0.22291  -0.18009
 kpt#  10, nband=  4, wtk=  0.03125, kpt=  0.0000 -0.2500  0.0000 (reduced coord)
   0.07583  -0.22065  -0.04264  -0.04264
 kpt#  11, nband=  4, wtk=  0.03125, kpt=  0.2500 -0.2500  0.2500 (reduced coord)
   0.19107  -0.14886  -0.21466  -0.06516
 kpt#  12, nband=  4, wtk=  0.03125, kpt=  0.5000 -0.2500  0.5000 (reduced coord)
  -0.19107   0.14886   0.21466   0.06516
 kpt#  13, nband=  4, wtk=  0.03125, kpt= -0.2500 -0.2500 -0.2500 (reduced coord)
  -0.07583   0.22065   0.04264   0.04264
 kpt#  14, nband=  4, wtk=  0.03125, kpt=  0.2500  0.0000  0.0000 (reduced coord)
   0.22748  -0.66195  -0.12792  -0.12792
 kpt#  15, nband=  4, wtk=  0.03125, kpt=  0.5000  0.0000  0.2500 (reduced coord)
   0.25857  -0.34723  -0.20642   0.04977
 kpt#  16, nband=  4, wtk=  0.03125, kpt= -0.2500  0.0000  0.5000 (reduced coord)
  -0.12357  -0.04951   0.22291   0.18009
 kpt#  17, nband=  4, wtk=  0.03125, kpt=  0.0000  0.2500  0.0000 (reduced coord)
  -0.07583   0.22065   0.04264   0.04264
 kpt#  18, nband=  4, wtk=  0.03125, kpt=  0.2500  0.2500  0.2500 (reduced coord)
   0.07583  -0.22065  -0.04264  -0.04264
 kpt#  19, nband=  4, wtk=  0.03125, kpt=  0.5000  0.2500  0.5000 (reduced coord)
   0.19107  -0.14886  -0.21466  -0.06516
 kpt#  20, nband=  4, wtk=  0.03125, kpt= -0.2500  0.2500 -0.2500 (reduced coord)
  -0.19107   0.14886   0.21466   0.06516
 kpt#  21, nband=  4, wtk=  0.03125, kpt=  0.0000  0.5000  0.2500 (reduced coord)
  -0.19107   0.14886   0.21466   0.06516
 kpt#  22, nband=  4, wtk=  0.03125, kpt=  0.2500  0.5000  0.5000 (reduced coord)
  -0.12357  -0.04951   0.22291   0.18009
 kpt#  23, nband=  4, wtk=  0.03125, kpt=  0.5000  0.5000 -0.2500 (reduced coord)
  -0.19107   0.14886   0.21466   0.06516
 kpt#  24, nband=  4, wtk=  0.03125, kpt=  0.0000 -0.2500  0.5000 (reduced coord)
   0.19107  -0.14886  -0.21466  -0.06516
 kpt#  25, nband=  4, wtk=  0.03125, kpt=  0.2500 -0.2500 -0.2500 (reduced coord)
   0.25857  -0.34723  -0.20642   0.04977
 kpt#  26, nband=  4, wtk=  0.03125, kpt=  0.0000  0.0000  0.2500 (reduced coord)
  -0.07583   0.22065   0.04264   0.04264
 kpt#  27, nband=  4, wtk=  0.03125, kpt=  0.2500  0.0000  0.5000 (reduced coord)
   0.12357   0.04951  -0.22291  -0.18009
 kpt#  28, nband=  4, wtk=  0.03125, kpt=  0.5000  0.0000 -0.2500 (reduced coord)
  -0.25857   0.34723   0.20642  -0.04977
 kpt#  29, nband=  4, wtk=  0.03125, kpt=  0.0000  0.2500  0.5000 (reduced coord)
  -0.19107   0.14886   0.21466   0.06516
 kpt#  30, nband=  4, wtk=  0.03125, kpt=  0.2500  0.2500 -0.2500 (reduced coord)
   0.19107  -0.14886  -0.21466  -0.06516
 kpt#  31, nband=  4, wtk=  0.03125, kpt=  0.0000  0.5000 -0.2500 (reduced coord)
   0.19107  -0.14886  -0.21466  -0.06516
 kpt#  32, nband=  4, wtk=  0.03125, kpt=  0.0000  0.0000 -0.2500 (reduced coord)
   0.07583  -0.22065  -0.04264  -0.04264

 Eight components of 2nd-order total energy (hartree) are
 1,2,3: 0th-order hamiltonian combined with 1st-order wavefunctions
     kin0=   3.96347179E+01 eigvalue=  -1.09894057E+01  local=  -3.68960772E+01
 4,5,6: 1st-order hamiltonian combined with 1st and 0th-order wfs
     kin1=  -2.29398751E+01  Hartree=   0.00000000E+00     xc=   0.00000000E+00
 7,8,9: eventually, occupation + non-local contributions
    edocc=   0.00000000E+00     enl0=   1.89764174E+01   enl1=   1.48857019E+00
 1-9 gives the relaxation energy (to be shifted if some occ is /=2.0)
   erelax=  -1.07256525E+01
  No Ewald or frozen-wf contrib.: the relaxation energy is the total one
 2DEtotal=   -0.1072565247E+02 Ha. Also 2DEtotal=   -0.291859846430E+03 eV
    (  non-var. 2DEtotal :   -1.0725652467E+01 Ha)
================================================================================

 ---- first-order wavefunction calculations are completed ----


 Total localisation tensor (bohr^2) in cartesian coordinates
  WARNING : still subject to testing - especially symmetries.
      direction              matrix element
   alpha     beta       real part   imaginary part
     1        1       0.0000000000    0.0000000000
     1        2       0.0000000000    0.0000000000
     1        3       0.0000000000    0.0000000000
     2        1       0.0000000000    0.0000000000
     2        2       2.9718903335    0.0000000000
     2        3       2.9718903335    0.0000000000
     3        1       0.0000000000    0.0000000000
     3        2       2.9718903335    0.0000000000
     3        3       2.9718903335    0.0000000000

 WARNING : Localization tensor calculation (this does not apply to other properties).
  Not all d/dk perturbations were computed. So the localization tensor in reciprocal space is incomplete,
  and transformation to cartesian coordinates may be wrong.

 respfn : d/dk was computed, but no 2DTE, so no DDB output.

== END DATASET(S) ==============================================================
================================================================================
  
 -outvars: echo values of variables after computation  --------
            acell      1.0261212902E+01  1.0261212902E+01  1.0261212902E+01 Bohr
              amu      2.80855000E+01
             ecut      5.00000000E+00 Hartree
           etotal1    -8.8494541572E+00
           etotal2    -1.0725652467E+01
            fcart1    -0.0000000000E+00 -0.0000000000E+00 -0.0000000000E+00
                      -0.0000000000E+00 -0.0000000000E+00 -0.0000000000E+00
-          fftalg         112
           getwfk1          0
           getwfk2          1
             iscf1          7
             iscf2         -3
           jdtset        1    2
              kpt1    -2.50000000E-01  5.00000000E-01  0.00000000E+00
                      -2.50000000E-01  0.00000000E+00  0.00000000E+00
              kpt2    -2.50000000E-01  5.00000000E-01  0.00000000E+00
                       5.00000000E-01 -2.50000000E-01  0.00000000E+00
                      -2.50000000E-01 -2.50000000E-01  2.50000000E-01
                      -2.50000000E-01  0.00000000E+00  0.00000000E+00
                       5.00000000E-01  2.50000000E-01  0.00000000E+00
                      -2.50000000E-01  2.50000000E-01  2.50000000E-01
                       2.50000000E-01  5.00000000E-01  0.00000000E+00
                       5.00000000E-01  5.00000000E-01  2.50000000E-01
                      -2.50000000E-01  5.00000000E-01  5.00000000E-01
                       0.00000000E+00 -2.50000000E-01  0.00000000E+00
                       2.50000000E-01 -2.50000000E-01  2.50000000E-01
                       5.00000000E-01 -2.50000000E-01  5.00000000E-01
                      -2.50000000E-01 -2.50000000E-01 -2.50000000E-01
                       2.50000000E-01  0.00000000E+00  0.00000000E+00
                       5.00000000E-01  0.00000000E+00  2.50000000E-01
                      -2.50000000E-01  0.00000000E+00  5.00000000E-01
                       0.00000000E+00  2.50000000E-01  0.00000000E+00
                       2.50000000E-01  2.50000000E-01  2.50000000E-01
                       5.00000000E-01  2.50000000E-01  5.00000000E-01
                      -2.50000000E-01  2.50000000E-01 -2.50000000E-01
                       0.00000000E+00  5.00000000E-01  2.50000000E-01
                       2.50000000E-01  5.00000000E-01  5.00000000E-01
                       5.00000000E-01  5.00000000E-01 -2.50000000E-01
                       0.00000000E+00 -2.50000000E-01  5.00000000E-01
                       2.50000000E-01 -2.50000000E-01 -2.50000000E-01
                       0.00000000E+00  0.00000000E+00  2.50000000E-01
                       2.50000000E-01  0.00000000E+00  5.00000000E-01
                       5.00000000E-01  0.00000000E+00 -2.50000000E-01
                       0.00000000E+00  2.50000000E-01  5.00000000E-01
                       2.50000000E-01  2.50000000E-01 -2.50000000E-01
                       0.00000000E+00  5.00000000E-01 -2.50000000E-01
                       0.00000000E+00  0.00000000E+00 -2.50000000E-01
           kptopt1          1
           kptopt2          3
         kptrlatt        2   -2    2     -2    2    2     -2   -2    2
          kptrlen      2.05224258E+01
P           mkmem1          2
P           mkmem2         32
P          mkqmem1          2
P          mkqmem2         32
P          mk1mem1          2
P          mk1mem2         32
            natom           2
            nband1          4
            nband2          4
           ndtset           2
            ngfft          16      16      16
             nkpt1          2
             nkpt2         32
             nqpt1          0
             nqpt2          1
            nstep          50
             nsym          48
           ntypat           1
              occ1     2.000000  2.000000  2.000000  2.000000
              occ2     2.000000  2.000000  2.000000  2.000000
        optdriver1          0
        optdriver2          1
           prtden           0
           prteig           0
            rfdir1          0       0       0
            rfdir2          1       0       0
           rfelfd1          0
           rfelfd2          2
            rprim      0.0000000000E+00  5.0000000000E-01  5.0000000000E-01
                       5.0000000000E-01  0.0000000000E+00  5.0000000000E-01
                       5.0000000000E-01  5.0000000000E-01  0.0000000000E+00
           shiftk      5.00000000E-01  5.00000000E-01  5.00000000E-01
          spgroup         227
           strten1     1.5675162198E-04  1.5675162198E-04  1.5675162198E-04
                       0.0000000000E+00  0.0000000000E+00  0.0000000000E+00
           symrel      1  0  0   0  1  0   0  0  1      -1  0  0   0 -1  0   0  0 -1
                       0 -1  1   0 -1  0   1 -1  0       0  1 -1   0  1  0  -1  1  0
                      -1  0  0  -1  0  1  -1  1  0       1  0  0   1  0 -1   1 -1  0
                       0  1 -1   1  0 -1   0  0 -1       0 -1  1  -1  0  1   0  0  1
                      -1  0  0  -1  1  0  -1  0  1       1  0  0   1 -1  0   1  0 -1
                       0 -1  1   1 -1  0   0 -1  0       0  1 -1  -1  1  0   0  1  0
                       1  0  0   0  0  1   0  1  0      -1  0  0   0  0 -1   0 -1  0
                       0  1 -1   0  0 -1   1  0 -1       0 -1  1   0  0  1  -1  0  1
                      -1  0  1  -1  1  0  -1  0  0       1  0 -1   1 -1  0   1  0  0
                       0 -1  0   1 -1  0   0 -1  1       0  1  0  -1  1  0   0  1 -1
                       1  0 -1   0  0 -1   0  1 -1      -1  0  1   0  0  1   0 -1  1
                       0  1  0   0  0  1   1  0  0       0 -1  0   0  0 -1  -1  0  0
                       1  0 -1   0  1 -1   0  0 -1      -1  0  1   0 -1  1   0  0  1
                       0 -1  0   0 -1  1   1 -1  0       0  1  0   0  1 -1  -1  1  0
                      -1  0  1  -1  0  0  -1  1  0       1  0 -1   1  0  0   1 -1  0
                       0  1  0   1  0  0   0  0  1       0 -1  0  -1  0  0   0  0 -1
                       0  0 -1   0  1 -1   1  0 -1       0  0  1   0 -1  1  -1  0  1
                       1 -1  0   0 -1  1   0 -1  0      -1  1  0   0  1 -1   0  1  0
                       0  0  1   1  0  0   0  1  0       0  0 -1  -1  0  0   0 -1  0
                      -1  1  0  -1  0  0  -1  0  1       1 -1  0   1  0  0   1  0 -1
                       0  0  1   0  1  0   1  0  0       0  0 -1   0 -1  0  -1  0  0
                       1 -1  0   0 -1  0   0 -1  1      -1  1  0   0  1  0   0  1 -1
                       0  0 -1   1  0 -1   0  1 -1       0  0  1  -1  0  1   0 -1  1
                      -1  1  0  -1  0  1  -1  0  0       1 -1  0   1  0 -1   1  0  0
            tnons      0.0000000  0.0000000  0.0000000     0.2500000  0.2500000  0.2500000
                       0.0000000  0.0000000  0.0000000     0.2500000  0.2500000  0.2500000
                       0.0000000  0.0000000  0.0000000     0.2500000  0.2500000  0.2500000
                       0.0000000  0.0000000  0.0000000     0.2500000  0.2500000  0.2500000
                       0.0000000  0.0000000  0.0000000     0.2500000  0.2500000  0.2500000
                       0.0000000  0.0000000  0.0000000     0.2500000  0.2500000  0.2500000
                       0.0000000  0.0000000  0.0000000     0.2500000  0.2500000  0.2500000
                       0.0000000  0.0000000  0.0000000     0.2500000  0.2500000  0.2500000
                       0.0000000  0.0000000  0.0000000     0.2500000  0.2500000  0.2500000
                       0.0000000  0.0000000  0.0000000     0.2500000  0.2500000  0.2500000
                       0.0000000  0.0000000  0.0000000     0.2500000  0.2500000  0.2500000
                       0.0000000  0.0000000  0.0000000     0.2500000  0.2500000  0.2500000
                       0.0000000  0.0000000  0.0000000     0.2500000  0.2500000  0.2500000
                       0.0000000  0.0000000  0.0000000     0.2500000  0.2500000  0.2500000
                       0.0000000  0.0000000  0.0000000     0.2500000  0.2500000  0.2500000
                       0.0000000  0.0000000  0.0000000     0.2500000  0.2500000  0.2500000
                       0.0000000  0.0000000  0.0000000     0.2500000  0.2500000  0.2500000
                       0.0000000  0.0000000  0.0000000     0.2500000  0.2500000  0.2500000
                       0.0000000  0.0000000  0.0000000     0.2500000  0.2500000  0.2500000
                       0.0000000  0.0000000  0.0000000     0.2500000  0.2500000  0.2500000
                       0.0000000  0.0000000  0.0000000     0.2500000  0.2500000  0.2500000
                       0.0000000  0.0000000  0.0000000     0.2500000  0.2500000  0.2500000
                       0.0000000  0.0000000  0.0000000     0.2500000  0.2500000  0.2500000
                       0.0000000  0.0000000  0.0000000     0.2500000  0.2500000  0.2500000
           tolvrs1     1.00000000E-18
           tolvrs2     0.00000000E+00
           tolwfr1     0.00000000E+00
           tolwfr2     1.00000000E-20
            typat      1  1
              wtk1       0.75000    0.25000
              wtk2       0.03125    0.03125    0.03125    0.03125    0.03125    0.03125
                         0.03125    0.03125    0.03125    0.03125    0.03125    0.03125
                         0.03125    0.03125    0.03125    0.03125    0.03125    0.03125
                         0.03125    0.03125    0.03125    0.03125    0.03125    0.03125
                         0.03125    0.03125    0.03125    0.03125    0.03125    0.03125
                         0.03125    0.03125
           xangst      0.0000000000E+00  0.0000000000E+00  0.0000000000E+00
                       1.3575000000E+00  1.3575000000E+00  1.3575000000E+00
            xcart      0.0000000000E+00  0.0000000000E+00  0.0000000000E+00
                       2.5653032254E+00  2.5653032254E+00  2.5653032254E+00
             xred      0.0000000000E+00  0.0000000000E+00  0.0000000000E+00
                       2.5000000000E-01  2.5000000000E-01  2.5000000000E-01
            znucl       14.00000

================================================================================


- Timing analysis has been suppressed with timopt=0



================================================================================

 Suggested references for the acknowledgment of ABINIT usage.

 The users of ABINIT have little formal obligations with respect to the ABINIT group
 (those specified in the GNU General Public License, http://www.gnu.org/copyleft/gpl.txt).
 However, it is common practice in the scientific literature,
 to acknowledge the efforts of people that have made the research possible.
 In this spirit, please find below suggested citations of work written by ABINIT developers,
 corresponding to implementations inside of ABINIT that you have used in the present run.
 Note also that it will be of great value to readers of publications presenting these results,
 to read papers enabling them to understand the theoretical formalism and details
 of the ABINIT implementation.
 For information on why they are suggested, see also http://www.abinit.org/about/?text=acknowledgments.

 [1] First-principles responses of solids to atomic displacements and homogeneous electric fields:,
 implementation of a conjugate-gradient algorithm. X. Gonze, Phys. Rev. B55, 10337 (1997).
 Comment : Non-vanishing rfphon and/or rfelfd, in the norm-conserving case.

 [2] Dynamical matrices, Born effective charges, dielectric permittivity tensors, and ,
 interatomic force constants from density-functional perturbation theory,
 X. Gonze and C. Lee, Phys. Rev. B55, 10355 (1997).
 Comment : Non-vanishing rfphon and/or rfelfd, in the norm-conserving case.

 [3] ABINIT : First-principles approach of materials and nanosystem properties.
 X. Gonze, B. Amadon, P.-M. Anglade, J.-M. Beuken, F. Bottin, P. Boulanger, F. Bruneval,
 D. Caliste, R. Caracas, M. Cote, T. Deutsch, L. Genovese, Ph. Ghosez, M. Giantomassi
 S. Goedecker, D.R. Hamann, P. Hermet, F. Jollet, G. Jomard, S. Leroux, M. Mancini, S. Mazevet,
 M.J.T. Oliveira, G. Onida, Y. Pouillon, T. Rangel, G.-M. Rignanese, D. Sangalli, R. Shaltaf,
 M. Torrent, M.J. Verstraete, G. Zerah, J.W. Zwanziger
 Computer Phys. Comm. 180, 2582-2615 (2009).
 Comment : the third generic paper describing the ABINIT project.
 Note that a version of this paper, that is not formatted for Computer Phys. Comm. 
 is available at http://www.abinit.org/about/ABINIT_CPC_v10.pdf .
 The licence allows the authors to put it on the Web.

 [4] A brief introduction to the ABINIT software package.
 X. Gonze, G.-M. Rignanese, M. Verstraete, J.-M. Beuken, Y. Pouillon, R. Caracas, F. Jollet,
 M. Torrent, G. Zerah, M. Mikami, Ph. Ghosez, M. Veithen, J.-Y. Raty, V. Olevano, F. Bruneval,
 L. Reining, R. Godby, G. Onida, D.R. Hamann, and D.C. Allan.
 Z. Kristallogr. 220, 558-562 (2005).
 Comment : the second generic paper describing the ABINIT project. Note that this paper
 should be cited especially if you are using the GW part of ABINIT, as several authors
 of this part are not in the list of authors of the first or third paper.
 The .pdf of the latter paper is available at http://www.abinit.org/about/zfk_0505-06_558-562.pdf.
 Note that it should not redistributed (Copyright by Oldenburg Wissenshaftverlag,
 the licence allows the authors to put it on the Web).


 And optionally :

 [5] First-principles computation of material properties : the ABINIT software project. 
 X. Gonze, J.-M. Beuken, R. Caracas, F. Detraux, M. Fuchs, G.-M. Rignanese, L. Sindic,
 M. Verstraete, G. Zerah, F. Jollet, M. Torrent, A. Roy, M. Mikami, Ph. Ghosez, J.-Y. Raty, D.C. Allan.
 Computational Materials Science 25, 478-492 (2002). http://dx.doi.org/10.1016/S0927-0256(02)00325-7
 Comment : the original paper describing the ABINIT project.
-
- Proc.   0 individual time (sec): cpu=          0.9  wall=          0.9

================================================================================

 Calculation completed.
.Delivered   14 WARNINGs and   0 COMMENTs to log file.
+Overall time at end (sec) : cpu=          0.9  wall=          0.9
