
.Version 7.10.4 of ABINIT 
.(MPI version, prepared for a x86_64_linux_gnu4.7 computer) 

.Copyright (C) 1998-2014 ABINIT group . 
 ABINIT comes with ABSOLUTELY NO WARRANTY.
 It is free software, and you are welcome to redistribute it
 under certain conditions (GNU General Public License,
 see ~abinit/COPYING or http://www.gnu.org/copyleft/gpl.txt).

 ABINIT is a project of the Universite Catholique de Louvain,
 Corning Inc. and other collaborators, see ~abinit/doc/developers/contributors.txt .
 Please read ~abinit/doc/users/acknowledgments.html for suggested
 acknowledgments of the ABINIT effort.
 For more information, see http://www.abinit.org .

.Starting date : Sun  8 Mar 2015.
- ( at 18h39 )
  
- input  file    -> t95.in
- output file    -> t95.out
- root for input  files -> t95i
- root for output files -> t95o


 DATASET    1 : space group Fm -3 m (#225); Bravais cF (face-center cubic)
================================================================================
 Values of the parameters that define the memory need for DATASET  1.
   intxc =         0  ionmov =         0    iscf =         7 xclevel =         1
  lmnmax =         2   lnmax =         2   mband =        14  mffmem =         1
P  mgfft =         8   mkmem =         8 mpssoang=         3     mpw =        11
  mqgrid =      3001   natom =         1    nfft =       512    nkpt =         8
  nloalg =         4  nspden =         2 nspinor =         1  nsppol =         2
    nsym =        48  n1xccc =      2501  ntypat =         1  occopt =         7
================================================================================
P This job should need less than                       1.612 Mbytes of memory.
  Rough estimation (10% accuracy) of disk space for files :
_ WF disk file :      0.040 Mbytes ; DEN or POT disk file :      0.010 Mbytes.
================================================================================


 DATASET    2 : space group Fm -3 m (#225); Bravais cF (face-center cubic)
================================================================================
 Values of the parameters that define the memory need for DATASET  2 (RF).
   intxc =         0    iscf =         7 xclevel =         1  lmnmax =         2
   lnmax =         2   mband =        14  mffmem =         1   mgfft =         8
P  mkmem =         8  mkqmem =         8  mk1mem =         8 mpssoang=         3
     mpw =        22  mqgrid =      3001   natom =         1    nfft =       512
    nkpt =         8  nloalg =         4  nspden =         2 nspinor =         1
  nsppol =         2    nsym =        48  n1xccc =      2501  ntypat =         1
  occopt =         7
================================================================================
P This job should need less than                       1.731 Mbytes of memory.
  Rough estimation (10% accuracy) of disk space for files :
_ WF disk file :      0.077 Mbytes ; DEN or POT disk file :      0.010 Mbytes.
================================================================================


 DATASET    3 : space group Fm -3 m (#225); Bravais cF (face-center cubic)
================================================================================
 Values of the parameters that define the memory need for DATASET  3 (RF).
   intxc =         0    iscf =         7 xclevel =         1  lmnmax =         2
   lnmax =         2   mband =        14  mffmem =         1   mgfft =         8
P  mkmem =         8  mkqmem =         8  mk1mem =         8 mpssoang=         3
     mpw =        22  mqgrid =      3001   natom =         1    nfft =       512
    nkpt =         8  nloalg =         4  nspden =         2 nspinor =         1
  nsppol =         2    nsym =        48  n1xccc =      2501  ntypat =         1
  occopt =         7
================================================================================
P This job should need less than                       1.731 Mbytes of memory.
  Rough estimation (10% accuracy) of disk space for files :
_ WF disk file :      0.077 Mbytes ; DEN or POT disk file :      0.010 Mbytes.
================================================================================


 DATASET    4 : space group Fm -3 m (#225); Bravais cF (face-center cubic)
================================================================================
 Values of the parameters that define the memory need for DATASET  4 (RF).
   intxc =         0    iscf =         7 xclevel =         1  lmnmax =         2
   lnmax =         2   mband =        14  mffmem =         1   mgfft =         8
P  mkmem =         8  mkqmem =         8  mk1mem =         8 mpssoang=         3
     mpw =        22  mqgrid =      3001   natom =         1    nfft =       512
    nkpt =         8  nloalg =         4  nspden =         2 nspinor =         1
  nsppol =         2    nsym =        48  n1xccc =      2501  ntypat =         1
  occopt =         7
================================================================================
P This job should need less than                       1.731 Mbytes of memory.
  Rough estimation (10% accuracy) of disk space for files :
_ WF disk file :      0.077 Mbytes ; DEN or POT disk file :      0.010 Mbytes.
================================================================================


 DATASET    5 : space group Fm -3 m (#225); Bravais cF (face-center cubic)
================================================================================
 Values of the parameters that define the memory need for DATASET  5 (RF).
   intxc =         0    iscf =         7 xclevel =         1  lmnmax =         2
   lnmax =         2   mband =        14  mffmem =         1   mgfft =         8
P  mkmem =         8  mkqmem =         8  mk1mem =         8 mpssoang=         3
     mpw =        22  mqgrid =      3001   natom =         1    nfft =       512
    nkpt =         8  nloalg =         4  nspden =         2 nspinor =         1
  nsppol =         2    nsym =        48  n1xccc =      2501  ntypat =         1
  occopt =         7
================================================================================
P This job should need less than                       1.772 Mbytes of memory.
  Rough estimation (10% accuracy) of disk space for files :
_ WF disk file :      0.077 Mbytes ; DEN or POT disk file :      0.010 Mbytes.
================================================================================


 DATASET    6 : space group Fm -3 m (#225); Bravais cF (face-center cubic)
================================================================================
 Values of the parameters that define the memory need for DATASET  6 (RF).
   intxc =         0    iscf =         7 xclevel =         1  lmnmax =         2
   lnmax =         2   mband =        14  mffmem =         1   mgfft =         8
P  mkmem =         8  mkqmem =         8  mk1mem =         8 mpssoang=         3
     mpw =        22  mqgrid =      3001   natom =         1    nfft =       512
    nkpt =         8  nloalg =         4  nspden =         2 nspinor =         1
  nsppol =         2    nsym =        48  n1xccc =      2501  ntypat =         1
  occopt =         7
================================================================================
P This job should need less than                       1.772 Mbytes of memory.
  Rough estimation (10% accuracy) of disk space for files :
_ WF disk file :      0.077 Mbytes ; DEN or POT disk file :      0.010 Mbytes.
================================================================================


 DATASET    7 : space group Fm -3 m (#225); Bravais cF (face-center cubic)
================================================================================
 Values of the parameters that define the memory need for DATASET  7 (RF).
   intxc =         0    iscf =         7 xclevel =         1  lmnmax =         2
   lnmax =         2   mband =        14  mffmem =         1   mgfft =         8
P  mkmem =         8  mkqmem =         8  mk1mem =         8 mpssoang=         3
     mpw =        22  mqgrid =      3001   natom =         1    nfft =       512
    nkpt =         8  nloalg =         4  nspden =         2 nspinor =         1
  nsppol =         2    nsym =        48  n1xccc =      2501  ntypat =         1
  occopt =         7
================================================================================
P This job should need less than                       1.772 Mbytes of memory.
  Rough estimation (10% accuracy) of disk space for files :
_ WF disk file :      0.077 Mbytes ; DEN or POT disk file :      0.010 Mbytes.
================================================================================


 DATASET    8 : space group Fm -3 m (#225); Bravais cF (face-center cubic)
================================================================================
 Values of the parameters that define the memory need for DATASET  8 (RF).
   intxc =         0    iscf =         7 xclevel =         1  lmnmax =         2
   lnmax =         2   mband =        14  mffmem =         1   mgfft =         8
P  mkmem =         8  mkqmem =         8  mk1mem =         8 mpssoang=         3
     mpw =        22  mqgrid =      3001   natom =         1    nfft =       512
    nkpt =         8  nloalg =         4  nspden =         2 nspinor =         1
  nsppol =         2    nsym =        48  n1xccc =      2501  ntypat =         1
  occopt =         7
================================================================================
P This job should need less than                       1.772 Mbytes of memory.
  Rough estimation (10% accuracy) of disk space for files :
_ WF disk file :      0.077 Mbytes ; DEN or POT disk file :      0.010 Mbytes.
================================================================================


 DATASET    9 : space group Fm -3 m (#225); Bravais cF (face-center cubic)
================================================================================
 Values of the parameters that define the memory need for DATASET  9 (RF).
   intxc =         0    iscf =         7 xclevel =         1  lmnmax =         2
   lnmax =         2   mband =        14  mffmem =         1   mgfft =         8
P  mkmem =         8  mkqmem =         8  mk1mem =         8 mpssoang=         3
     mpw =        22  mqgrid =      3001   natom =         1    nfft =       512
    nkpt =         8  nloalg =         4  nspden =         2 nspinor =         1
  nsppol =         2    nsym =        48  n1xccc =      2501  ntypat =         1
  occopt =         7
================================================================================
P This job should need less than                       1.772 Mbytes of memory.
  Rough estimation (10% accuracy) of disk space for files :
_ WF disk file :      0.077 Mbytes ; DEN or POT disk file :      0.010 Mbytes.
================================================================================


 DATASET   10 : space group Fm -3 m (#225); Bravais cF (face-center cubic)
================================================================================
 Values of the parameters that define the memory need for DATASET 10 (RF).
   intxc =         0    iscf =         7 xclevel =         1  lmnmax =         2
   lnmax =         2   mband =        14  mffmem =         1   mgfft =         8
P  mkmem =         8  mkqmem =         8  mk1mem =         8 mpssoang=         3
     mpw =        22  mqgrid =      3001   natom =         1    nfft =       512
    nkpt =         8  nloalg =         4  nspden =         2 nspinor =         1
  nsppol =         2    nsym =        48  n1xccc =      2501  ntypat =         1
  occopt =         7
================================================================================
P This job should need less than                       1.772 Mbytes of memory.
  Rough estimation (10% accuracy) of disk space for files :
_ WF disk file :      0.077 Mbytes ; DEN or POT disk file :      0.010 Mbytes.
================================================================================

--------------------------------------------------------------------------------
------------- Echo of variables that govern the present computation ------------
--------------------------------------------------------------------------------
-
- outvars: echo of selected default values                                      
-   accesswff0 =  0 , fftalg0 =112 , wfoptalg0 =  0
-
- outvars: echo of global parameters not present in the input file              
-  max_nthreads =    0
-
 -outvars: echo values of preprocessed input variables --------
            acell      7.0000000000E+00  7.0000000000E+00  7.0000000000E+00 Bohr
              amu      5.86900000E+01
             ecut      3.00000000E+00 Hartree
-          fftalg         112
           getwfk1          0
           getwfk2          1
           getwfk3          1
           getwfk4          1
           getwfk5          1
           getwfk6          1
           getwfk7          1
           getwfk8          1
           getwfk9          1
           getwfk10         1
           istwfk1       2    3    6    7    4    5    8    9
           istwfk2       1    1    1    1    1    1    1    1
           istwfk3       1    1    1    1    1    1    1    1
           istwfk4       1    1    1    1    1    1    1    1
           istwfk5       1    1    1    1    1    1    1    1
           istwfk6       1    1    1    1    1    1    1    1
           istwfk7       1    1    1    1    1    1    1    1
           istwfk8       1    1    1    1    1    1    1    1
           istwfk9       1    1    1    1    1    1    1    1
           istwfk10      1    1    1    1    1    1    1    1
           jdtset        1    2    3    4    5    6    7    8    9   10
              kpt      0.00000000E+00  0.00000000E+00  0.00000000E+00
                       5.00000000E-01  0.00000000E+00  0.00000000E+00
                       0.00000000E+00  5.00000000E-01  0.00000000E+00
                       5.00000000E-01  5.00000000E-01  0.00000000E+00
                       0.00000000E+00  0.00000000E+00  5.00000000E-01
                       5.00000000E-01  0.00000000E+00  5.00000000E-01
                       0.00000000E+00  5.00000000E-01  5.00000000E-01
                       5.00000000E-01  5.00000000E-01  5.00000000E-01
           kptopt           3
         kptrlatt        2    0    0      0    2    0      0    0    2
          kptrlen      9.89949494E+00
P           mkmem           8
P          mkqmem           8
P          mk1mem           8
            natom           1
            nband          14
           nbdbuf           4
           ndtset          10
            ngfft           8       8       8
             nkpt           8
            nline1          8
            nline2          4
            nline3          4
            nline4          4
            nline5          4
            nline6          4
            nline7          4
            nline8          4
            nline9          4
            nline10         4
           nnsclo1          2
           nnsclo2          0
           nnsclo3          0
           nnsclo4          0
           nnsclo5          0
           nnsclo6          0
           nnsclo7          0
           nnsclo8          0
           nnsclo9          0
           nnsclo10         0
             nqpt1          0
             nqpt2          1
             nqpt3          1
             nqpt4          1
             nqpt5          1
             nqpt6          1
             nqpt7          1
             nqpt8          1
             nqpt9          1
             nqpt10         1
           nspden           2
           nsppol           2
            nstep         800
             nsym          48
           ntypat           1
              occ      1.000000  1.000000  1.000000  1.000000  1.000000  0.000000
                       0.000000  0.000000  0.000000  0.000000  0.000000  0.000000
                       0.000000  0.000000
                       1.000000  1.000000  1.000000  1.000000  1.000000  0.000000
                       0.000000  0.000000  0.000000  0.000000  0.000000  0.000000
                       0.000000  0.000000
                       1.000000  1.000000  1.000000  1.000000  1.000000  0.000000
                       0.000000  0.000000  0.000000  0.000000  0.000000  0.000000
                       0.000000  0.000000
                       1.000000  1.000000  1.000000  1.000000  1.000000  0.000000
                       0.000000  0.000000  0.000000  0.000000  0.000000  0.000000
                       0.000000  0.000000
                       1.000000  1.000000  1.000000  1.000000  1.000000  0.000000
                       0.000000  0.000000  0.000000  0.000000  0.000000  0.000000
                       0.000000  0.000000
                       1.000000  1.000000  1.000000  1.000000  1.000000  0.000000
                       0.000000  0.000000  0.000000  0.000000  0.000000  0.000000
                       0.000000  0.000000
                       1.000000  1.000000  1.000000  1.000000  1.000000  0.000000
                       0.000000  0.000000  0.000000  0.000000  0.000000  0.000000
                       0.000000  0.000000
                       1.000000  1.000000  1.000000  1.000000  1.000000  0.000000
                       0.000000  0.000000  0.000000  0.000000  0.000000  0.000000
                       0.000000  0.000000
                       1.000000  1.000000  1.000000  1.000000  1.000000  0.000000
                       0.000000  0.000000  0.000000  0.000000  0.000000  0.000000
                       0.000000  0.000000
                       1.000000  1.000000  1.000000  1.000000  1.000000  0.000000
                       0.000000  0.000000  0.000000  0.000000  0.000000  0.000000
                       0.000000  0.000000
                       1.000000  1.000000  1.000000  1.000000  1.000000  0.000000
                       0.000000  0.000000  0.000000  0.000000  0.000000  0.000000
                       0.000000  0.000000
                       1.000000  1.000000  1.000000  1.000000  1.000000  0.000000
                       0.000000  0.000000  0.000000  0.000000  0.000000  0.000000
                       0.000000  0.000000
                       1.000000  1.000000  1.000000  1.000000  1.000000  0.000000
                       0.000000  0.000000  0.000000  0.000000  0.000000  0.000000
                       0.000000  0.000000
                       1.000000  1.000000  1.000000  1.000000  1.000000  0.000000
                       0.000000  0.000000  0.000000  0.000000  0.000000  0.000000
                       0.000000  0.000000
                       1.000000  1.000000  1.000000  1.000000  1.000000  0.000000
                       0.000000  0.000000  0.000000  0.000000  0.000000  0.000000
                       0.000000  0.000000
                       1.000000  1.000000  1.000000  1.000000  1.000000  0.000000
                       0.000000  0.000000  0.000000  0.000000  0.000000  0.000000
                       0.000000  0.000000
           occopt           7
        optdriver1          0
        optdriver2          1
        optdriver3          1
        optdriver4          1
        optdriver5          1
        optdriver6          1
        optdriver7          1
        optdriver8          1
        optdriver9          1
        optdriver10         1
           prtdos1          2
           prtdos2          0
           prtdos3          0
           prtdos4          0
           prtdos5          0
           prtdos6          0
           prtdos7          0
           prtdos8          0
           prtdos9          0
           prtdos10         0
              qpt1     0.00000000E+00  0.00000000E+00  0.00000000E+00
              qpt2     0.00000000E+00  0.00000000E+00  0.00000000E+00
              qpt3     0.00000000E+00  0.00000000E+00  0.00000000E+00
              qpt4     0.00000000E+00  0.00000000E+00  0.00000000E+00
              qpt5     5.00000000E-01  0.00000000E+00  0.00000000E+00
              qpt6     5.00000000E-01  0.00000000E+00  0.00000000E+00
              qpt7     5.00000000E-01  0.00000000E+00  0.00000000E+00
              qpt8     5.00000000E-01  5.00000000E-01  0.00000000E+00
              qpt9     5.00000000E-01  5.00000000E-01  0.00000000E+00
              qpt10    5.00000000E-01  5.00000000E-01  0.00000000E+00
            rfdir1          0       0       0
            rfdir2          1       0       0
            rfdir3          0       1       0
            rfdir4          0       0       1
            rfdir5          1       0       0
            rfdir6          0       1       0
            rfdir7          0       0       1
            rfdir8          1       0       0
            rfdir9          0       1       0
            rfdir10         0       0       1
           rfphon1          0
           rfphon2          1
           rfphon3          1
           rfphon4          1
           rfphon5          1
           rfphon6          1
           rfphon7          1
           rfphon8          1
           rfphon9          1
           rfphon10         1
            rprim      0.0000000000E+00  5.0000000000E-01  5.0000000000E-01
                       5.0000000000E-01  0.0000000000E+00  5.0000000000E-01
                       5.0000000000E-01  5.0000000000E-01  0.0000000000E+00
          spgroup         225
           spinat1     0.0000000000E+00  0.0000000000E+00  2.0000000000E-01
           spinat2     0.0000000000E+00  0.0000000000E+00  0.0000000000E+00
           spinat3     0.0000000000E+00  0.0000000000E+00  0.0000000000E+00
           spinat4     0.0000000000E+00  0.0000000000E+00  0.0000000000E+00
           spinat5     0.0000000000E+00  0.0000000000E+00  0.0000000000E+00
           spinat6     0.0000000000E+00  0.0000000000E+00  0.0000000000E+00
           spinat7     0.0000000000E+00  0.0000000000E+00  0.0000000000E+00
           spinat8     0.0000000000E+00  0.0000000000E+00  0.0000000000E+00
           spinat9     0.0000000000E+00  0.0000000000E+00  0.0000000000E+00
           spinat10    0.0000000000E+00  0.0000000000E+00  0.0000000000E+00
           symrel      1  0  0   0  1  0   0  0  1      -1  0  0   0 -1  0   0  0 -1
                       0 -1  1   0 -1  0   1 -1  0       0  1 -1   0  1  0  -1  1  0
                      -1  0  0  -1  0  1  -1  1  0       1  0  0   1  0 -1   1 -1  0
                       0  1 -1   1  0 -1   0  0 -1       0 -1  1  -1  0  1   0  0  1
                      -1  0  0  -1  1  0  -1  0  1       1  0  0   1 -1  0   1  0 -1
                       0 -1  1   1 -1  0   0 -1  0       0  1 -1  -1  1  0   0  1  0
                       1  0  0   0  0  1   0  1  0      -1  0  0   0  0 -1   0 -1  0
                       0  1 -1   0  0 -1   1  0 -1       0 -1  1   0  0  1  -1  0  1
                      -1  0  1  -1  1  0  -1  0  0       1  0 -1   1 -1  0   1  0  0
                       0 -1  0   1 -1  0   0 -1  1       0  1  0  -1  1  0   0  1 -1
                       1  0 -1   0  0 -1   0  1 -1      -1  0  1   0  0  1   0 -1  1
                       0  1  0   0  0  1   1  0  0       0 -1  0   0  0 -1  -1  0  0
                       1  0 -1   0  1 -1   0  0 -1      -1  0  1   0 -1  1   0  0  1
                       0 -1  0   0 -1  1   1 -1  0       0  1  0   0  1 -1  -1  1  0
                      -1  0  1  -1  0  0  -1  1  0       1  0 -1   1  0  0   1 -1  0
                       0  1  0   1  0  0   0  0  1       0 -1  0  -1  0  0   0  0 -1
                       0  0 -1   0  1 -1   1  0 -1       0  0  1   0 -1  1  -1  0  1
                       1 -1  0   0 -1  1   0 -1  0      -1  1  0   0  1 -1   0  1  0
                       0  0  1   1  0  0   0  1  0       0  0 -1  -1  0  0   0 -1  0
                      -1  1  0  -1  0  0  -1  0  1       1 -1  0   1  0  0   1  0 -1
                       0  0  1   0  1  0   1  0  0       0  0 -1   0 -1  0  -1  0  0
                       1 -1  0   0 -1  0   0 -1  1      -1  1  0   0  1  0   0  1 -1
                       0  0 -1   1  0 -1   0  1 -1       0  0  1  -1  0  1   0 -1  1
                      -1  1  0  -1  0  1  -1  0  0       1 -1  0   1  0 -1   1  0  0
           tolvrs1     0.00000000E+00
           tolvrs2     1.00000000E-05
           tolvrs3     1.00000000E-05
           tolvrs4     1.00000000E-05
           tolvrs5     1.00000000E-05
           tolvrs6     1.00000000E-05
           tolvrs7     1.00000000E-05
           tolvrs8     1.00000000E-05
           tolvrs9     1.00000000E-05
           tolvrs10    1.00000000E-05
           tolwfr1     1.00000000E-14
           tolwfr2     0.00000000E+00
           tolwfr3     0.00000000E+00
           tolwfr4     0.00000000E+00
           tolwfr5     0.00000000E+00
           tolwfr6     0.00000000E+00
           tolwfr7     0.00000000E+00
           tolwfr8     0.00000000E+00
           tolwfr9     0.00000000E+00
           tolwfr10    0.00000000E+00
           tsmear      1.00000000E-03 Hartree
            typat      1
              wtk        0.12500    0.12500    0.12500    0.12500    0.12500    0.12500
                         0.12500    0.12500
            znucl       28.00000

================================================================================

 chkinp: Checking input parameters for consistency, jdtset=   1.

 chkinp: Checking input parameters for consistency, jdtset=   2.

 chkinp: Checking input parameters for consistency, jdtset=   3.

 chkinp: Checking input parameters for consistency, jdtset=   4.

 chkinp: Checking input parameters for consistency, jdtset=   5.

 chkinp: Checking input parameters for consistency, jdtset=   6.

 chkinp: Checking input parameters for consistency, jdtset=   7.

 chkinp: Checking input parameters for consistency, jdtset=   8.

 chkinp: Checking input parameters for consistency, jdtset=   9.

 chkinp: Checking input parameters for consistency, jdtset=  10.

================================================================================
== DATASET  1 ==================================================================
-   nproc =    1

 Exchange-correlation functional for the present dataset will be:
  LDA: new Teter (4/93) with spin-polarized option - ixc=1
 Citation for XC functional:
  S. Goedecker, M. Teter, J. Huetter, PRB 54, 1703 (1996)

 Real(R)+Recip(G) space primitive vectors, cartesian coordinates (Bohr,Bohr^-1):
 R(1)=  0.0000000  3.5000000  3.5000000  G(1)= -0.1428571  0.1428571  0.1428571
 R(2)=  3.5000000  0.0000000  3.5000000  G(2)=  0.1428571 -0.1428571  0.1428571
 R(3)=  3.5000000  3.5000000  0.0000000  G(3)=  0.1428571  0.1428571 -0.1428571
 Unit cell volume ucvol=  8.5750000E+01 bohr^3
 Angles (23,13,12)=  6.00000000E+01  6.00000000E+01  6.00000000E+01 degrees

 getcut: wavevector=  0.0000  0.0000  0.0000  ngfft=   8   8   8
         ecut(hartree)=      3.000   => boxcut(ratio)=   2.07291

--- Pseudopotential description ------------------------------------------------
- pspini: atom type   1  psp file is /home/gonze/ABINIT/ABINITv7.10.4/trunk/7.10.4-training/tests/Psps_for_tests/28ni.pspnc
- pspatm: opening atomic psp file    /home/gonze/ABINIT/ABINITv7.10.4/trunk/7.10.4-training/tests/Psps_for_tests/28ni.pspnc
-  Troullier-Martins psp for element  Ni        Thu Oct 27 17:35:45 EDT 1994
- 28.00000  10.00000    940714                znucl, zion, pspdat
    1    1    2    0      2001   0.00000      pspcod,pspxc,lmax,lloc,mmax,r2well
    0   3.208   7.754    0   2.9454613        l,e99.0,e99.9,nproj,rcpsp
   0.00000000   0.00000000   0.00000000   0.00000000     rms, ekb1, ekb2, epsatm
    1   1.322   4.017    1   2.9454613        l,e99.0,e99.9,nproj,rcpsp
   0.00000000   0.00000000   0.00000000   0.00000000     rms, ekb1, ekb2, epsatm
    2  19.888  25.467    1   2.2939080        l,e99.0,e99.9,nproj,rcpsp
   0.00000000   0.00000000   0.00000000   0.00000000     rms, ekb1, ekb2, epsatm
    1.28166113122492    4.34983513722262    7.99170458696768   rchrg,fchrg,qchrg
 pspatm: epsatm=   55.54189636
         --- l  ekb(1:nproj) -->
             1    0.797683
             2   -7.688688
 pspatm: atomic psp has been read  and splines computed

   5.55418964E+02                                ecore*ucvol(ha*bohr**3)
--------------------------------------------------------------------------------

P newkpt: treating     14 bands with npw=       8 for ikpt=   1 by node    0
P newkpt: treating     14 bands with npw=      11 for ikpt=   2 by node    0
P newkpt: treating     14 bands with npw=      11 for ikpt=   3 by node    0
P newkpt: treating     14 bands with npw=      11 for ikpt=   4 by node    0
P newkpt: treating     14 bands with npw=      11 for ikpt=   5 by node    0
P newkpt: treating     14 bands with npw=      11 for ikpt=   6 by node    0
P newkpt: treating     14 bands with npw=      11 for ikpt=   7 by node    0
P newkpt: treating     14 bands with npw=      11 for ikpt=   8 by node    0
P newkpt: treating     14 bands with npw=       8 for ikpt=   1 by node    0
P newkpt: treating     14 bands with npw=      11 for ikpt=   2 by node    0
P newkpt: treating     14 bands with npw=      11 for ikpt=   3 by node    0
P newkpt: treating     14 bands with npw=      11 for ikpt=   4 by node    0
P newkpt: treating     14 bands with npw=      11 for ikpt=   5 by node    0
P newkpt: treating     14 bands with npw=      11 for ikpt=   6 by node    0
P newkpt: treating     14 bands with npw=      11 for ikpt=   7 by node    0
P newkpt: treating     14 bands with npw=      11 for ikpt=   8 by node    0

_setup2: Arith. and geom. avg. npw (full set) are      21.125      20.972

================================================================================

     iter   Etot(hartree)     deltaE(h) residm    vres2    magn
 ETOT  1  -31.516741136709    -3.15E+01 8.08E-05 1.99E+02 0.250
 ETOT  2  -32.262224058591    -7.45E-01 2.07E-05 2.36E+00 0.000
 ETOT  3  -32.266788428251    -4.56E-03 5.00E-10 5.90E-02 0.000
 ETOT  4  -32.266909778790    -1.21E-04 5.07E-13 5.11E-05 0.000
 ETOT  5  -32.266909878466    -9.97E-08 8.17E-15 5.26E-07 0.000

 At SCF step    5   max residual=  8.17E-15 < tolwfr=  1.00E-14 =>converged.

 Cartesian components of stress tensor (hartree/bohr^3)
  sigma(1 1)= -7.28320966E-03  sigma(3 2)=  0.00000000E+00
  sigma(2 2)= -7.28320966E-03  sigma(3 1)=  0.00000000E+00
  sigma(3 3)= -7.28320966E-03  sigma(2 1)=  0.00000000E+00

================================================================================

 ----iterations are completed or convergence reached----

 Mean square residual over all n,k,spin=   2.6846E-16; max=  8.1668E-15
   0.0000  0.0000  0.0000    1  8.16681E-15 kpt; spin; max resid(k); each band:
  7.60E-16 7.89E-24 1.73E-31 1.28E-31 7.74E-32 2.82E-15 2.14E-20 8.17E-15
  1.10E-25 8.87E-25 4.59E-25 2.76E-31 2.76E-31 1.46E-31
   0.5000  0.0000  0.0000    1  1.83597E-15 kpt; spin; max resid(k); each band:
  4.19E-17 1.84E-15 6.17E-17 7.04E-18 7.04E-18 2.41E-17 2.41E-17 1.65E-15
  3.34E-25 3.40E-25 2.07E-21 2.09E-20 5.79E-22 1.93E-21
   0.0000  0.5000  0.0000    1  1.83597E-15 kpt; spin; max resid(k); each band:
  4.19E-17 1.84E-15 6.17E-17 7.04E-18 7.04E-18 2.41E-17 2.41E-17 1.65E-15
  3.81E-25 3.71E-25 2.07E-21 1.51E-20 1.02E-18 2.00E-20
   0.5000  0.5000  0.0000    1  1.83246E-15 kpt; spin; max resid(k); each band:
  1.06E-16 2.87E-18 1.83E-15 1.83E-15 3.87E-16 1.82E-25 4.16E-16 1.80E-19
  7.53E-19 1.21E-21 1.18E-16 5.50E-18 1.24E-16 5.21E-23
   0.0000  0.0000  0.5000    1  1.83597E-15 kpt; spin; max resid(k); each band:
  4.19E-17 1.84E-15 6.17E-17 7.04E-18 7.04E-18 2.41E-17 2.41E-17 1.65E-15
  3.27E-25 3.50E-25 2.07E-21 1.34E-18 5.95E-19 8.87E-21
   0.5000  0.0000  0.5000    1  1.83132E-15 kpt; spin; max resid(k); each band:
  1.06E-16 2.87E-18 1.83E-15 1.83E-15 3.87E-16 6.14E-24 5.11E-17 9.68E-21
  6.49E-19 8.74E-20 5.01E-16 1.57E-16 9.06E-17 1.51E-18
   0.0000  0.5000  0.5000    1  1.83237E-15 kpt; spin; max resid(k); each band:
  1.06E-16 2.87E-18 1.83E-15 1.83E-15 3.87E-16 2.66E-27 1.24E-15 2.82E-19
  1.38E-19 2.75E-19 5.03E-16 4.43E-17 6.39E-17 8.26E-19
   0.5000  0.5000  0.5000    1  1.83597E-15 kpt; spin; max resid(k); each band:
  4.19E-17 1.84E-15 6.17E-17 7.04E-18 7.04E-18 2.41E-17 2.41E-17 1.65E-15
  3.26E-25 3.44E-25 2.07E-21 3.94E-19 1.77E-18 3.38E-21
   0.0000  0.0000  0.0000    2  6.17732E-15 kpt; spin; max resid(k); each band:
  1.49E-16 6.95E-25 8.92E-32 1.50E-31 7.75E-32 1.95E-15 9.72E-21 6.18E-15
  4.11E-26 5.08E-25 3.44E-25 1.56E-31 4.14E-31 1.23E-32
   0.5000  0.0000  0.0000    2  3.37642E-16 kpt; spin; max resid(k); each band:
  9.14E-18 3.25E-16 8.20E-18 1.07E-18 1.07E-18 3.25E-18 3.25E-18 3.38E-16
  5.39E-26 3.22E-26 2.99E-22 1.49E-20 5.04E-22 1.56E-21
   0.0000  0.5000  0.0000    2  3.37643E-16 kpt; spin; max resid(k); each band:
  9.14E-18 3.25E-16 8.20E-18 1.07E-18 1.07E-18 3.25E-18 3.25E-18 3.38E-16
  9.96E-26 8.06E-26 2.99E-22 1.74E-20 9.53E-19 1.48E-20
   0.5000  0.5000  0.0000    2  4.23727E-16 kpt; spin; max resid(k); each band:
  1.28E-17 6.62E-19 2.90E-16 2.90E-16 7.55E-17 1.99E-23 4.24E-16 2.57E-19
  1.20E-18 1.29E-21 1.76E-16 4.31E-18 3.57E-16 1.91E-23
   0.0000  0.0000  0.5000    2  3.37642E-16 kpt; spin; max resid(k); each band:
  9.14E-18 3.25E-16 8.20E-18 1.07E-18 1.07E-18 3.25E-18 3.25E-18 3.38E-16
  3.20E-26 6.17E-26 2.99E-22 1.28E-18 5.60E-19 3.33E-21
   0.5000  0.0000  0.5000    2  8.10547E-16 kpt; spin; max resid(k); each band:
  1.28E-17 6.62E-19 2.89E-16 2.90E-16 7.55E-17 1.25E-22 5.58E-17 2.33E-20
  6.38E-19 9.55E-20 5.60E-16 1.47E-16 8.11E-16 1.48E-18
   0.0000  0.5000  0.5000    2  1.68012E-15 kpt; spin; max resid(k); each band:
  1.28E-17 6.62E-19 2.90E-16 2.90E-16 7.55E-17 2.56E-23 1.68E-15 2.89E-19
  1.41E-19 2.93E-19 5.60E-16 9.59E-17 6.82E-17 2.48E-18
   0.5000  0.5000  0.5000    2  3.37642E-16 kpt; spin; max resid(k); each band:
  9.14E-18 3.25E-16 8.20E-18 1.07E-18 1.07E-18 3.25E-18 3.25E-18 3.38E-16
  2.77E-26 3.47E-26 2.99E-22 3.44E-19 1.62E-18 2.20E-21
 reduced coordinates (array xred) for    1 atoms
       0.000000000000      0.000000000000      0.000000000000
 rms dE/dt=  0.0000E+00; max dE/dt=  0.0000E+00; dE/dt below (all hartree)
    1       0.000000000000      0.000000000000      0.000000000000

 cartesian coordinates (angstrom) at end:
    1      0.00000000000000     0.00000000000000     0.00000000000000

 cartesian forces (hartree/bohr) at end:
    1     -0.00000000000000    -0.00000000000000    -0.00000000000000
 frms,max,avg= 0.0000000E+00 0.0000000E+00   0.000E+00  0.000E+00  0.000E+00 h/b

 cartesian forces (eV/Angstrom) at end:
    1     -0.00000000000000    -0.00000000000000    -0.00000000000000
 frms,max,avg= 0.0000000E+00 0.0000000E+00   0.000E+00  0.000E+00  0.000E+00 e/A
 length scales=  7.000000000000  7.000000000000  7.000000000000 bohr
              =  3.704240460130  3.704240460130  3.704240460130 angstroms
 prteigrs : about to open file t95o_DS1_EIG
 Fermi (or HOMO) energy (hartree) =   0.44320   Average Vxc (hartree)=  -0.57746
 Magnetization (Bohr magneton)=  0.00000000E+00
 Total spin up =  5.00000000E+00   Total spin down =  5.00000000E+00
 Eigenvalues (hartree) for nkpt=   8  k points, SPIN UP:
 kpt#   1, nband= 14, wtk=  0.12500, kpt=  0.0000  0.0000  0.0000 (reduced coord)
  -0.71951   0.34810   0.54511   0.54511   0.54511   0.59677   0.59677   0.59677
   0.81499   0.86961   0.86961   1.16482   1.16482   1.16482
      occupation numbers for kpt#   1
   1.00000   1.00000   0.00000   0.00000   0.00000   0.00000   0.00000   0.00000
   0.00000   0.00000   0.00000   0.00000   0.00000   0.00000
 kpt#   2, nband= 14, wtk=  0.12500, kpt=  0.5000  0.0000  0.0000 (reduced coord)
  -0.58514  -0.20716   0.33443   0.41607   0.41607   0.54081   0.54081   0.77931
   1.06122   1.06122   1.16925   1.43025   1.43025   1.51788
      occupation numbers for kpt#   2
   1.00000   1.00000   1.00000   1.00000   1.00000   0.00000   0.00000   0.00000
   0.00000   0.00000   0.00000   0.00000   0.00000   0.00000
 kpt#   3, nband= 14, wtk=  0.12500, kpt=  0.0000  0.5000  0.0000 (reduced coord)
  -0.58514  -0.20716   0.33443   0.41607   0.41607   0.54081   0.54081   0.77931
   1.06122   1.06122   1.16925   1.43025   1.43025   1.51788
      occupation numbers for kpt#   3
   1.00000   1.00000   1.00000   1.00000   1.00000   0.00000   0.00000   0.00000
   0.00000   0.00000   0.00000   0.00000   0.00000   0.00000
 kpt#   4, nband= 14, wtk=  0.12500, kpt=  0.5000  0.5000  0.0000 (reduced coord)
  -0.52932  -0.15287   0.18934   0.18934   0.22677   0.28607   1.10038   1.11498
   1.11498   1.28109   1.46991   1.59939   1.59939   1.60591
      occupation numbers for kpt#   4
   1.00000   1.00000   1.00000   1.00000   1.00000   1.00000   0.00000   0.00000
   0.00000   0.00000   0.00000   0.00000   0.00000   0.00000
 kpt#   5, nband= 14, wtk=  0.12500, kpt=  0.0000  0.0000  0.5000 (reduced coord)
  -0.58514  -0.20716   0.33443   0.41607   0.41607   0.54081   0.54081   0.77931
   1.06122   1.06122   1.16925   1.43025   1.43025   1.51788
      occupation numbers for kpt#   5
   1.00000   1.00000   1.00000   1.00000   1.00000   0.00000   0.00000   0.00000
   0.00000   0.00000   0.00000   0.00000   0.00000   0.00000
 kpt#   6, nband= 14, wtk=  0.12500, kpt=  0.5000  0.0000  0.5000 (reduced coord)
  -0.52932  -0.15287   0.18934   0.18934   0.22677   0.28607   1.10038   1.11498
   1.11498   1.28109   1.46991   1.59939   1.59939   1.60591
      occupation numbers for kpt#   6
   1.00000   1.00000   1.00000   1.00000   1.00000   1.00000   0.00000   0.00000
   0.00000   0.00000   0.00000   0.00000   0.00000   0.00000
 kpt#   7, nband= 14, wtk=  0.12500, kpt=  0.0000  0.5000  0.5000 (reduced coord)
  -0.52932  -0.15287   0.18934   0.18934   0.22677   0.28607   1.10038   1.11498
   1.11498   1.28109   1.46991   1.59939   1.59939   1.60591
      occupation numbers for kpt#   7
   1.00000   1.00000   1.00000   1.00000   1.00000   1.00000   0.00000   0.00000
   0.00000   0.00000   0.00000   0.00000   0.00000   0.00000
 kpt#   8, nband= 14, wtk=  0.12500, kpt=  0.5000  0.5000  0.5000 (reduced coord)
  -0.58514  -0.20716   0.33443   0.41607   0.41607   0.54081   0.54081   0.77931
   1.06122   1.06122   1.16925   1.43025   1.43025   1.51788
      occupation numbers for kpt#   8
   1.00000   1.00000   1.00000   1.00000   1.00000   0.00000   0.00000   0.00000
   0.00000   0.00000   0.00000   0.00000   0.00000   0.00000
 Eigenvalues (hartree) for nkpt=   8  k points, SPIN DOWN:
 kpt#   1, nband= 14, wtk=  0.12500, kpt=  0.0000  0.0000  0.0000 (reduced coord)
  -0.71950   0.34810   0.54512   0.54512   0.54512   0.59677   0.59677   0.59677
   0.81500   0.86961   0.86961   1.16481   1.16481   1.16481
      occupation numbers for kpt#   1
   1.00000   1.00000   0.00000   0.00000   0.00000   0.00000   0.00000   0.00000
   0.00000   0.00000   0.00000   0.00000   0.00000   0.00000
 kpt#   2, nband= 14, wtk=  0.12500, kpt=  0.5000  0.0000  0.0000 (reduced coord)
  -0.58512  -0.20716   0.33443   0.41608   0.41608   0.54081   0.54081   0.77929
   1.06122   1.06122   1.16925   1.43025   1.43025   1.51788
      occupation numbers for kpt#   2
   1.00000   1.00000   1.00000   1.00000   1.00000   0.00000   0.00000   0.00000
   0.00000   0.00000   0.00000   0.00000   0.00000   0.00000
 kpt#   3, nband= 14, wtk=  0.12500, kpt=  0.0000  0.5000  0.0000 (reduced coord)
  -0.58512  -0.20716   0.33443   0.41608   0.41608   0.54081   0.54081   0.77929
   1.06122   1.06122   1.16925   1.43025   1.43025   1.51788
      occupation numbers for kpt#   3
   1.00000   1.00000   1.00000   1.00000   1.00000   0.00000   0.00000   0.00000
   0.00000   0.00000   0.00000   0.00000   0.00000   0.00000
 kpt#   4, nband= 14, wtk=  0.12500, kpt=  0.5000  0.5000  0.0000 (reduced coord)
  -0.52930  -0.15287   0.18934   0.18934   0.22676   0.28608   1.10037   1.11499
   1.11499   1.28109   1.46991   1.59938   1.59938   1.60592
      occupation numbers for kpt#   4
   1.00000   1.00000   1.00000   1.00000   1.00000   1.00000   0.00000   0.00000
   0.00000   0.00000   0.00000   0.00000   0.00000   0.00000
 kpt#   5, nband= 14, wtk=  0.12500, kpt=  0.0000  0.0000  0.5000 (reduced coord)
  -0.58512  -0.20716   0.33443   0.41608   0.41608   0.54081   0.54081   0.77929
   1.06122   1.06122   1.16925   1.43025   1.43025   1.51788
      occupation numbers for kpt#   5
   1.00000   1.00000   1.00000   1.00000   1.00000   0.00000   0.00000   0.00000
   0.00000   0.00000   0.00000   0.00000   0.00000   0.00000
 kpt#   6, nband= 14, wtk=  0.12500, kpt=  0.5000  0.0000  0.5000 (reduced coord)
  -0.52930  -0.15287   0.18934   0.18934   0.22676   0.28608   1.10037   1.11499
   1.11499   1.28109   1.46991   1.59938   1.59938   1.60592
      occupation numbers for kpt#   6
   1.00000   1.00000   1.00000   1.00000   1.00000   1.00000   0.00000   0.00000
   0.00000   0.00000   0.00000   0.00000   0.00000   0.00000
 kpt#   7, nband= 14, wtk=  0.12500, kpt=  0.0000  0.5000  0.5000 (reduced coord)
  -0.52930  -0.15287   0.18934   0.18934   0.22676   0.28608   1.10037   1.11499
   1.11499   1.28109   1.46991   1.59938   1.59938   1.60592
      occupation numbers for kpt#   7
   1.00000   1.00000   1.00000   1.00000   1.00000   1.00000   0.00000   0.00000
   0.00000   0.00000   0.00000   0.00000   0.00000   0.00000
 kpt#   8, nband= 14, wtk=  0.12500, kpt=  0.5000  0.5000  0.5000 (reduced coord)
  -0.58512  -0.20716   0.33443   0.41608   0.41608   0.54081   0.54081   0.77929
   1.06122   1.06122   1.16925   1.43025   1.43025   1.51788
      occupation numbers for kpt#   8
   1.00000   1.00000   1.00000   1.00000   1.00000   0.00000   0.00000   0.00000
   0.00000   0.00000   0.00000   0.00000   0.00000   0.00000
 Total charge density [el/Bohr^3]
,     Maximum=    2.8687E-01  at reduced coord.    0.0000    0.0000    0.0000
,Next maximum=    2.5515E-01  at reduced coord.    0.0000    0.1250    0.8750
,     Minimum=    3.8486E-02  at reduced coord.    0.5000    0.5000    0.5000
,Next minimum=    4.5593E-02  at reduced coord.    0.5000    0.5000    0.3750
,  Integrated=    1.0000E+01
 Spin up density      [el/Bohr^3]
,     Maximum=    1.4344E-01  at reduced coord.    0.0000    0.0000    0.0000
,Next maximum=    1.2758E-01  at reduced coord.    0.0000    0.1250    0.8750
,     Minimum=    1.9242E-02  at reduced coord.    0.5000    0.5000    0.5000
,Next minimum=    2.2796E-02  at reduced coord.    0.5000    0.5000    0.3750
,  Integrated=    5.0000E+00
 Spin down density    [el/Bohr^3]
,     Maximum=    1.4344E-01  at reduced coord.    0.0000    0.0000    0.0000
,Next maximum=    1.2758E-01  at reduced coord.    0.0000    0.1250    0.8750
,     Minimum=    1.9244E-02  at reduced coord.    0.5000    0.5000    0.5000
,Next minimum=    2.2797E-02  at reduced coord.    0.5000    0.5000    0.3750
,  Integrated=    5.0000E+00
 Magnetization (spin up - spin down) [el/Bohr^3]
,     Maximum=    1.0935E-06  at reduced coord.    0.0000    0.0000    0.0000
,Next maximum=    1.0135E-06  at reduced coord.    0.0000    0.1250    0.8750
,     Minimum=   -2.0465E-06  at reduced coord.    0.5000    0.5000    0.5000
,Next minimum=   -1.8340E-06  at reduced coord.    0.5000    0.5000    0.3750
,  Integrated=    0.0000E+00
 Relative magnetization (=zeta, between -1 and 1)
,     Maximum=    1.0499E-05  at reduced coord.    0.7500    0.7500    0.7500
,Next maximum=    1.0499E-05  at reduced coord.    0.2500    0.2500    0.2500
,     Minimum=   -5.3174E-05  at reduced coord.    0.5000    0.5000    0.5000
,Next minimum=   -4.0226E-05  at reduced coord.    0.5000    0.5000    0.3750

--------------------------------------------------------------------------------
 Components of total free energy (in Hartree) :

    Kinetic energy  =  7.66049194478312E+00
    Hartree energy  =  4.32837137944685E-01
    XC energy       = -1.24025869161828E+01
    Ewald energy    = -3.27490148150987E+01
    PspCore energy  =  6.47718907985279E+00
    Loc. psp. energy= -1.62667038719448E+00
    NL   psp  energy= -5.91559225708707E-02
    >>>>> Internal E= -3.22669098784662E+01

    -kT*entropy     = -3.54544139692548E-19
    >>>>>>>>> Etotal= -3.22669098784662E+01

 Other information on the energy :
    Total energy(eV)= -8.78027270678971E+02 ; Band energy (Ha)=   4.3844344051E-01
--------------------------------------------------------------------------------

 Cartesian components of stress tensor (hartree/bohr^3)
  sigma(1 1)= -7.28320966E-03  sigma(3 2)=  0.00000000E+00
  sigma(2 2)= -7.28320966E-03  sigma(3 1)=  0.00000000E+00
  sigma(3 3)= -7.28320966E-03  sigma(2 1)=  0.00000000E+00

-Cartesian components of stress tensor (GPa)         [Pressure=  2.1428E+02 GPa]
- sigma(1 1)= -2.14279390E+02  sigma(3 2)=  0.00000000E+00
- sigma(2 2)= -2.14279390E+02  sigma(3 1)=  0.00000000E+00
- sigma(3 3)= -2.14279390E+02  sigma(2 1)=  0.00000000E+00

================================================================================
== DATASET  2 ==================================================================
-   nproc =    1

 mkfilename : getwfk/=0, take file _WFK from output of DATASET   1.

 Exchange-correlation functional for the present dataset will be:
  LDA: new Teter (4/93) with spin-polarized option - ixc=1
 Citation for XC functional:
  S. Goedecker, M. Teter, J. Huetter, PRB 54, 1703 (1996)

 Real(R)+Recip(G) space primitive vectors, cartesian coordinates (Bohr,Bohr^-1):
 R(1)=  0.0000000  3.5000000  3.5000000  G(1)= -0.1428571  0.1428571  0.1428571
 R(2)=  3.5000000  0.0000000  3.5000000  G(2)=  0.1428571 -0.1428571  0.1428571
 R(3)=  3.5000000  3.5000000  0.0000000  G(3)=  0.1428571  0.1428571 -0.1428571
 Unit cell volume ucvol=  8.5750000E+01 bohr^3
 Angles (23,13,12)=  6.00000000E+01  6.00000000E+01  6.00000000E+01 degrees
 setup1 : take into account q-point for computing boxcut.

 getcut: wavevector=  0.0000  0.0000  0.0000  ngfft=   8   8   8
         ecut(hartree)=      3.000   => boxcut(ratio)=   2.07291
--------------------------------------------------------------------------------

-inwffil : will read wavefunctions from disk file t95o_DS1_WFK
- newkpt: read input wf with ikpt,npw=   1       8, make ikpt,npw=   1      15
- newkpt: read input wf with ikpt,npw=   2      11, make ikpt,npw=   2      22
- newkpt: read input wf with ikpt,npw=   3      11, make ikpt,npw=   3      22
- newkpt: read input wf with ikpt,npw=   4      11, make ikpt,npw=   4      22
- newkpt: read input wf with ikpt,npw=   5      11, make ikpt,npw=   5      22
- newkpt: read input wf with ikpt,npw=   6      11, make ikpt,npw=   6      22
- newkpt: read input wf with ikpt,npw=   7      11, make ikpt,npw=   7      22
- newkpt: read input wf with ikpt,npw=   8      11, make ikpt,npw=   8      22
- newkpt: read input wf with ikpt,npw=   1       8, make ikpt,npw=   1      15
- newkpt: read input wf with ikpt,npw=   2      11, make ikpt,npw=   2      22
- newkpt: read input wf with ikpt,npw=   3      11, make ikpt,npw=   3      22
- newkpt: read input wf with ikpt,npw=   4      11, make ikpt,npw=   4      22
- newkpt: read input wf with ikpt,npw=   5      11, make ikpt,npw=   5      22
- newkpt: read input wf with ikpt,npw=   6      11, make ikpt,npw=   6      22
- newkpt: read input wf with ikpt,npw=   7      11, make ikpt,npw=   7      22
- newkpt: read input wf with ikpt,npw=   8      11, make ikpt,npw=   8      22


 ==>  initialize data related to q vector <== 

 The list of irreducible perturbations for this q vector is:
    1)    idir= 1    ipert=   1

================================================================================

--------------------------------------------------------------------------------
 Perturbation wavevector (in red.coord.)   0.000000  0.000000  0.000000
 Perturbation : displacement of atom   1   along direction   1
 Found     4 symmetries that leave the perturbation invariant.
 symkpt : the number of k-points, thanks to the symmetries,
 is reduced to     5 .

--------------------------------------------------------------------------------

-inwffil : will read wavefunctions from disk file t95o_DS1_WFK
- newkpt: read input wf with ikpt,npw=   1       8, make ikpt,npw=   1      15
- newkpt: read input wf with ikpt,npw=   2      11, make ikpt,npw=   2      22
- newkpt: read input wf with ikpt,npw=   3      11, make ikpt,npw=   3      22
- newkpt: read input wf with ikpt,npw=   4      11, make ikpt,npw=   4      22
- newkpt: read input wf with ikpt,npw=   7      11, make ikpt,npw=   5      22
- newkpt: read input wf with ikpt,npw=   1       8, make ikpt,npw=   1      15
- newkpt: read input wf with ikpt,npw=   2      11, make ikpt,npw=   2      22
- newkpt: read input wf with ikpt,npw=   3      11, make ikpt,npw=   3      22
- newkpt: read input wf with ikpt,npw=   4      11, make ikpt,npw=   4      22
- newkpt: read input wf with ikpt,npw=   7      11, make ikpt,npw=   5      22

--------------------------------------------------------------------------------

-inwffil : will read wavefunctions from disk file t95o_DS1_WFK
- newkpt: read input wf with ikpt,npw=   1       8, make ikpt,npw=   1      15
- newkpt: read input wf with ikpt,npw=   2      11, make ikpt,npw=   2      22
- newkpt: read input wf with ikpt,npw=   3      11, make ikpt,npw=   3      22
- newkpt: read input wf with ikpt,npw=   4      11, make ikpt,npw=   4      22
- newkpt: read input wf with ikpt,npw=   7      11, make ikpt,npw=   5      22
- newkpt: read input wf with ikpt,npw=   1       8, make ikpt,npw=   1      15
- newkpt: read input wf with ikpt,npw=   2      11, make ikpt,npw=   2      22
- newkpt: read input wf with ikpt,npw=   3      11, make ikpt,npw=   3      22
- newkpt: read input wf with ikpt,npw=   4      11, make ikpt,npw=   4      22
- newkpt: read input wf with ikpt,npw=   7      11, make ikpt,npw=   5      22

 loper3 : total number of electrons, from k and k+q
  fully or partially occupied states are    1.000000E+01 and    1.000000E+01.
 Initialisation of the first-order wave-functions :
  ireadwf=   0
P newkpt: treating     14 bands with npw=      15 for ikpt=   1 by node    0
P newkpt: treating     14 bands with npw=      22 for ikpt=   2 by node    0
P newkpt: treating     14 bands with npw=      22 for ikpt=   3 by node    0
P newkpt: treating     14 bands with npw=      22 for ikpt=   4 by node    0
P newkpt: treating     14 bands with npw=      22 for ikpt=   5 by node    0
P newkpt: treating     14 bands with npw=      15 for ikpt=   1 by node    0
P newkpt: treating     14 bands with npw=      22 for ikpt=   2 by node    0
P newkpt: treating     14 bands with npw=      22 for ikpt=   3 by node    0
P newkpt: treating     14 bands with npw=      22 for ikpt=   4 by node    0
P newkpt: treating     14 bands with npw=      22 for ikpt=   5 by node    0


     iter   2DEtotal(Ha)        deltaE(Ha) residm    vres2
-ETOT  1   16.939014868845     -2.320E+01 1.264E-01 1.867E+03
 ETOT  2   1.3909968857977     -1.555E+01 2.792E-03 1.498E+02
 ETOT  3  3.53062552335643E-02 -1.356E+00 1.417E-04 1.629E-03
 ETOT  4  3.52989155607588E-02 -7.340E-06 1.261E-09 3.703E-06

 At SCF step    4       vres2   =  3.70E-06 < tolvrs=  1.00E-05 =>converged.
================================================================================

 ----iterations are completed or convergence reached----

 Mean square residual over all n,k,spin=  -2.8571E-02; max=  1.2613E-09
   0.0000  0.0000  0.0000    1  1.80882E-34 kpt; spin; max resid(k); each band:
  1.73E-55 5.54E-55 4.92E-36 2.81E-35 1.81E-34 2.31E-56 8.26E-58 4.81E-58
  2.29E-49 1.87E-56-1.00E-01-1.00E-01-1.00E-01-1.00E-01
   0.5000  0.0000  0.0000    1  9.28199E-10 kpt; spin; max resid(k); each band:
  6.44E-11 1.65E-10 6.85E-10 3.82E-11 1.62E-11 2.13E-11 7.07E-12 2.06E-13
  2.87E-10 9.28E-10-1.00E-01-1.00E-01-1.00E-01-1.00E-01
   0.0000  0.5000  0.0000    1  1.26135E-09 kpt; spin; max resid(k); each band:
  2.73E-27 2.08E-26 1.45E-26 7.87E-12 3.36E-11 5.86E-12 6.27E-11 1.86E-25
  1.67E-10 1.26E-09-1.00E-01-1.00E-01-1.00E-01-1.00E-01
   0.5000  0.5000  0.0000    1  1.13399E-09 kpt; spin; max resid(k); each band:
  5.40E-10 3.29E-12 1.91E-11 1.93E-11 6.88E-10 1.52E-12 5.33E-17 1.13E-09
  3.70E-13 1.29E-20-1.00E-01-1.00E-01-1.00E-01-1.00E-01
   0.0000  0.5000  0.5000    1  9.89164E-10 kpt; spin; max resid(k); each band:
  6.59E-26 1.58E-25 8.73E-17 4.66E-13 2.19E-25 1.34E-26 1.21E-24 3.52E-10
  9.89E-10 2.25E-22-1.00E-01-1.00E-01-1.00E-01-1.00E-01
   0.0000  0.0000  0.0000    2  7.90295E-35 kpt; spin; max resid(k); each band:
  1.04E-58 1.30E-57 8.89E-37 1.31E-36 7.90E-35 2.45E-55 8.82E-56 9.48E-57
  8.88E-50 3.25E-56-1.00E-01-1.00E-01-1.00E-01-1.00E-01
   0.5000  0.0000  0.0000    2  9.28931E-10 kpt; spin; max resid(k); each band:
  6.46E-11 1.65E-10 6.85E-10 3.82E-11 1.62E-11 2.13E-11 7.07E-12 2.06E-13
  2.87E-10 9.29E-10-1.00E-01-1.00E-01-1.00E-01-1.00E-01
   0.0000  0.5000  0.0000    2  1.26262E-09 kpt; spin; max resid(k); each band:
  1.96E-27 1.14E-26 8.54E-27 7.86E-12 3.36E-11 5.86E-12 6.27E-11 4.51E-26
  1.67E-10 1.26E-09-1.00E-01-1.00E-01-1.00E-01-1.00E-01
   0.5000  0.5000  0.0000    2  1.13478E-09 kpt; spin; max resid(k); each band:
  5.41E-10 3.33E-12 1.91E-11 1.93E-11 6.86E-10 1.52E-12 5.34E-17 1.13E-09
  3.69E-13 2.86E-20-1.00E-01-1.00E-01-1.00E-01-1.00E-01
   0.0000  0.5000  0.5000    2  9.91633E-10 kpt; spin; max resid(k); each band:
  6.89E-24 6.84E-26 8.66E-17 4.62E-13 2.01E-23 1.34E-25 7.05E-24 3.53E-10
  9.92E-10 3.65E-20-1.00E-01-1.00E-01-1.00E-01-1.00E-01

 Thirteen components of 2nd-order total energy (hartree) are
 1,2,3: 0th-order hamiltonian combined with 1st-order wavefunctions
     kin0=   6.65025713E+00 eigvalue=   3.07598815E-01  local=  -1.47178711E+00
 4,5,6: 1st-order hamiltonian combined with 1st and 0th-order wfs
 loc psp =  -8.49251903E+01  Hartree=   1.75187651E+01     xc=  -3.97713751E+00
 note that "loc psp" includes a xc core correction that could be resolved
 7,8,9: eventually, occupation + non-local contributions
    edocc=   2.07443234E+01     enl0=   3.34331087E-01   enl1=   4.71098172E+00
 1-9 gives the relaxation energy (to be shifted if some occ is /=2.0)
   erelax=  -4.01078577E+01
 10,11,12 Non-relaxation  contributions : frozen-wavefunctions and Ewald
 fr.local=   3.27501926E+01 fr.nonlo=  -2.35833935E+00  Ewald=   0.00000000E+00
 13,14 Frozen wf xc core corrections (1) and (2)
 frxc 1  =  -1.89220008E+02  frxc 2 =   1.98971311E+02
 Resulting in :
 2DEtotal=    0.3529891556E-01 Ha. Also 2DEtotal=    0.960532341166E+00 eV
    (2DErelax=   -4.0107857654E+01 Ha. 2DEnonrelax=    4.0143156570E+01 Ha)
    (  non-var. 2DEtotal :    3.6052274450E-02 Ha)

================================================================================

 ---- first-order wavefunction calculations are completed ----


 ==> Compute Derivative Database <==
  
  2nd-order matrix (non-cartesian coordinates, masses not included,
   asr not included )
     j1       j2             matrix element
  dir pert dir pert     real part     imaginary part
  
   1    1   1    1         0.0360522744         0.0000000000
   1    1   2    1         0.0180261372         0.0000000000
   1    1   3    1         0.0180261372         0.0000000000
   1    1   2    3         0.0000000000         0.0000000000
   1    1   3    3         0.0000000000         0.0000000000
  
   2    1   1    1         0.0180261372         0.0000000000
   2    1   2    1         0.0360522744         0.0000000000
   2    1   3    1         0.0180261372         0.0000000000
   2    1   1    3         0.0000000000         0.0000000000
   2    1   3    3         0.0000000000         0.0000000000
  
   3    1   1    1         0.0180261372         0.0000000000
   3    1   2    1         0.0180261372         0.0000000000
   3    1   3    1         0.0360522744         0.0000000000
   3    1   1    3         0.0000000000         0.0000000000
   3    1   2    3         0.0000000000         0.0000000000
  
   1    3   2    1         0.0000000000         0.0000000000
   1    3   3    1         0.0000000000         0.0000000000
  
   2    3   1    1         0.0000000000         0.0000000000
   2    3   3    1         0.0000000000         0.0000000000
  
   3    3   1    1         0.0000000000         0.0000000000
   3    3   2    1         0.0000000000         0.0000000000
  
  
  Dynamical matrix, in cartesian coordinates,
   if specified in the inputs, asr has been imposed
     j1       j2             matrix element
  dir pert dir pert     real part    imaginary part
  
   1    1   1    1         0.0014715214         0.0000000000
   1    1   2    1         0.0000000000         0.0000000000
   1    1   3    1        -0.0000000000         0.0000000000
  
   2    1   1    1         0.0000000000         0.0000000000
   2    1   2    1         0.0014715214         0.0000000000
   2    1   3    1         0.0000000000         0.0000000000
  
   3    1   1    1         0.0000000000         0.0000000000
   3    1   2    1         0.0000000000         0.0000000000
   3    1   3    1         0.0014715214         0.0000000000
 
  Phonon wavevector (reduced coordinates) :  0.00000  0.00000  0.00000
 Phonon energies in Hartree :
   1.172793E-04  1.172793E-04  1.172793E-04
 Phonon frequencies in cm-1    :
-  2.573982E+01  2.573982E+01  2.573982E+01

================================================================================
== DATASET  3 ==================================================================
-   nproc =    1

 mkfilename : getwfk/=0, take file _WFK from output of DATASET   1.

 Exchange-correlation functional for the present dataset will be:
  LDA: new Teter (4/93) with spin-polarized option - ixc=1
 Citation for XC functional:
  S. Goedecker, M. Teter, J. Huetter, PRB 54, 1703 (1996)

 Real(R)+Recip(G) space primitive vectors, cartesian coordinates (Bohr,Bohr^-1):
 R(1)=  0.0000000  3.5000000  3.5000000  G(1)= -0.1428571  0.1428571  0.1428571
 R(2)=  3.5000000  0.0000000  3.5000000  G(2)=  0.1428571 -0.1428571  0.1428571
 R(3)=  3.5000000  3.5000000  0.0000000  G(3)=  0.1428571  0.1428571 -0.1428571
 Unit cell volume ucvol=  8.5750000E+01 bohr^3
 Angles (23,13,12)=  6.00000000E+01  6.00000000E+01  6.00000000E+01 degrees
 setup1 : take into account q-point for computing boxcut.

 getcut: wavevector=  0.0000  0.0000  0.0000  ngfft=   8   8   8
         ecut(hartree)=      3.000   => boxcut(ratio)=   2.07291
--------------------------------------------------------------------------------

-inwffil : will read wavefunctions from disk file t95o_DS1_WFK
- newkpt: read input wf with ikpt,npw=   1       8, make ikpt,npw=   1      15
- newkpt: read input wf with ikpt,npw=   2      11, make ikpt,npw=   2      22
- newkpt: read input wf with ikpt,npw=   3      11, make ikpt,npw=   3      22
- newkpt: read input wf with ikpt,npw=   4      11, make ikpt,npw=   4      22
- newkpt: read input wf with ikpt,npw=   5      11, make ikpt,npw=   5      22
- newkpt: read input wf with ikpt,npw=   6      11, make ikpt,npw=   6      22
- newkpt: read input wf with ikpt,npw=   7      11, make ikpt,npw=   7      22
- newkpt: read input wf with ikpt,npw=   8      11, make ikpt,npw=   8      22
- newkpt: read input wf with ikpt,npw=   1       8, make ikpt,npw=   1      15
- newkpt: read input wf with ikpt,npw=   2      11, make ikpt,npw=   2      22
- newkpt: read input wf with ikpt,npw=   3      11, make ikpt,npw=   3      22
- newkpt: read input wf with ikpt,npw=   4      11, make ikpt,npw=   4      22
- newkpt: read input wf with ikpt,npw=   5      11, make ikpt,npw=   5      22
- newkpt: read input wf with ikpt,npw=   6      11, make ikpt,npw=   6      22
- newkpt: read input wf with ikpt,npw=   7      11, make ikpt,npw=   7      22
- newkpt: read input wf with ikpt,npw=   8      11, make ikpt,npw=   8      22


 ==>  initialize data related to q vector <== 

 The list of irreducible perturbations for this q vector is:
    1)    idir= 2    ipert=   1

================================================================================

--------------------------------------------------------------------------------
 Perturbation wavevector (in red.coord.)   0.000000  0.000000  0.000000
 Perturbation : displacement of atom   1   along direction   2
 Found     4 symmetries that leave the perturbation invariant.
 symkpt : the number of k-points, thanks to the symmetries,
 is reduced to     5 .

--------------------------------------------------------------------------------

-inwffil : will read wavefunctions from disk file t95o_DS1_WFK
- newkpt: read input wf with ikpt,npw=   1       8, make ikpt,npw=   1      15
- newkpt: read input wf with ikpt,npw=   2      11, make ikpt,npw=   2      22
- newkpt: read input wf with ikpt,npw=   3      11, make ikpt,npw=   3      22
- newkpt: read input wf with ikpt,npw=   4      11, make ikpt,npw=   4      22
- newkpt: read input wf with ikpt,npw=   6      11, make ikpt,npw=   5      22
- newkpt: read input wf with ikpt,npw=   1       8, make ikpt,npw=   1      15
- newkpt: read input wf with ikpt,npw=   2      11, make ikpt,npw=   2      22
- newkpt: read input wf with ikpt,npw=   3      11, make ikpt,npw=   3      22
- newkpt: read input wf with ikpt,npw=   4      11, make ikpt,npw=   4      22
- newkpt: read input wf with ikpt,npw=   6      11, make ikpt,npw=   5      22

--------------------------------------------------------------------------------

-inwffil : will read wavefunctions from disk file t95o_DS1_WFK
- newkpt: read input wf with ikpt,npw=   1       8, make ikpt,npw=   1      15
- newkpt: read input wf with ikpt,npw=   2      11, make ikpt,npw=   2      22
- newkpt: read input wf with ikpt,npw=   3      11, make ikpt,npw=   3      22
- newkpt: read input wf with ikpt,npw=   4      11, make ikpt,npw=   4      22
- newkpt: read input wf with ikpt,npw=   6      11, make ikpt,npw=   5      22
- newkpt: read input wf with ikpt,npw=   1       8, make ikpt,npw=   1      15
- newkpt: read input wf with ikpt,npw=   2      11, make ikpt,npw=   2      22
- newkpt: read input wf with ikpt,npw=   3      11, make ikpt,npw=   3      22
- newkpt: read input wf with ikpt,npw=   4      11, make ikpt,npw=   4      22
- newkpt: read input wf with ikpt,npw=   6      11, make ikpt,npw=   5      22

 loper3 : total number of electrons, from k and k+q
  fully or partially occupied states are    1.000000E+01 and    1.000000E+01.
 Initialisation of the first-order wave-functions :
  ireadwf=   0
P newkpt: treating     14 bands with npw=      15 for ikpt=   1 by node    0
P newkpt: treating     14 bands with npw=      22 for ikpt=   2 by node    0
P newkpt: treating     14 bands with npw=      22 for ikpt=   3 by node    0
P newkpt: treating     14 bands with npw=      22 for ikpt=   4 by node    0
P newkpt: treating     14 bands with npw=      22 for ikpt=   5 by node    0
P newkpt: treating     14 bands with npw=      15 for ikpt=   1 by node    0
P newkpt: treating     14 bands with npw=      22 for ikpt=   2 by node    0
P newkpt: treating     14 bands with npw=      22 for ikpt=   3 by node    0
P newkpt: treating     14 bands with npw=      22 for ikpt=   4 by node    0
P newkpt: treating     14 bands with npw=      22 for ikpt=   5 by node    0


     iter   2DEtotal(Ha)        deltaE(Ha) residm    vres2
-ETOT  1   16.938980522224     -2.320E+01 1.264E-01 1.867E+03
 ETOT  2   1.3909920323090     -1.555E+01 2.848E-03 1.498E+02
 ETOT  3  3.53062490672471E-02 -1.356E+00 1.444E-04 1.629E-03
 ETOT  4  3.52989077336190E-02 -7.341E-06 1.305E-09 3.703E-06

 At SCF step    4       vres2   =  3.70E-06 < tolvrs=  1.00E-05 =>converged.
================================================================================

 ----iterations are completed or convergence reached----

 Mean square residual over all n,k,spin=  -2.8571E-02; max=  1.3048E-09
   0.0000  0.0000  0.0000    1  2.39187E-36 kpt; spin; max resid(k); each band:
  9.22E-55 6.35E-54 6.14E-37 2.39E-36 5.13E-37 7.13E-55 2.77E-59 2.67E-55
  2.26E-53 1.16E-56-1.00E-01-1.00E-01-1.00E-01-1.00E-01
   0.5000  0.0000  0.0000    1  1.30344E-09 kpt; spin; max resid(k); each band:
  2.20E-27 5.14E-27 7.07E-27 1.59E-11 2.98E-11 2.15E-11 5.21E-11 1.72E-26
  1.19E-10 1.30E-09-1.00E-01-1.00E-01-1.00E-01-1.00E-01
   0.0000  0.5000  0.0000    1  6.85115E-10 kpt; spin; max resid(k); each band:
  6.44E-11 1.65E-10 6.85E-10 2.84E-11 2.84E-11 1.46E-11 1.46E-11 2.07E-13
  6.80E-10 6.80E-10-1.00E-01-1.00E-01-1.00E-01-1.00E-01
   0.5000  0.5000  0.0000    1  1.13407E-09 kpt; spin; max resid(k); each band:
  5.40E-10 3.28E-12 1.93E-11 1.90E-11 6.87E-10 1.51E-12 1.53E-16 3.70E-13
  1.13E-09 7.13E-22-1.00E-01-1.00E-01-1.00E-01-1.00E-01
   0.5000  0.0000  0.5000    1  6.69978E-10 kpt; spin; max resid(k); each band:
  1.38E-25 5.00E-26 2.33E-13 2.33E-13 1.58E-24 1.51E-27 4.30E-22 6.70E-10
  6.70E-10 3.77E-22-1.00E-01-1.00E-01-1.00E-01-1.00E-01
   0.0000  0.0000  0.0000    2  6.03793E-36 kpt; spin; max resid(k); each band:
  3.87E-56 1.42E-55 4.83E-36 2.53E-36 6.04E-36 8.44E-57 2.20E-60 3.03E-58
  4.72E-54 1.99E-57-1.00E-01-1.00E-01-1.00E-01-1.00E-01
   0.5000  0.0000  0.0000    2  1.30481E-09 kpt; spin; max resid(k); each band:
  2.46E-28 5.67E-27 5.57E-27 1.59E-11 2.97E-11 2.15E-11 5.21E-11 8.85E-26
  1.18E-10 1.30E-09-1.00E-01-1.00E-01-1.00E-01-1.00E-01
   0.0000  0.5000  0.0000    2  6.84931E-10 kpt; spin; max resid(k); each band:
  6.46E-11 1.65E-10 6.85E-10 2.84E-11 2.84E-11 1.46E-11 1.46E-11 2.07E-13
  6.80E-10 6.80E-10-1.00E-01-1.00E-01-1.00E-01-1.00E-01
   0.5000  0.5000  0.0000    2  1.13486E-09 kpt; spin; max resid(k); each band:
  5.41E-10 3.32E-12 1.93E-11 1.91E-11 6.85E-10 1.51E-12 1.53E-16 3.69E-13
  1.13E-09 4.06E-22-1.00E-01-1.00E-01-1.00E-01-1.00E-01
   0.5000  0.0000  0.5000    2  6.71665E-10 kpt; spin; max resid(k); each band:
  6.15E-23 1.78E-26 2.31E-13 2.31E-13 1.85E-23 2.28E-26 1.29E-21 6.72E-10
  6.72E-10 2.73E-20-1.00E-01-1.00E-01-1.00E-01-1.00E-01

 Thirteen components of 2nd-order total energy (hartree) are
 1,2,3: 0th-order hamiltonian combined with 1st-order wavefunctions
     kin0=   6.65025702E+00 eigvalue=   3.07598827E-01  local=  -1.47178709E+00
 4,5,6: 1st-order hamiltonian combined with 1st and 0th-order wfs
 loc psp =  -8.49251903E+01  Hartree=   1.75187651E+01     xc=  -3.97713751E+00
 note that "loc psp" includes a xc core correction that could be resolved
 7,8,9: eventually, occupation + non-local contributions
    edocc=   2.07443234E+01     enl0=   3.34331091E-01   enl1=   4.71098178E+00
 1-9 gives the relaxation energy (to be shifted if some occ is /=2.0)
   erelax=  -4.01078577E+01
 10,11,12 Non-relaxation  contributions : frozen-wavefunctions and Ewald
 fr.local=   3.27501926E+01 fr.nonlo=  -2.35833935E+00  Ewald=   0.00000000E+00
 13,14 Frozen wf xc core corrections (1) and (2)
 frxc 1  =  -1.89220008E+02  frxc 2 =   1.98971311E+02
 Resulting in :
 2DEtotal=    0.3529890773E-01 Ha. Also 2DEtotal=    0.960532128178E+00 eV
    (2DErelax=   -4.0107857662E+01 Ha. 2DEnonrelax=    4.0143156570E+01 Ha)
    (  non-var. 2DEtotal :    3.6052305212E-02 Ha)

================================================================================

 ---- first-order wavefunction calculations are completed ----


 ==> Compute Derivative Database <==
  
  2nd-order matrix (non-cartesian coordinates, masses not included,
   asr not included )
     j1       j2             matrix element
  dir pert dir pert     real part     imaginary part
  
   1    1   1    1         0.0360523052         0.0000000000
   1    1   2    1         0.0180261526         0.0000000000
   1    1   3    1         0.0180261526         0.0000000000
   1    1   2    3         0.0000000000         0.0000000000
   1    1   3    3         0.0000000000         0.0000000000
  
   2    1   1    1         0.0180261526         0.0000000000
   2    1   2    1         0.0360523052         0.0000000000
   2    1   3    1         0.0180261526         0.0000000000
   2    1   1    3         0.0000000000         0.0000000000
   2    1   3    3         0.0000000000         0.0000000000
  
   3    1   1    1         0.0180261526         0.0000000000
   3    1   2    1         0.0180261526         0.0000000000
   3    1   3    1         0.0360523052         0.0000000000
   3    1   1    3         0.0000000000         0.0000000000
   3    1   2    3         0.0000000000         0.0000000000
  
   1    3   2    1         0.0000000000         0.0000000000
   1    3   3    1         0.0000000000         0.0000000000
  
   2    3   1    1         0.0000000000         0.0000000000
   2    3   3    1         0.0000000000         0.0000000000
  
   3    3   1    1         0.0000000000         0.0000000000
   3    3   2    1         0.0000000000         0.0000000000
  
  
  Dynamical matrix, in cartesian coordinates,
   if specified in the inputs, asr has been imposed
     j1       j2             matrix element
  dir pert dir pert     real part    imaginary part
  
   1    1   1    1         0.0014715227         0.0000000000
   1    1   2    1        -0.0000000000         0.0000000000
   1    1   3    1         0.0000000000         0.0000000000
  
   2    1   1    1         0.0000000000         0.0000000000
   2    1   2    1         0.0014715227         0.0000000000
   2    1   3    1        -0.0000000000         0.0000000000
  
   3    1   1    1         0.0000000000         0.0000000000
   3    1   2    1         0.0000000000         0.0000000000
   3    1   3    1         0.0014715227         0.0000000000
 
  Phonon wavevector (reduced coordinates) :  0.00000  0.00000  0.00000
 Phonon energies in Hartree :
   1.172793E-04  1.172793E-04  1.172793E-04
 Phonon frequencies in cm-1    :
-  2.573983E+01  2.573983E+01  2.573983E+01

================================================================================
== DATASET  4 ==================================================================
-   nproc =    1

 mkfilename : getwfk/=0, take file _WFK from output of DATASET   1.

 Exchange-correlation functional for the present dataset will be:
  LDA: new Teter (4/93) with spin-polarized option - ixc=1
 Citation for XC functional:
  S. Goedecker, M. Teter, J. Huetter, PRB 54, 1703 (1996)

 Real(R)+Recip(G) space primitive vectors, cartesian coordinates (Bohr,Bohr^-1):
 R(1)=  0.0000000  3.5000000  3.5000000  G(1)= -0.1428571  0.1428571  0.1428571
 R(2)=  3.5000000  0.0000000  3.5000000  G(2)=  0.1428571 -0.1428571  0.1428571
 R(3)=  3.5000000  3.5000000  0.0000000  G(3)=  0.1428571  0.1428571 -0.1428571
 Unit cell volume ucvol=  8.5750000E+01 bohr^3
 Angles (23,13,12)=  6.00000000E+01  6.00000000E+01  6.00000000E+01 degrees
 setup1 : take into account q-point for computing boxcut.

 getcut: wavevector=  0.0000  0.0000  0.0000  ngfft=   8   8   8
         ecut(hartree)=      3.000   => boxcut(ratio)=   2.07291
--------------------------------------------------------------------------------

-inwffil : will read wavefunctions from disk file t95o_DS1_WFK
- newkpt: read input wf with ikpt,npw=   1       8, make ikpt,npw=   1      15
- newkpt: read input wf with ikpt,npw=   2      11, make ikpt,npw=   2      22
- newkpt: read input wf with ikpt,npw=   3      11, make ikpt,npw=   3      22
- newkpt: read input wf with ikpt,npw=   4      11, make ikpt,npw=   4      22
- newkpt: read input wf with ikpt,npw=   5      11, make ikpt,npw=   5      22
- newkpt: read input wf with ikpt,npw=   6      11, make ikpt,npw=   6      22
- newkpt: read input wf with ikpt,npw=   7      11, make ikpt,npw=   7      22
- newkpt: read input wf with ikpt,npw=   8      11, make ikpt,npw=   8      22
- newkpt: read input wf with ikpt,npw=   1       8, make ikpt,npw=   1      15
- newkpt: read input wf with ikpt,npw=   2      11, make ikpt,npw=   2      22
- newkpt: read input wf with ikpt,npw=   3      11, make ikpt,npw=   3      22
- newkpt: read input wf with ikpt,npw=   4      11, make ikpt,npw=   4      22
- newkpt: read input wf with ikpt,npw=   5      11, make ikpt,npw=   5      22
- newkpt: read input wf with ikpt,npw=   6      11, make ikpt,npw=   6      22
- newkpt: read input wf with ikpt,npw=   7      11, make ikpt,npw=   7      22
- newkpt: read input wf with ikpt,npw=   8      11, make ikpt,npw=   8      22


 ==>  initialize data related to q vector <== 

 The list of irreducible perturbations for this q vector is:
    1)    idir= 3    ipert=   1

================================================================================

--------------------------------------------------------------------------------
 Perturbation wavevector (in red.coord.)   0.000000  0.000000  0.000000
 Perturbation : displacement of atom   1   along direction   3
 Found     4 symmetries that leave the perturbation invariant.
 symkpt : the number of k-points, thanks to the symmetries,
 is reduced to     5 .

--------------------------------------------------------------------------------

-inwffil : will read wavefunctions from disk file t95o_DS1_WFK
- newkpt: read input wf with ikpt,npw=   1       8, make ikpt,npw=   1      15
- newkpt: read input wf with ikpt,npw=   2      11, make ikpt,npw=   2      22
- newkpt: read input wf with ikpt,npw=   4      11, make ikpt,npw=   3      22
- newkpt: read input wf with ikpt,npw=   5      11, make ikpt,npw=   4      22
- newkpt: read input wf with ikpt,npw=   6      11, make ikpt,npw=   5      22
- newkpt: read input wf with ikpt,npw=   1       8, make ikpt,npw=   1      15
- newkpt: read input wf with ikpt,npw=   2      11, make ikpt,npw=   2      22
- newkpt: read input wf with ikpt,npw=   4      11, make ikpt,npw=   3      22
- newkpt: read input wf with ikpt,npw=   5      11, make ikpt,npw=   4      22
- newkpt: read input wf with ikpt,npw=   6      11, make ikpt,npw=   5      22

--------------------------------------------------------------------------------

-inwffil : will read wavefunctions from disk file t95o_DS1_WFK
- newkpt: read input wf with ikpt,npw=   1       8, make ikpt,npw=   1      15
- newkpt: read input wf with ikpt,npw=   2      11, make ikpt,npw=   2      22
- newkpt: read input wf with ikpt,npw=   4      11, make ikpt,npw=   3      22
- newkpt: read input wf with ikpt,npw=   5      11, make ikpt,npw=   4      22
- newkpt: read input wf with ikpt,npw=   6      11, make ikpt,npw=   5      22
- newkpt: read input wf with ikpt,npw=   1       8, make ikpt,npw=   1      15
- newkpt: read input wf with ikpt,npw=   2      11, make ikpt,npw=   2      22
- newkpt: read input wf with ikpt,npw=   4      11, make ikpt,npw=   3      22
- newkpt: read input wf with ikpt,npw=   5      11, make ikpt,npw=   4      22
- newkpt: read input wf with ikpt,npw=   6      11, make ikpt,npw=   5      22

 loper3 : total number of electrons, from k and k+q
  fully or partially occupied states are    1.000000E+01 and    1.000000E+01.
 Initialisation of the first-order wave-functions :
  ireadwf=   0
P newkpt: treating     14 bands with npw=      15 for ikpt=   1 by node    0
P newkpt: treating     14 bands with npw=      22 for ikpt=   2 by node    0
P newkpt: treating     14 bands with npw=      22 for ikpt=   3 by node    0
P newkpt: treating     14 bands with npw=      22 for ikpt=   4 by node    0
P newkpt: treating     14 bands with npw=      22 for ikpt=   5 by node    0
P newkpt: treating     14 bands with npw=      15 for ikpt=   1 by node    0
P newkpt: treating     14 bands with npw=      22 for ikpt=   2 by node    0
P newkpt: treating     14 bands with npw=      22 for ikpt=   3 by node    0
P newkpt: treating     14 bands with npw=      22 for ikpt=   4 by node    0
P newkpt: treating     14 bands with npw=      22 for ikpt=   5 by node    0


     iter   2DEtotal(Ha)        deltaE(Ha) residm    vres2
-ETOT  1   16.939016901654     -2.320E+01 7.653E-02 1.867E+03
 ETOT  2   1.3909968723233     -1.555E+01 2.577E-03 1.498E+02
 ETOT  3  3.53062542799307E-02 -1.356E+00 1.339E-04 1.629E-03
 ETOT  4  3.52989153595615E-02 -7.339E-06 9.893E-10 3.703E-06

 At SCF step    4       vres2   =  3.70E-06 < tolvrs=  1.00E-05 =>converged.
================================================================================

 ----iterations are completed or convergence reached----

 Mean square residual over all n,k,spin=  -2.8571E-02; max=  9.8933E-10
   0.0000  0.0000  0.0000    1  2.00365E-35 kpt; spin; max resid(k); each band:
  4.09E-56 5.20E-57 2.00E-35 9.50E-38 3.05E-36 3.20E-58 1.02E-56 7.61E-59
  6.63E-49 3.81E-57-1.00E-01-1.00E-01-1.00E-01-1.00E-01
   0.5000  0.0000  0.0000    1  7.99194E-10 kpt; spin; max resid(k); each band:
  2.22E-28 1.38E-27 4.55E-28 3.51E-11 4.19E-14 6.61E-11 2.16E-14 1.20E-27
  7.99E-10 6.12E-10-1.00E-01-1.00E-01-1.00E-01-1.00E-01
   0.5000  0.5000  0.0000    1  9.89333E-10 kpt; spin; max resid(k); each band:
  3.85E-24 5.89E-28 4.66E-13 8.82E-17 1.02E-23 5.84E-26 7.55E-23 9.89E-10
  3.52E-10 1.96E-20-1.00E-01-1.00E-01-1.00E-01-1.00E-01
   0.0000  0.0000  0.5000    1  9.27877E-10 kpt; spin; max resid(k); each band:
  6.44E-11 1.65E-10 6.85E-10 1.62E-11 3.82E-11 7.08E-12 2.13E-11 2.06E-13
  9.28E-10 2.87E-10-1.00E-01-1.00E-01-1.00E-01-1.00E-01
   0.5000  0.0000  0.5000    1  6.88410E-10 kpt; spin; max resid(k); each band:
  5.40E-10 3.29E-12 2.36E-11 1.40E-11 6.88E-10 1.52E-12 1.72E-17 4.00E-23
  3.96E-11 1.21E-20-1.00E-01-1.00E-01-1.00E-01-1.00E-01
   0.0000  0.0000  0.0000    2  1.65537E-34 kpt; spin; max resid(k); each band:
  1.46E-55 1.85E-55 1.66E-34 4.32E-36 1.46E-35 2.07E-59 2.57E-58 3.61E-59
  7.99E-49 4.92E-59-1.00E-01-1.00E-01-1.00E-01-1.00E-01
   0.5000  0.0000  0.0000    2  7.99724E-10 kpt; spin; max resid(k); each band:
  4.68E-28 4.59E-27 4.56E-27 3.50E-11 4.20E-14 6.61E-11 2.17E-14 5.29E-26
  8.00E-10 6.13E-10-1.00E-01-1.00E-01-1.00E-01-1.00E-01
   0.5000  0.5000  0.0000    2  9.91772E-10 kpt; spin; max resid(k); each band:
  2.69E-23 3.26E-26 4.62E-13 8.75E-17 2.35E-23 4.06E-26 2.16E-22 9.92E-10
  3.53E-10 4.48E-20-1.00E-01-1.00E-01-1.00E-01-1.00E-01
   0.0000  0.0000  0.5000    2  9.28621E-10 kpt; spin; max resid(k); each band:
  6.46E-11 1.65E-10 6.85E-10 1.62E-11 3.82E-11 7.08E-12 2.13E-11 2.06E-13
  9.29E-10 2.87E-10-1.00E-01-1.00E-01-1.00E-01-1.00E-01
   0.5000  0.0000  0.5000    2  6.86319E-10 kpt; spin; max resid(k); each band:
  5.41E-10 3.33E-12 2.36E-11 1.40E-11 6.86E-10 1.52E-12 1.73E-17 2.92E-22
  3.95E-11 8.10E-21-1.00E-01-1.00E-01-1.00E-01-1.00E-01

 Thirteen components of 2nd-order total energy (hartree) are
 1,2,3: 0th-order hamiltonian combined with 1st-order wavefunctions
     kin0=   6.65025718E+00 eigvalue=   3.07598812E-01  local=  -1.47178712E+00
 4,5,6: 1st-order hamiltonian combined with 1st and 0th-order wfs
 loc psp =  -8.49251902E+01  Hartree=   1.75187650E+01     xc=  -3.97713749E+00
 note that "loc psp" includes a xc core correction that could be resolved
 7,8,9: eventually, occupation + non-local contributions
    edocc=   2.07443233E+01     enl0=   3.34331087E-01   enl1=   4.71098165E+00
 1-9 gives the relaxation energy (to be shifted if some occ is /=2.0)
   erelax=  -4.01078577E+01
 10,11,12 Non-relaxation  contributions : frozen-wavefunctions and Ewald
 fr.local=   3.27501926E+01 fr.nonlo=  -2.35833935E+00  Ewald=   0.00000000E+00
 13,14 Frozen wf xc core corrections (1) and (2)
 frxc 1  =  -1.89220008E+02  frxc 2 =   1.98971311E+02
 Resulting in :
 2DEtotal=    0.3529891536E-01 Ha. Also 2DEtotal=    0.960532335691E+00 eV
    (2DErelax=   -4.0107857655E+01 Ha. 2DEnonrelax=    4.0143156570E+01 Ha)
    (  non-var. 2DEtotal :    3.6052321161E-02 Ha)

================================================================================

 ---- first-order wavefunction calculations are completed ----


 ==> Compute Derivative Database <==
  
  2nd-order matrix (non-cartesian coordinates, masses not included,
   asr not included )
     j1       j2             matrix element
  dir pert dir pert     real part     imaginary part
  
   1    1   1    1         0.0360523212         0.0000000000
   1    1   2    1         0.0180261606         0.0000000000
[...]
  
 
  Phonon wavevector (reduced coordinates) :  0.50000  0.50000  0.00000
 Phonon energies in Hartree :
   0.000000E+00  0.000000E+00  0.000000E+00
 Phonon frequencies in cm-1    :
-  0.000000E+00  0.000000E+00  0.000000E+00
 chkph3 : WARNING -
  The dynamical matrix was incomplete : phonon frequencies may be wrong ...

== END DATASET(S) ==============================================================
================================================================================
  
 -outvars: echo values of variables after computation  --------
            acell      7.0000000000E+00  7.0000000000E+00  7.0000000000E+00 Bohr
              amu      5.86900000E+01
             ecut      3.00000000E+00 Hartree
           etotal1    -3.2266909878E+01
           etotal2     3.5298915561E-02
           etotal3     3.5298907734E-02
           etotal4     3.5298915360E-02
           etotal5     4.7159072731E+00
           etotal6     5.2246528430E+00
           etotal7     5.2246528720E+00
           etotal8    -5.0036005844E+00
           etotal9    -5.0036006249E+00
           etotal10    4.0275278702E+00
            fcart1    -0.0000000000E+00 -0.0000000000E+00 -0.0000000000E+00
            fcart2     0.0000000000E+00  0.0000000000E+00  0.0000000000E+00
            fcart3     0.0000000000E+00  0.0000000000E+00  0.0000000000E+00
            fcart4     0.0000000000E+00  0.0000000000E+00  0.0000000000E+00
            fcart5     0.0000000000E+00  0.0000000000E+00  0.0000000000E+00
            fcart6     0.0000000000E+00  0.0000000000E+00  0.0000000000E+00
            fcart7     0.0000000000E+00  0.0000000000E+00  0.0000000000E+00
            fcart8     0.0000000000E+00  0.0000000000E+00  0.0000000000E+00
            fcart9     0.0000000000E+00  0.0000000000E+00  0.0000000000E+00
            fcart10    0.0000000000E+00  0.0000000000E+00  0.0000000000E+00
-          fftalg         112
           getwfk1          0
           getwfk2          1
           getwfk3          1
           getwfk4          1
           getwfk5          1
           getwfk6          1
           getwfk7          1
           getwfk8          1
           getwfk9          1
           getwfk10         1
           istwfk1       2    3    6    7    4    5    8    9
           istwfk2       1    1    1    1    1    1    1    1
           istwfk3       1    1    1    1    1    1    1    1
           istwfk4       1    1    1    1    1    1    1    1
           istwfk5       1    1    1    1    1    1    1    1
           istwfk6       1    1    1    1    1    1    1    1
           istwfk7       1    1    1    1    1    1    1    1
           istwfk8       1    1    1    1    1    1    1    1
           istwfk9       1    1    1    1    1    1    1    1
           istwfk10      1    1    1    1    1    1    1    1
           jdtset        1    2    3    4    5    6    7    8    9   10
              kpt      0.00000000E+00  0.00000000E+00  0.00000000E+00
                       5.00000000E-01  0.00000000E+00  0.00000000E+00
                       0.00000000E+00  5.00000000E-01  0.00000000E+00
                       5.00000000E-01  5.00000000E-01  0.00000000E+00
                       0.00000000E+00  0.00000000E+00  5.00000000E-01
                       5.00000000E-01  0.00000000E+00  5.00000000E-01
                       0.00000000E+00  5.00000000E-01  5.00000000E-01
                       5.00000000E-01  5.00000000E-01  5.00000000E-01
           kptopt           3
         kptrlatt        2    0    0      0    2    0      0    0    2
          kptrlen      9.89949494E+00
P           mkmem           8
P          mkqmem           8
P          mk1mem           8
            natom           1
            nband          14
           nbdbuf           4
           ndtset          10
            ngfft           8       8       8
             nkpt           8
            nline1          8
            nline2          4
            nline3          4
            nline4          4
            nline5          4
            nline6          4
            nline7          4
            nline8          4
            nline9          4
            nline10         4
           nnsclo1          2
           nnsclo2          0
           nnsclo3          0
           nnsclo4          0
           nnsclo5          0
           nnsclo6          0
           nnsclo7          0
           nnsclo8          0
           nnsclo9          0
           nnsclo10         0
             nqpt1          0
             nqpt2          1
             nqpt3          1
             nqpt4          1
             nqpt5          1
             nqpt6          1
             nqpt7          1
             nqpt8          1
             nqpt9          1
             nqpt10         1
           nspden           2
           nsppol           2
            nstep         800
             nsym          48
           ntypat           1
              occ      1.000000  1.000000  0.000000  0.000000  0.000000  0.000000
                       0.000000  0.000000  0.000000  0.000000  0.000000  0.000000
                       0.000000  0.000000
                       1.000000  1.000000  1.000000  1.000000  1.000000  0.000000
                       0.000000  0.000000  0.000000  0.000000  0.000000  0.000000
                       0.000000  0.000000
                       1.000000  1.000000  1.000000  1.000000  1.000000  0.000000
                       0.000000  0.000000  0.000000  0.000000  0.000000  0.000000
                       0.000000  0.000000
                       1.000000  1.000000  1.000000  1.000000  1.000000  1.000000
                       0.000000  0.000000  0.000000  0.000000  0.000000  0.000000
                       0.000000  0.000000
                       1.000000  1.000000  1.000000  1.000000  1.000000  0.000000
                       0.000000  0.000000  0.000000  0.000000  0.000000  0.000000
                       0.000000  0.000000
                       1.000000  1.000000  1.000000  1.000000  1.000000  1.000000
                       0.000000  0.000000  0.000000  0.000000  0.000000  0.000000
                       0.000000  0.000000
                       1.000000  1.000000  1.000000  1.000000  1.000000  1.000000
                       0.000000  0.000000  0.000000  0.000000  0.000000  0.000000
                       0.000000  0.000000
                       1.000000  1.000000  1.000000  1.000000  1.000000  0.000000
                       0.000000  0.000000  0.000000  0.000000  0.000000  0.000000
                       0.000000  0.000000
                       1.000000  1.000000  0.000000  0.000000  0.000000  0.000000
                       0.000000  0.000000  0.000000  0.000000  0.000000  0.000000
                       0.000000  0.000000
                       1.000000  1.000000  1.000000  1.000000  1.000000  0.000000
                       0.000000  0.000000  0.000000  0.000000  0.000000  0.000000
                       0.000000  0.000000
                       1.000000  1.000000  1.000000  1.000000  1.000000  0.000000
                       0.000000  0.000000  0.000000  0.000000  0.000000  0.000000
                       0.000000  0.000000
                       1.000000  1.000000  1.000000  1.000000  1.000000  1.000000
                       0.000000  0.000000  0.000000  0.000000  0.000000  0.000000
                       0.000000  0.000000
                       1.000000  1.000000  1.000000  1.000000  1.000000  0.000000
                       0.000000  0.000000  0.000000  0.000000  0.000000  0.000000
                       0.000000  0.000000
                       1.000000  1.000000  1.000000  1.000000  1.000000  1.000000
                       0.000000  0.000000  0.000000  0.000000  0.000000  0.000000
                       0.000000  0.000000
                       1.000000  1.000000  1.000000  1.000000  1.000000  1.000000
                       0.000000  0.000000  0.000000  0.000000  0.000000  0.000000
                       0.000000  0.000000
                       1.000000  1.000000  1.000000  1.000000  1.000000  0.000000
                       0.000000  0.000000  0.000000  0.000000  0.000000  0.000000
                       0.000000  0.000000
           occopt           7
        optdriver1          0
        optdriver2          1
        optdriver3          1
        optdriver4          1
        optdriver5          1
        optdriver6          1
        optdriver7          1
        optdriver8          1
        optdriver9          1
        optdriver10         1
           prtdos1          2
           prtdos2          0
           prtdos3          0
           prtdos4          0
           prtdos5          0
           prtdos6          0
           prtdos7          0
           prtdos8          0
           prtdos9          0
           prtdos10         0
              qpt1     0.00000000E+00  0.00000000E+00  0.00000000E+00
              qpt2     0.00000000E+00  0.00000000E+00  0.00000000E+00
              qpt3     0.00000000E+00  0.00000000E+00  0.00000000E+00
              qpt4     0.00000000E+00  0.00000000E+00  0.00000000E+00
              qpt5     5.00000000E-01  0.00000000E+00  0.00000000E+00
              qpt6     5.00000000E-01  0.00000000E+00  0.00000000E+00
              qpt7     5.00000000E-01  0.00000000E+00  0.00000000E+00
              qpt8     5.00000000E-01  5.00000000E-01  0.00000000E+00
              qpt9     5.00000000E-01  5.00000000E-01  0.00000000E+00
              qpt10    5.00000000E-01  5.00000000E-01  0.00000000E+00
            rfdir1          0       0       0
            rfdir2          1       0       0
            rfdir3          0       1       0
            rfdir4          0       0       1
            rfdir5          1       0       0
            rfdir6          0       1       0
            rfdir7          0       0       1
            rfdir8          1       0       0
            rfdir9          0       1       0
            rfdir10         0       0       1
           rfphon1          0
           rfphon2          1
           rfphon3          1
           rfphon4          1
           rfphon5          1
           rfphon6          1
           rfphon7          1
           rfphon8          1
           rfphon9          1
           rfphon10         1
            rprim      0.0000000000E+00  5.0000000000E-01  5.0000000000E-01
                       5.0000000000E-01  0.0000000000E+00  5.0000000000E-01
                       5.0000000000E-01  5.0000000000E-01  0.0000000000E+00
          spgroup         225
           spinat1     0.0000000000E+00  0.0000000000E+00  2.0000000000E-01
           spinat2     0.0000000000E+00  0.0000000000E+00  0.0000000000E+00
           spinat3     0.0000000000E+00  0.0000000000E+00  0.0000000000E+00
           spinat4     0.0000000000E+00  0.0000000000E+00  0.0000000000E+00
           spinat5     0.0000000000E+00  0.0000000000E+00  0.0000000000E+00
           spinat6     0.0000000000E+00  0.0000000000E+00  0.0000000000E+00
           spinat7     0.0000000000E+00  0.0000000000E+00  0.0000000000E+00
           spinat8     0.0000000000E+00  0.0000000000E+00  0.0000000000E+00
           spinat9     0.0000000000E+00  0.0000000000E+00  0.0000000000E+00
           spinat10    0.0000000000E+00  0.0000000000E+00  0.0000000000E+00
           strten1    -7.2832096633E-03 -7.2832096633E-03 -7.2832096633E-03
                       0.0000000000E+00  0.0000000000E+00  0.0000000000E+00
           strten2     0.0000000000E+00  0.0000000000E+00  0.0000000000E+00
                       0.0000000000E+00  0.0000000000E+00  0.0000000000E+00
           strten3     0.0000000000E+00  0.0000000000E+00  0.0000000000E+00
                       0.0000000000E+00  0.0000000000E+00  0.0000000000E+00
           strten4     0.0000000000E+00  0.0000000000E+00  0.0000000000E+00
                       0.0000000000E+00  0.0000000000E+00  0.0000000000E+00
           strten5     0.0000000000E+00  0.0000000000E+00  0.0000000000E+00
                       0.0000000000E+00  0.0000000000E+00  0.0000000000E+00
           strten6     0.0000000000E+00  0.0000000000E+00  0.0000000000E+00
                       0.0000000000E+00  0.0000000000E+00  0.0000000000E+00
           strten7     0.0000000000E+00  0.0000000000E+00  0.0000000000E+00
                       0.0000000000E+00  0.0000000000E+00  0.0000000000E+00
           strten8     0.0000000000E+00  0.0000000000E+00  0.0000000000E+00
                       0.0000000000E+00  0.0000000000E+00  0.0000000000E+00
           strten9     0.0000000000E+00  0.0000000000E+00  0.0000000000E+00
                       0.0000000000E+00  0.0000000000E+00  0.0000000000E+00
           strten10    0.0000000000E+00  0.0000000000E+00  0.0000000000E+00
                       0.0000000000E+00  0.0000000000E+00  0.0000000000E+00
           symrel      1  0  0   0  1  0   0  0  1      -1  0  0   0 -1  0   0  0 -1
                       0 -1  1   0 -1  0   1 -1  0       0  1 -1   0  1  0  -1  1  0
                      -1  0  0  -1  0  1  -1  1  0       1  0  0   1  0 -1   1 -1  0
                       0  1 -1   1  0 -1   0  0 -1       0 -1  1  -1  0  1   0  0  1
                      -1  0  0  -1  1  0  -1  0  1       1  0  0   1 -1  0   1  0 -1
                       0 -1  1   1 -1  0   0 -1  0       0  1 -1  -1  1  0   0  1  0
                       1  0  0   0  0  1   0  1  0      -1  0  0   0  0 -1   0 -1  0
                       0  1 -1   0  0 -1   1  0 -1       0 -1  1   0  0  1  -1  0  1
                      -1  0  1  -1  1  0  -1  0  0       1  0 -1   1 -1  0   1  0  0
                       0 -1  0   1 -1  0   0 -1  1       0  1  0  -1  1  0   0  1 -1
                       1  0 -1   0  0 -1   0  1 -1      -1  0  1   0  0  1   0 -1  1
                       0  1  0   0  0  1   1  0  0       0 -1  0   0  0 -1  -1  0  0
                       1  0 -1   0  1 -1   0  0 -1      -1  0  1   0 -1  1   0  0  1
                       0 -1  0   0 -1  1   1 -1  0       0  1  0   0  1 -1  -1  1  0
                      -1  0  1  -1  0  0  -1  1  0       1  0 -1   1  0  0   1 -1  0
                       0  1  0   1  0  0   0  0  1       0 -1  0  -1  0  0   0  0 -1
                       0  0 -1   0  1 -1   1  0 -1       0  0  1   0 -1  1  -1  0  1
                       1 -1  0   0 -1  1   0 -1  0      -1  1  0   0  1 -1   0  1  0
                       0  0  1   1  0  0   0  1  0       0  0 -1  -1  0  0   0 -1  0
                      -1  1  0  -1  0  0  -1  0  1       1 -1  0   1  0  0   1  0 -1
                       0  0  1   0  1  0   1  0  0       0  0 -1   0 -1  0  -1  0  0
                       1 -1  0   0 -1  0   0 -1  1      -1  1  0   0  1  0   0  1 -1
                       0  0 -1   1  0 -1   0  1 -1       0  0  1  -1  0  1   0 -1  1
                      -1  1  0  -1  0  1  -1  0  0       1 -1  0   1  0 -1   1  0  0
           tolvrs1     0.00000000E+00
           tolvrs2     1.00000000E-05
           tolvrs3     1.00000000E-05
           tolvrs4     1.00000000E-05
           tolvrs5     1.00000000E-05
           tolvrs6     1.00000000E-05
           tolvrs7     1.00000000E-05
           tolvrs8     1.00000000E-05
           tolvrs9     1.00000000E-05
           tolvrs10    1.00000000E-05
           tolwfr1     1.00000000E-14
           tolwfr2     0.00000000E+00
           tolwfr3     0.00000000E+00
           tolwfr4     0.00000000E+00
           tolwfr5     0.00000000E+00
           tolwfr6     0.00000000E+00
           tolwfr7     0.00000000E+00
           tolwfr8     0.00000000E+00
           tolwfr9     0.00000000E+00
           tolwfr10    0.00000000E+00
           tsmear      1.00000000E-03 Hartree
            typat      1
              wtk        0.12500    0.12500    0.12500    0.12500    0.12500    0.12500
                         0.12500    0.12500
            znucl       28.00000

================================================================================


- Timing analysis has been suppressed with timopt=0



================================================================================

 Suggested references for the acknowledgment of ABINIT usage.

 The users of ABINIT have little formal obligations with respect to the ABINIT group
 (those specified in the GNU General Public License, http://www.gnu.org/copyleft/gpl.txt).
 However, it is common practice in the scientific literature,
 to acknowledge the efforts of people that have made the research possible.
 In this spirit, please find below suggested citations of work written by ABINIT developers,
 corresponding to implementations inside of ABINIT that you have used in the present run.
 Note also that it will be of great value to readers of publications presenting these results,
 to read papers enabling them to understand the theoretical formalism and details
 of the ABINIT implementation.
 For information on why they are suggested, see also http://www.abinit.org/about/?text=acknowledgments.

 [1] First-principles responses of solids to atomic displacements and homogeneous electric fields:,
 implementation of a conjugate-gradient algorithm. X. Gonze, Phys. Rev. B55, 10337 (1997).
 Comment : Non-vanishing rfphon and/or rfelfd, in the norm-conserving case.

 [2] Dynamical matrices, Born effective charges, dielectric permittivity tensors, and ,
 interatomic force constants from density-functional perturbation theory,
 X. Gonze and C. Lee, Phys. Rev. B55, 10355 (1997).
 Comment : Non-vanishing rfphon and/or rfelfd, in the norm-conserving case.

 [3] ABINIT : First-principles approach of materials and nanosystem properties.
 X. Gonze, B. Amadon, P.-M. Anglade, J.-M. Beuken, F. Bottin, P. Boulanger, F. Bruneval,
 D. Caliste, R. Caracas, M. Cote, T. Deutsch, L. Genovese, Ph. Ghosez, M. Giantomassi
 S. Goedecker, D.R. Hamann, P. Hermet, F. Jollet, G. Jomard, S. Leroux, M. Mancini, S. Mazevet,
 M.J.T. Oliveira, G. Onida, Y. Pouillon, T. Rangel, G.-M. Rignanese, D. Sangalli, R. Shaltaf,
 M. Torrent, M.J. Verstraete, G. Zerah, J.W. Zwanziger
 Computer Phys. Comm. 180, 2582-2615 (2009).
 Comment : the third generic paper describing the ABINIT project.
 Note that a version of this paper, that is not formatted for Computer Phys. Comm. 
 is available at http://www.abinit.org/about/ABINIT_CPC_v10.pdf .
 The licence allows the authors to put it on the Web.

 [4] A brief introduction to the ABINIT software package.
 X. Gonze, G.-M. Rignanese, M. Verstraete, J.-M. Beuken, Y. Pouillon, R. Caracas, F. Jollet,
 M. Torrent, G. Zerah, M. Mikami, Ph. Ghosez, M. Veithen, J.-Y. Raty, V. Olevano, F. Bruneval,
 L. Reining, R. Godby, G. Onida, D.R. Hamann, and D.C. Allan.
 Z. Kristallogr. 220, 558-562 (2005).
 Comment : the second generic paper describing the ABINIT project. Note that this paper
 should be cited especially if you are using the GW part of ABINIT, as several authors
 of this part are not in the list of authors of the first or third paper.
 The .pdf of the latter paper is available at http://www.abinit.org/about/zfk_0505-06_558-562.pdf.
 Note that it should not redistributed (Copyright by Oldenburg Wissenshaftverlag,
 the licence allows the authors to put it on the Web).


 And optionally :

 [5] First-principles computation of material properties : the ABINIT software project. 
 X. Gonze, J.-M. Beuken, R. Caracas, F. Detraux, M. Fuchs, G.-M. Rignanese, L. Sindic,
 M. Verstraete, G. Zerah, F. Jollet, M. Torrent, A. Roy, M. Mikami, Ph. Ghosez, J.-Y. Raty, D.C. Allan.
 Computational Materials Science 25, 478-492 (2002). http://dx.doi.org/10.1016/S0927-0256(02)00325-7
 Comment : the original paper describing the ABINIT project.
-
- Proc.   0 individual time (sec): cpu=          3.1  wall=          3.1

================================================================================

 Calculation completed.
.Delivered  205 WARNINGs and   0 COMMENTs to log file.
+Overall time at end (sec) : cpu=          3.1  wall=          3.1
