
.Version 7.9.3 of ABINIT 
.(MPI version, prepared for a x86_64_linux_gnu4.7 computer) 

.Copyright (C) 1998-2014 ABINIT group . 
 ABINIT comes with ABSOLUTELY NO WARRANTY.
 It is free software, and you are welcome to redistribute it
 under certain conditions (GNU General Public License,
 see ~abinit/COPYING or http://www.gnu.org/copyleft/gpl.txt).

 ABINIT is a project of the Universite Catholique de Louvain,
 Corning Inc. and other collaborators, see ~abinit/doc/developers/contributors.txt .
 Please read ~abinit/doc/users/acknowledgments.html for suggested
 acknowledgments of the ABINIT effort.
 For more information, see http://www.abinit.org .

.Starting date : Sat 30 Aug 2014.
- ( at 22h42 )
  
- input  file    -> t02.in
- output file    -> t02.out
- root for input  files -> t02i
- root for output files -> t02o


 DATASET    1 : space group Fd -3 m (#227); Bravais cF (face-center cubic)
================================================================================
 Values of the parameters that define the memory need for DATASET  1.
   intxc =         0  ionmov =         0    iscf =         7 xclevel =         1
  lmnmax =         2   lnmax =         2   mband =        30  mffmem =         1
P  mgfft =        20   mkmem =        16 mpssoang=         3     mpw =       302
  mqgrid =      3001   natom =         2    nfft =      8000    nkpt =        16
  nloalg =         4  nspden =         1 nspinor =         1  nsppol =         1
    nsym =        48  n1xccc =      2501  ntypat =         1  occopt =         1
================================================================================
P This job should need less than                       5.222 Mbytes of memory.
  Rough estimation (10% accuracy) of disk space for files :
_ WF disk file :      2.214 Mbytes ; DEN or POT disk file :      0.063 Mbytes.
================================================================================


 DATASET    2 : space group Fd -3 m (#227); Bravais cF (face-center cubic)
================================================================================
 Values of the parameters that define the memory need for DATASET  2.
   intxc =         0  ionmov =         0    iscf =         7 xclevel =         1
  lmnmax =         2   lnmax =         2   mband =        15  mffmem =         1
P  mgfft =        18   mkmem =        16 mpssoang=         3     mpw =       274
  mqgrid =      3001   natom =         2    nfft =      5832    nkpt =        16
  nloalg =         4  nspden =         1 nspinor =         1  nsppol =         1
    nsym =        48  n1xccc =      2501  ntypat =         1  occopt =         1
================================================================================
P This job should need less than                       3.344 Mbytes of memory.
  Rough estimation (10% accuracy) of disk space for files :
_ WF disk file :      1.005 Mbytes ; DEN or POT disk file :      0.046 Mbytes.
================================================================================


 DATASET    3 : space group Fd -3 m (#227); Bravais cF (face-center cubic)
================================================================================
 Values of the parameters that define the memory need for DATASET  3.
   intxc =         0  ionmov =         0    iscf =         7 xclevel =         1
  lmnmax =         2   lnmax =         2   mband =        25  mffmem =         1
P  mgfft =        18   mkmem =        16 mpssoang=         3     mpw =       274
  mqgrid =      3001   natom =         2    nfft =      5832    nkpt =        16
  nloalg =         4  nspden =         1 nspinor =         1  nsppol =         1
    nsym =        48  n1xccc =      2501  ntypat =         1  occopt =         1
================================================================================
P This job should need less than                       4.048 Mbytes of memory.
  Rough estimation (10% accuracy) of disk space for files :
_ WF disk file :      1.674 Mbytes ; DEN or POT disk file :      0.046 Mbytes.
================================================================================


 DATASET    4 : space group Fd -3 m (#227); Bravais cF (face-center cubic)
================================================================================
 Values of the parameters that define the memory need for DATASET  4.
   intxc =         0  ionmov =         0    iscf =         7 xclevel =         1
  lmnmax =         2   lnmax =         2   mband =        25  mffmem =         1
P  mgfft =        18   mkmem =        16 mpssoang=         3     mpw =       274
  mqgrid =      3001   natom =         2    nfft =      5832    nkpt =        16
  nloalg =         4  nspden =         1 nspinor =         1  nsppol =         1
    nsym =        48  n1xccc =      2501  ntypat =         1  occopt =         1
================================================================================
P This job should need less than                       4.048 Mbytes of memory.
  Rough estimation (10% accuracy) of disk space for files :
_ WF disk file :      1.674 Mbytes ; DEN or POT disk file :      0.046 Mbytes.
================================================================================


 DATASET    5 : space group Fd -3 m (#227); Bravais cF (face-center cubic)
================================================================================
 Values of the parameters that define the memory need for DATASET  5.
   intxc =         0  ionmov =         0    iscf =         7 xclevel =         1
  lmnmax =         2   lnmax =         2   mband =        25  mffmem =         1
P  mgfft =        18   mkmem =        16 mpssoang=         3     mpw =       274
  mqgrid =      3001   natom =         2    nfft =      5832    nkpt =        16
  nloalg =         4  nspden =         1 nspinor =         1  nsppol =         1
    nsym =        48  n1xccc =      2501  ntypat =         1  occopt =         1
================================================================================
P This job should need less than                       4.048 Mbytes of memory.
  Rough estimation (10% accuracy) of disk space for files :
_ WF disk file :      1.674 Mbytes ; DEN or POT disk file :      0.046 Mbytes.
================================================================================

--------------------------------------------------------------------------------
------------- Echo of variables that govern the present computation ------------
--------------------------------------------------------------------------------
-
- outvars: echo of selected default values                                      
-   accesswff0 =  0 , fftalg0 =112 , wfoptalg0 =  0
-
- outvars: echo of global parameters not present in the input file              
-  max_nthreads =    0
-
 -outvars: echo values of preprocessed input variables --------
            acell      1.0217000000E+01  1.0217000000E+01  1.0217000000E+01 Bohr
              amu      2.80855000E+01
             bdgw           2       6
           diemac      1.20000000E+01
             ecut1     8.00000000E+00 Hartree
             ecut2     7.56385066E+00 Hartree
             ecut3     7.56385066E+00 Hartree
             ecut4     7.56385066E+00 Hartree
             ecut5     7.56385066E+00 Hartree
          ecuteps1     0.00000000E+00 Hartree
          ecuteps2     7.56385066E-01 Hartree
          ecuteps3     0.00000000E+00 Hartree
          ecuteps4     0.00000000E+00 Hartree
          ecuteps5     0.00000000E+00 Hartree
         ecutsigx1     0.00000000E+00 Hartree
         ecutsigx2     0.00000000E+00 Hartree
         ecutsigx3     2.26915520E+00 Hartree
         ecutsigx4     2.26915520E+00 Hartree
         ecutsigx5     2.26915520E+00 Hartree
          ecutwfn1     8.00000000E+00 Hartree
          ecutwfn2     7.56385066E+00 Hartree
          ecutwfn3     7.56385066E+00 Hartree
          ecutwfn4     7.56385066E+00 Hartree
          ecutwfn5     7.56385066E+00 Hartree
-          fftalg         112
            fftgw          11
        freqspmax1     0.00000000E+00 Hartree
        freqspmax2     0.00000000E+00 Hartree
        freqspmax3     7.34986508E-01 Hartree
        freqspmax4     1.83746627E-01 Hartree
        freqspmax5     0.00000000E+00 Hartree
        freqspmin1    -0.00000000E+00 Hartree
        freqspmin2    -0.00000000E+00 Hartree
        freqspmin3    -7.34986508E-01 Hartree
        freqspmin4    -2.93994603E-01 Hartree
        freqspmin5    -0.00000000E+00 Hartree
           getkss1          0
           getkss2         -1
           getkss3          1
           getkss4          1
           getkss5          1
           getscr1          0
           getscr2          0
           getscr3          2
           getscr4          2
           getscr5          2
           gwpara           2
 gw_customnfreqsp1          0
 gw_customnfreqsp2          0
 gw_customnfreqsp3          0
 gw_customnfreqsp4          0
 gw_customnfreqsp5          8
        gw_freqsp5      -0.01102   -0.00367    0.01213    0.03675    0.18375    0.36749    1.83747    3.67493 Hartree
         icutcoul1          6
         icutcoul2          6
         icutcoul3          3
         icutcoul4          3
         icutcoul5          3
          inclvkb1          1
          inclvkb2          2
          inclvkb3          1
          inclvkb4          1
          inclvkb5          1
           istwfk        1    0    0    1    0    0    0    0    0    0
                         0    0    1    0    0    0
           jdtset        1    2    3    4    5
              kpt      0.00000000E+00  0.00000000E+00  0.00000000E+00
                       1.66666667E-01  0.00000000E+00  0.00000000E+00
                       3.33333333E-01  0.00000000E+00  0.00000000E+00
                       5.00000000E-01  0.00000000E+00  0.00000000E+00
                       1.66666667E-01  1.66666667E-01  0.00000000E+00
                       3.33333333E-01  1.66666667E-01  0.00000000E+00
                       5.00000000E-01  1.66666667E-01  0.00000000E+00
                      -3.33333333E-01  1.66666667E-01  0.00000000E+00
                      -1.66666667E-01  1.66666667E-01  0.00000000E+00
                       3.33333333E-01  3.33333333E-01  0.00000000E+00
                       5.00000000E-01  3.33333333E-01  0.00000000E+00
                      -3.33333333E-01  3.33333333E-01  0.00000000E+00
                       5.00000000E-01  5.00000000E-01  0.00000000E+00
                       5.00000000E-01  3.33333333E-01  1.66666667E-01
                      -3.33333333E-01  3.33333333E-01  1.66666667E-01
                      -3.33333333E-01  5.00000000E-01  1.66666667E-01
         kptrlatt        6    0    0      0    6    0      0    0    6
          kptrlen      4.33470599E+01
          kssform1          3
          kssform2          1
          kssform3          1
          kssform4          1
          kssform5          1
P           mkmem          16
            natom           2
            nband1         30
            nband2         15
            nband3         25
            nband4         25
            nband5         25
         nbandkss1         25
         nbandkss2          0
         nbandkss3          0
         nbandkss4          0
         nbandkss5          0
           nbdbuf1          5
           nbdbuf2          0
           nbdbuf3          0
           nbdbuf4          0
           nbdbuf5          0
           ndtset           5
          nfreqim1         -1
          nfreqim2         10
          nfreqim3         -1
          nfreqim4         -1
          nfreqim5         -1
          nfreqsp1          0
          nfreqsp2          0
          nfreqsp3        500
          nfreqsp4         50
          nfreqsp5          8
            ngfft1         20      20      20
            ngfft2         18      18      18
            ngfft3         18      18      18
            ngfft4         18      18      18
            ngfft5         18      18      18
             nkpt          16
           nkptgw           1
         nomegasf1        100
         nomegasf2         50
         nomegasf3        100
         nomegasf4        100
         nomegasf5        100
         nomegasi1         12
         nomegasi2         12
         nomegasi3         10
         nomegasi4         10
         nomegasi5         10
           npweps1          0
           npweps2         15
           npweps3          0
           npweps4          0
           npweps5          0
          npwsigx1          0
          npwsigx2          0
          npwsigx3         59
          npwsigx4         59
          npwsigx5         59
           npwwfn1          0
           npwwfn2        283
           npwwfn3        283
           npwwfn4        283
           npwwfn5        283
           nsheps1          0
           nsheps2          3
           nsheps3          0
           nsheps4          0
           nsheps5          0
          nshsigx1          0
          nshsigx2          0
          nshsigx3          6
          nshsigx4          6
          nshsigx5          6
            nstep          50
             nsym          48
           ntypat           1
              occ1     2.000000  2.000000  2.000000  2.000000  0.000000  0.000000
                       0.000000  0.000000  0.000000  0.000000  0.000000  0.000000
                       0.000000  0.000000  0.000000  0.000000  0.000000  0.000000
                       0.000000  0.000000  0.000000  0.000000  0.000000  0.000000
                       0.000000  0.000000  0.000000  0.000000  0.000000  0.000000
              occ2     2.000000  2.000000  2.000000  2.000000  0.000000  0.000000
                       0.000000  0.000000  0.000000  0.000000  0.000000  0.000000
                       0.000000  0.000000  0.000000
              occ3     2.000000  2.000000  2.000000  2.000000  0.000000  0.000000
                       0.000000  0.000000  0.000000  0.000000  0.000000  0.000000
                       0.000000  0.000000  0.000000  0.000000  0.000000  0.000000
                       0.000000  0.000000  0.000000  0.000000  0.000000  0.000000
                       0.000000
              occ4     2.000000  2.000000  2.000000  2.000000  0.000000  0.000000
                       0.000000  0.000000  0.000000  0.000000  0.000000  0.000000
                       0.000000  0.000000  0.000000  0.000000  0.000000  0.000000
                       0.000000  0.000000  0.000000  0.000000  0.000000  0.000000
                       0.000000
              occ5     2.000000  2.000000  2.000000  2.000000  0.000000  0.000000
                       0.000000  0.000000  0.000000  0.000000  0.000000  0.000000
                       0.000000  0.000000  0.000000  0.000000  0.000000  0.000000
                       0.000000  0.000000  0.000000  0.000000  0.000000  0.000000
                       0.000000
       omegasimax1     1.83746627E+00 Hartree
       omegasimax2     1.83746627E+00 Hartree
       omegasimax3     3.67493254E-01 Hartree
       omegasimax4     3.67493254E-01 Hartree
       omegasimax5     3.67493254E-01 Hartree
        optdriver1          0
        optdriver2          3
        optdriver3          4
        optdriver4          4
        optdriver5          4
            rprim      0.0000000000E+00  5.0000000000E-01  5.0000000000E-01
                       5.0000000000E-01  0.0000000000E+00  5.0000000000E-01
                       5.0000000000E-01  5.0000000000E-01  0.0000000000E+00
          spbroad1     1.00000001E-01 Hartree
          spbroad2     3.67493254E-02 Hartree
          spbroad3     1.00000001E-01 Hartree
          spbroad4     1.00000001E-01 Hartree
          spbroad5     1.00000001E-01 Hartree
          spgroup         227
           spmeth1          0
           spmeth2          2
           spmeth3          0
           spmeth4          0
           spmeth5          0
           symchi1       0
           symchi2       1
           symchi3       0
           symchi4       0
           symchi5       0
           symrel      1  0  0   0  1  0   0  0  1      -1  0  0   0 -1  0   0  0 -1
                       0 -1  1   0 -1  0   1 -1  0       0  1 -1   0  1  0  -1  1  0
                      -1  0  0  -1  0  1  -1  1  0       1  0  0   1  0 -1   1 -1  0
                       0  1 -1   1  0 -1   0  0 -1       0 -1  1  -1  0  1   0  0  1
                      -1  0  0  -1  1  0  -1  0  1       1  0  0   1 -1  0   1  0 -1
                       0 -1  1   1 -1  0   0 -1  0       0  1 -1  -1  1  0   0  1  0
                       1  0  0   0  0  1   0  1  0      -1  0  0   0  0 -1   0 -1  0
                       0  1 -1   0  0 -1   1  0 -1       0 -1  1   0  0  1  -1  0  1
                      -1  0  1  -1  1  0  -1  0  0       1  0 -1   1 -1  0   1  0  0
                       0 -1  0   1 -1  0   0 -1  1       0  1  0  -1  1  0   0  1 -1
                       1  0 -1   0  0 -1   0  1 -1      -1  0  1   0  0  1   0 -1  1
                       0  1  0   0  0  1   1  0  0       0 -1  0   0  0 -1  -1  0  0
                       1  0 -1   0  1 -1   0  0 -1      -1  0  1   0 -1  1   0  0  1
                       0 -1  0   0 -1  1   1 -1  0       0  1  0   0  1 -1  -1  1  0
                      -1  0  1  -1  0  0  -1  1  0       1  0 -1   1  0  0   1 -1  0
                       0  1  0   1  0  0   0  0  1       0 -1  0  -1  0  0   0  0 -1
                       0  0 -1   0  1 -1   1  0 -1       0  0  1   0 -1  1  -1  0  1
                       1 -1  0   0 -1  1   0 -1  0      -1  1  0   0  1 -1   0  1  0
                       0  0  1   1  0  0   0  1  0       0  0 -1  -1  0  0   0 -1  0
                      -1  1  0  -1  0  0  -1  0  1       1 -1  0   1  0  0   1  0 -1
                       0  0  1   0  1  0   1  0  0       0  0 -1   0 -1  0  -1  0  0
                       1 -1  0   0 -1  0   0 -1  1      -1  1  0   0  1  0   0  1 -1
                       0  0 -1   1  0 -1   0  1 -1       0  0  1  -1  0  1   0 -1  1
                      -1  1  0  -1  0  1  -1  0  0       1 -1  0   1  0 -1   1  0  0
            tnons      0.0000000  0.0000000  0.0000000     0.2500000  0.2500000  0.2500000
                       0.0000000  0.0000000  0.0000000     0.2500000  0.2500000  0.2500000
                       0.0000000  0.0000000  0.0000000     0.2500000  0.2500000  0.2500000
                       0.0000000  0.0000000  0.0000000     0.2500000  0.2500000  0.2500000
                       0.0000000  0.0000000  0.0000000     0.2500000  0.2500000  0.2500000
                       0.0000000  0.0000000  0.0000000     0.2500000  0.2500000  0.2500000
                       0.0000000  0.0000000  0.0000000     0.2500000  0.2500000  0.2500000
                       0.0000000  0.0000000  0.0000000     0.2500000  0.2500000  0.2500000
                       0.0000000  0.0000000  0.0000000     0.2500000  0.2500000  0.2500000
                       0.0000000  0.0000000  0.0000000     0.2500000  0.2500000  0.2500000
                       0.0000000  0.0000000  0.0000000     0.2500000  0.2500000  0.2500000
                       0.0000000  0.0000000  0.0000000     0.2500000  0.2500000  0.2500000
                       0.0000000  0.0000000  0.0000000     0.2500000  0.2500000  0.2500000
                       0.0000000  0.0000000  0.0000000     0.2500000  0.2500000  0.2500000
                       0.0000000  0.0000000  0.0000000     0.2500000  0.2500000  0.2500000
                       0.0000000  0.0000000  0.0000000     0.2500000  0.2500000  0.2500000
                       0.0000000  0.0000000  0.0000000     0.2500000  0.2500000  0.2500000
                       0.0000000  0.0000000  0.0000000     0.2500000  0.2500000  0.2500000
                       0.0000000  0.0000000  0.0000000     0.2500000  0.2500000  0.2500000
                       0.0000000  0.0000000  0.0000000     0.2500000  0.2500000  0.2500000
                       0.0000000  0.0000000  0.0000000     0.2500000  0.2500000  0.2500000
                       0.0000000  0.0000000  0.0000000     0.2500000  0.2500000  0.2500000
                       0.0000000  0.0000000  0.0000000     0.2500000  0.2500000  0.2500000
                       0.0000000  0.0000000  0.0000000     0.2500000  0.2500000  0.2500000
           tolwfr      1.00000000E-10
            typat      1  1
              wtk        0.00463    0.03704    0.03704    0.01852    0.02778    0.11111
                         0.11111    0.11111    0.05556    0.02778    0.11111    0.05556
                         0.01389    0.11111    0.11111    0.05556
           xangst      0.0000000000E+00  0.0000000000E+00  0.0000000000E+00
                       1.3516508850E+00  1.3516508850E+00  1.3516508850E+00
            xcart      0.0000000000E+00  0.0000000000E+00  0.0000000000E+00
                       2.5542500000E+00  2.5542500000E+00  2.5542500000E+00
             xred      0.0000000000E+00  0.0000000000E+00  0.0000000000E+00
                       2.5000000000E-01  2.5000000000E-01  2.5000000000E-01
            znucl       14.00000

================================================================================

 chkinp: Checking input parameters for consistency, jdtset=   1.

 chkinp: Checking input parameters for consistency, jdtset=   2.

 chkinp: Checking input parameters for consistency, jdtset=   3.

 chkinp: Checking input parameters for consistency, jdtset=   4.

 chkinp: Checking input parameters for consistency, jdtset=   5.

================================================================================
== DATASET  1 ==================================================================
-   nproc =    1

 Exchange-correlation functional for the present dataset will be:
  LDA: new Teter (4/93) with spin-polarized option - ixc=1
 Citation for XC functional:
  S. Goedecker, M. Teter, J. Huetter, PRB 54, 1703 (1996)

 Real(R)+Recip(G) space primitive vectors, cartesian coordinates (Bohr,Bohr^-1):
 R(1)=  0.0000000  5.1085000  5.1085000  G(1)= -0.0978761  0.0978761  0.0978761
 R(2)=  5.1085000  0.0000000  5.1085000  G(2)=  0.0978761 -0.0978761  0.0978761
 R(3)=  5.1085000  5.1085000  0.0000000  G(3)=  0.0978761  0.0978761 -0.0978761
 Unit cell volume ucvol=  2.6663072E+02 bohr^3
 Angles (23,13,12)=  6.00000000E+01  6.00000000E+01  6.00000000E+01 degrees

 getcut: wavevector=  0.0000  0.0000  0.0000  ngfft=  20  20  20
         ecut(hartree)=      8.000   => boxcut(ratio)=   2.17426

--- Pseudopotential description ------------------------------------------------
- pspini: atom type   1  psp file is /home/gonze/ABINIT/ABINITv7.9.3/trunk/7.9.3-private/tests/Psps_for_tests/14si.pspnc
- pspatm: opening atomic psp file    /home/gonze/ABINIT/ABINITv7.9.3/trunk/7.9.3-private/tests/Psps_for_tests/14si.pspnc
-  Troullier-Martins psp for element  Si        Thu Oct 27 17:31:21 EDT 1994
- 14.00000   4.00000    940714                znucl, zion, pspdat
    1    1    2    2      2001   0.00000      pspcod,pspxc,lmax,lloc,mmax,r2well
    0   5.907  14.692    1   2.0872718        l,e99.0,e99.9,nproj,rcpsp
   0.00000000   0.00000000   0.00000000   0.00000000     rms, ekb1, ekb2, epsatm
    1   2.617   4.181    1   2.0872718        l,e99.0,e99.9,nproj,rcpsp
   0.00000000   0.00000000   0.00000000   0.00000000     rms, ekb1, ekb2, epsatm
    2   0.000   0.000    0   2.0872718        l,e99.0,e99.9,nproj,rcpsp
   0.00000000   0.00000000   0.00000000   0.00000000     rms, ekb1, ekb2, epsatm
    1.80626423934776    0.22824404341771    1.17378968127746   rchrg,fchrg,qchrg
 pspatm: epsatm=    1.43386982
         --- l  ekb(1:nproj) -->
             0    3.287949
             1    1.849886
 pspatm: atomic psp has been read  and splines computed

   2.29419171E+01                                ecore*ucvol(ha*bohr**3)
--------------------------------------------------------------------------------

P newkpt: treating     30 bands with npw=     283 for ikpt=   1 by node    0
P newkpt: treating     30 bands with npw=     295 for ikpt=   2 by node    0
P newkpt: treating     30 bands with npw=     287 for ikpt=   3 by node    0
P newkpt: treating     30 bands with npw=     272 for ikpt=   4 by node    0
P newkpt: treating     30 bands with npw=     295 for ikpt=   5 by node    0
P newkpt: treating     30 bands with npw=     294 for ikpt=   6 by node    0
P newkpt: treating     30 bands with npw=     283 for ikpt=   7 by node    0
P newkpt: treating     30 bands with npw=     284 for ikpt=   8 by node    0
P newkpt: treating     30 bands with npw=     295 for ikpt=   9 by node    0
P newkpt: treating     30 bands with npw=     302 for ikpt=  10 by node    0
P newkpt: treating     30 bands with npw=     290 for ikpt=  11 by node    0
P newkpt: treating     30 bands with npw=     284 for ikpt=  12 by node    0
P newkpt: treating     30 bands with npw=     302 for ikpt=  13 by node    0
P newkpt: treating     30 bands with npw=     288 for ikpt=  14 by node    0
P newkpt: treating     30 bands with npw=     286 for ikpt=  15 by node    0
P newkpt: treating     30 bands with npw=     282 for ikpt=  16 by node    0

_setup2: Arith. and geom. avg. npw (full set) are     288.181     288.126

================================================================================

     iter   Etot(hartree)      deltaE(h)  residm     vres2
 ETOT  1  -8.8665583109195    -8.867E+00 4.904E-03 5.902E+00
 ETOT  2  -8.8716164865711    -5.058E-03 7.865E-06 1.499E-01
 ETOT  3  -8.8716870540290    -7.057E-05 9.162E-06 3.282E-03
 ETOT  4  -8.8716880857431    -1.032E-06 3.499E-07 1.367E-05
 ETOT  5  -8.8716880912524    -5.509E-09 1.992E-09 6.991E-09
 ETOT  6  -8.8716880912534    -9.770E-13 8.968E-11 2.131E-11

 At SCF step    6   max residual=  8.97E-11 < tolwfr=  1.00E-10 =>converged.

 Cartesian components of stress tensor (hartree/bohr^3)
  sigma(1 1)=  2.76864062E-05  sigma(3 2)=  0.00000000E+00
  sigma(2 2)=  2.76864062E-05  sigma(3 1)=  0.00000000E+00
  sigma(3 3)=  2.76864062E-05  sigma(2 1)=  0.00000000E+00


======================================================================
 Calculating and writing out Kohn-Sham electronic Structure file
 Using conjugate gradient wavefunctions and energies (kssform=3)
 number of Gamma centered plane waves    459
 number of Gamma centered shells     24
 number of bands     25
 maximum angular momentum components      3
 Conjugate gradient eigenvalues
   k    eigenvalues [Hartree]
   1     -0.2266  0.2177  0.2177  0.2177  0.3105  0.3105  0.3105  0.3373  0.4995
          0.5079  0.5079  0.6288  0.6288  0.6288  0.7714  1.0767  1.0767  1.0767
          1.1190  1.1190  1.1538  1.1538  1.1538  1.3050  1.3050
   2     -0.2131  0.1287  0.2006  0.2006  0.3015  0.3346  0.3346  0.4142  0.4812
          0.4812  0.5428  0.6042  0.7009  0.7009  0.8473  0.9568  0.9568  0.9714
          1.1079  1.1079  1.1825  1.1825  1.2327  1.3172  1.3658
   3     -0.1751  0.0188  0.1800  0.1800  0.2797  0.3456  0.3456  0.5006  0.5141
          0.5141  0.5456  0.7106  0.7607  0.7607  0.8323  0.8689  0.8689  1.0155
          1.1160  1.1160  1.1476  1.2007  1.2007  1.2993  1.3026
   4     -0.1390 -0.0425  0.1727  0.1727  0.2715  0.3395  0.3395  0.4944  0.6131
          0.6131  0.6288  0.6360  0.6360  0.6855  0.9301  0.9489  1.0212  1.0212
          1.0284  1.0284  1.1618  1.2007  1.2007  1.2247  1.2247
   5     -0.2085  0.1422  0.1726  0.1726  0.2773  0.3728  0.3771  0.3771  0.4594
          0.5278  0.5671  0.6603  0.6603  0.6811  0.8884  0.9357  0.9357  0.9866
          1.0193  1.0990  1.1990  1.2127  1.2127  1.3975  1.3975
   6     -0.1781  0.0528  0.1426  0.1519  0.2870  0.3648  0.3828  0.4043  0.5505
          0.5558  0.5952  0.6853  0.7272  0.7827  0.8071  0.8408  0.9493  0.9828
          1.0160  1.0753  1.1598  1.1944  1.2270  1.3049  1.3148
   7     -0.1333 -0.0283  0.1133  0.1509  0.2897  0.3673  0.3872  0.4526  0.5606
          0.6082  0.6475  0.6565  0.6783  0.8104  0.8773  0.9211  0.9591  0.9793
          1.0011  1.0614  1.0987  1.1819  1.2146  1.2249  1.2348
   8     -0.1478 -0.0058  0.1030  0.1689  0.3052  0.3674  0.3725  0.4829  0.4899
          0.5610  0.6370  0.6889  0.7619  0.7906  0.8155  0.8779  0.9581  1.0267
          1.0360  1.0637  1.1337  1.1348  1.2183  1.2383  1.2492
   9     -0.1911  0.0796  0.1264  0.1964  0.3274  0.3473  0.3575  0.4228  0.4438
          0.5629  0.5957  0.6392  0.7092  0.7911  0.8110  0.9045  0.9767  0.9835
          0.9897  1.0483  1.1913  1.2062  1.2632  1.3039  1.3500
  10     -0.1555  0.0323  0.1268  0.1268  0.2401  0.2869  0.4848  0.4848  0.5736
          0.5862  0.6904  0.7183  0.7183  0.7722  0.8170  0.8170  0.8215  0.9101
          1.0665  1.1243  1.1579  1.1579  1.1890  1.2358  1.2494
  11     -0.1120 -0.0254  0.0807  0.1218  0.2527  0.3147  0.4914  0.4925  0.6068
          0.6151  0.6770  0.6858  0.7552  0.7978  0.8115  0.9020  0.9054  0.9343
          0.9751  1.0518  1.0740  1.0869  1.1205  1.2038  1.2925
  12     -0.1044 -0.0333  0.0512  0.1383  0.2715  0.4304  0.4555  0.4766  0.4871
          0.5033  0.7435  0.7625  0.7910  0.8051  0.8331  0.8683  0.8933  0.9516
          1.0400  1.0532  1.0619  1.0879  1.1995  1.2112  1.2303
  13     -0.0720 -0.0720  0.1106  0.1106  0.2393  0.2393  0.5863  0.5863  0.6278
          0.6278  0.6850  0.6850  0.6887  0.6887  0.9132  0.9132  0.9405  0.9405
          0.9632  0.9632  0.9958  0.9958  1.1654  1.1654  1.3039
  14     -0.1410  0.0087  0.0831  0.1311  0.3202  0.3518  0.3719  0.4777  0.5498
          0.5812  0.6938  0.7060  0.7253  0.7687  0.8263  0.8775  0.9399  0.9901
          0.9945  1.0544  1.1041  1.1167  1.1970  1.2325  1.2534
  15     -0.1040 -0.0362  0.0666  0.1134  0.3385  0.3466  0.4412  0.4560  0.4959
          0.6287  0.6571  0.7093  0.8148  0.8375  0.8476  0.8783  0.8993  0.9743
          0.9929  1.0173  1.0635  1.1579  1.1681  1.1715  1.2450
  16     -0.0673 -0.0673  0.0802  0.0802  0.3160  0.3160  0.4656  0.4656  0.6083
          0.6083  0.6945  0.6945  0.8242  0.8242  0.8543  0.8543  0.9051  0.9051
          1.0120  1.0120  1.0717  1.0717  1.1330  1.1330  1.3020
 Test on the normalization of the wavefunctions
  min sum_G |a(n,k,G)| =  1.000000
  max sum_G |a(n,k,G)| =  1.000000
 Test on the orthogonalization of the wavefunctions
  min sum_G a(n,k,G)a(n',k,G) =  0.000000
  max sum_G a(n,k,G)a(n',k,G) =  0.000000

================================================================================

 ----iterations are completed or convergence reached----

 Mean square residual over all n,k,spin=   3.1335E-07; max=  3.1514E-05
   0.0000  0.0000  0.0000    1  8.96759E-11 kpt; spin; max resid(k); each band:
  4.47E-13 1.27E-11 1.27E-11 1.27E-11 3.45E-13 3.45E-13 3.45E-13 6.28E-13
  1.26E-12 4.01E-11 4.01E-11 6.97E-13 6.97E-13 6.97E-13 7.50E-13 7.37E-13
  7.37E-13 7.37E-13 8.96E-11 8.97E-11 6.41E-13 6.39E-13 6.41E-13 5.53E-12
  5.53E-12 5.53E-12 8.90E-12 3.57E-12 5.22E-11 6.20E-11
   0.1667  0.0000  0.0000    1  4.68871E-06 kpt; spin; max resid(k); each band:
  4.45E-13 4.26E-13 3.30E-13 3.29E-13 4.85E-13 4.10E-13 4.05E-13 5.80E-13
  5.30E-13 4.96E-13 9.41E-13 8.21E-13 6.13E-13 6.04E-13 8.58E-13 7.72E-13
  7.87E-13 1.05E-12 4.30E-13 4.42E-13 8.74E-13 8.03E-13 1.10E-12 5.67E-12
  1.39E-11 3.97E-11 6.28E-11 1.73E-09 3.27E-08 4.69E-06
   0.3333  0.0000  0.0000    1  3.62514E-07 kpt; spin; max resid(k); each band:
  3.96E-13 4.35E-13 3.45E-13 3.36E-13 5.38E-13 4.55E-13 4.62E-13 6.45E-13
  4.97E-13 4.59E-13 8.45E-13 9.37E-13 3.70E-13 3.50E-13 7.15E-13 7.91E-13
  8.12E-13 1.09E-12 4.41E-13 6.10E-13 7.49E-13 1.41E-12 6.07E-13 5.45E-12
  1.96E-12 2.16E-12 5.29E-11 3.65E-10 3.63E-07 5.90E-08
   0.5000  0.0000  0.0000    1  1.28368E-05 kpt; spin; max resid(k); each band:
  9.44E-13 4.61E-13 3.64E-13 1.19E-12 5.47E-13 5.09E-13 4.93E-13 7.77E-13
  8.63E-13 9.68E-13 6.91E-13 5.59E-13 5.57E-13 1.31E-12 8.77E-13 1.20E-12
  1.06E-12 1.01E-12 3.16E-13 4.12E-13 8.88E-12 4.95E-13 5.44E-13 2.28E-12
  2.28E-12 1.39E-12 9.02E-10 1.51E-07 1.28E-05 3.83E-06
   0.1667  0.1667  0.0000    1  8.60332E-11 kpt; spin; max resid(k); each band:
  4.40E-13 3.87E-13 3.68E-13 3.68E-13 5.03E-13 5.71E-13 3.53E-13 3.53E-13
  6.03E-13 4.13E-11 9.72E-13 6.68E-13 6.69E-13 6.16E-13 8.32E-13 6.88E-13
  6.89E-13 2.61E-13 4.86E-13 7.90E-13 7.79E-13 5.88E-13 5.88E-13 2.88E-12
  1.92E-11 6.40E-11 1.85E-12 4.27E-11 7.61E-11 8.60E-11
   0.3333  0.1667  0.0000    1  2.21562E-08 kpt; spin; max resid(k); each band:
  4.12E-13 4.06E-13 4.09E-13 3.73E-13 5.46E-13 5.22E-13 5.21E-13 4.42E-13
  6.23E-13 4.14E-13 8.02E-13 8.88E-13 4.50E-13 4.61E-13 8.19E-13 8.72E-13
  6.17E-13 3.85E-13 7.93E-13 1.08E-12 8.05E-13 8.57E-13 7.02E-13 1.79E-12
  1.60E-12 3.05E-12 1.67E-11 5.43E-11 4.85E-11 2.22E-08
   0.5000  0.1667  0.0000    1  1.36630E-06 kpt; spin; max resid(k); each band:
  3.76E-13 4.36E-13 4.27E-13 3.81E-13 5.85E-13 5.25E-13 4.92E-13 4.98E-13
  6.36E-13 4.02E-13 7.39E-13 4.53E-13 7.03E-13 6.25E-13 7.53E-13 7.87E-13
  1.17E-12 4.73E-13 4.76E-13 5.78E-13 7.42E-13 1.74E-12 1.61E-12 1.48E-11
  2.15E-12 1.22E-12 3.81E-12 7.13E-12 7.58E-11 1.37E-06
  -0.3333  0.1667  0.0000    1  1.76937E-06 kpt; spin; max resid(k); each band:
  3.88E-13 4.20E-13 4.45E-13 3.65E-13 5.74E-13 5.41E-13 4.90E-13 5.31E-13
  5.09E-13 5.72E-13 7.03E-13 4.57E-13 8.76E-13 4.08E-13 6.81E-13 8.07E-13
  3.55E-13 4.15E-13 8.55E-13 7.85E-13 1.13E-12 7.61E-13 1.71E-12 1.35E-12
  1.15E-12 1.60E-12 7.77E-13 8.04E-11 2.86E-08 1.77E-06
  -0.1667  0.1667  0.0000    1  1.68521E-05 kpt; spin; max resid(k); each band:
  4.24E-13 3.85E-13 4.41E-13 1.35E-11 5.06E-13 7.82E-13 5.02E-13 5.54E-13
  5.45E-13 5.39E-13 8.94E-13 5.80E-13 6.73E-13 8.13E-13 4.94E-13 5.57E-13
  7.71E-13 4.45E-13 1.32E-12 4.20E-13 9.17E-13 1.01E-12 3.27E-12 4.36E-12
  5.44E-12 2.10E-11 3.13E-11 3.77E-06 1.67E-06 1.69E-05
   0.3333  0.3333  0.0000    1  3.15143E-05 kpt; spin; max resid(k); each band:
  4.00E-13 3.65E-13 4.62E-13 7.32E-13 6.13E-13 6.14E-13 4.41E-13 4.43E-13
  8.01E-13 5.51E-11 1.02E-12 4.04E-13 4.78E-13 5.80E-13 9.82E-13 9.75E-13
  6.51E-11 7.80E-13 4.75E-13 7.89E-13 8.93E-13 1.18E-12 1.39E-12 9.07E-13
  5.34E-13 8.11E-13 1.48E-12 3.25E-09 4.25E-08 3.15E-05
   0.5000  0.3333  0.0000    1  4.73123E-08 kpt; spin; max resid(k); each band:
  3.73E-13 3.39E-13 4.81E-13 4.09E-13 6.11E-13 5.65E-13 5.36E-13 4.60E-13
  5.67E-13 4.33E-13 8.40E-13 7.00E-13 8.08E-13 7.27E-13 2.01E-12 9.53E-13
  6.41E-13 8.67E-13 6.61E-13 7.75E-13 8.09E-13 8.09E-13 4.93E-13 7.21E-13
  2.14E-12 7.28E-13 1.52E-11 4.25E-12 5.86E-11 4.73E-08
  -0.3333  0.3333  0.0000    1  3.00551E-05 kpt; spin; max resid(k); each band:
  3.51E-13 4.27E-13 5.16E-13 9.06E-13 6.28E-13 5.22E-13 5.01E-13 5.20E-13
  6.15E-13 5.32E-13 7.13E-13 8.90E-13 6.47E-13 1.71E-12 4.47E-13 3.72E-13
  4.92E-13 1.16E-12 4.57E-13 4.38E-13 1.09E-12 9.94E-13 6.75E-13 8.87E-13
  1.05E-12 1.88E-12 6.71E-12 1.07E-12 8.20E-06 3.01E-05
   0.5000  0.5000  0.0000    1  1.77467E-09 kpt; spin; max resid(k); each band:
  3.71E-13 3.71E-13 4.10E-13 4.09E-13 6.39E-13 6.38E-13 1.77E-12 1.77E-12
  3.74E-13 3.74E-13 7.76E-11 7.73E-11 8.16E-13 8.12E-13 1.06E-12 1.08E-12
  1.03E-12 1.03E-12 4.21E-13 4.21E-13 1.08E-12 1.08E-12 3.36E-13 3.36E-13
  3.49E-13 3.43E-13 4.58E-11 1.30E-09 8.60E-11 1.77E-09
   0.5000  0.3333  0.1667    1  2.35092E-05 kpt; spin; max resid(k); each band:
  3.95E-13 5.00E-13 4.94E-13 4.71E-13 5.55E-13 6.11E-13 5.19E-13 4.13E-13
  5.37E-13 6.97E-13 6.94E-13 4.38E-13 8.95E-13 6.15E-13 9.14E-13 5.78E-13
  6.46E-13 3.91E-13 9.38E-13 1.65E-12 1.10E-12 1.35E-12 2.59E-12 3.68E-12
  2.30E-12 1.87E-11 7.67E-11 1.32E-09 9.59E-06 2.35E-05
  -0.3333  0.3333  0.1667    1  3.85477E-09 kpt; spin; max resid(k); each band:
  3.60E-13 3.87E-13 4.90E-13 4.54E-13 5.61E-13 5.33E-13 5.09E-13 5.21E-13
  4.37E-13 3.73E-13 6.06E-13 8.46E-13 5.05E-13 6.78E-13 5.24E-13 5.58E-13
  7.57E-13 6.81E-13 3.70E-13 9.64E-13 8.59E-13 1.14E-12 1.16E-12 7.99E-13
  2.14E-12 1.40E-11 2.33E-11 3.51E-11 6.50E-11 3.85E-09
  -0.3333  0.5000  0.1667    1  2.02182E-11 kpt; spin; max resid(k); each band:
  3.50E-13 3.50E-13 4.82E-13 4.82E-13 5.63E-13 5.63E-13 4.97E-13 4.97E-13
  4.31E-13 4.31E-13 5.48E-13 5.48E-13 6.34E-13 6.34E-13 4.96E-13 4.96E-13
  9.16E-13 9.16E-13 2.93E-13 2.93E-13 1.42E-12 1.42E-12 7.62E-13 7.62E-13
  1.78E-12 1.78E-12 2.41E-12 2.39E-12 1.50E-11 2.02E-11
 reduced coordinates (array xred) for    2 atoms
       0.000000000000      0.000000000000      0.000000000000
       0.250000000000      0.250000000000      0.250000000000
 rms dE/dt=  0.0000E+00; max dE/dt=  0.0000E+00; dE/dt below (all hartree)
    1       0.000000000000      0.000000000000      0.000000000000
    2       0.000000000000      0.000000000000      0.000000000000

 cartesian coordinates (angstrom) at end:
    1      0.00000000000000     0.00000000000000     0.00000000000000
    2      1.35165088504101     1.35165088504101     1.35165088504101

 cartesian forces (hartree/bohr) at end:
    1     -0.00000000000000    -0.00000000000000    -0.00000000000000
    2     -0.00000000000000    -0.00000000000000    -0.00000000000000
 frms,max,avg= 0.0000000E+00 0.0000000E+00   0.000E+00  0.000E+00  0.000E+00 h/b

 cartesian forces (eV/Angstrom) at end:
    1     -0.00000000000000    -0.00000000000000    -0.00000000000000
    2     -0.00000000000000    -0.00000000000000    -0.00000000000000
 frms,max,avg= 0.0000000E+00 0.0000000E+00   0.000E+00  0.000E+00  0.000E+00 e/A
 length scales= 10.217000000000 10.217000000000 10.217000000000 bohr
              =  5.406603540164  5.406603540164  5.406603540164 angstroms
 prteigrs : about to open file t02o_DS1_EIG
 Fermi (or HOMO) energy (hartree) =   0.21766   Average Vxc (hartree)=  -0.35442
 Eigenvalues (hartree) for nkpt=  16  k points:
 kpt#   1, nband= 30, wtk=  0.00463, kpt=  0.0000  0.0000  0.0000 (reduced coord)
  -0.22658   0.21766   0.21766   0.21766   0.31050   0.31050   0.31050   0.33730
   0.49951   0.50790   0.50790   0.62882   0.62882   0.62882   0.77141   1.07666
   1.07666   1.07666   1.11904   1.11904   1.15381   1.15381   1.15381   1.30497
   1.30497   1.30497   1.50071   1.52232   1.52232   1.52232
 kpt#   2, nband= 30, wtk=  0.03704, kpt=  0.1667  0.0000  0.0000 (reduced coord)
  -0.21309   0.12870   0.20060   0.20060   0.30149   0.33462   0.33462   0.41418
   0.48122   0.48122   0.54276   0.60420   0.70095   0.70095   0.84728   0.95678
   0.95678   0.97142   1.10791   1.10791   1.18252   1.18252   1.23274   1.31722
   1.36578   1.42568   1.42568   1.47720   1.47720   1.53811
 kpt#   3, nband= 30, wtk=  0.03704, kpt=  0.3333  0.0000  0.0000 (reduced coord)
  -0.17509   0.01878   0.18004   0.18004   0.27972   0.34562   0.34562   0.50065
   0.51410   0.51410   0.54563   0.71055   0.76071   0.76071   0.83233   0.86890
   0.86890   1.01547   1.11596   1.11596   1.14762   1.20065   1.20065   1.29928
   1.30257   1.30257   1.34946   1.43002   1.43002   1.47220
 kpt#   4, nband= 30, wtk=  0.01852, kpt=  0.5000  0.0000  0.0000 (reduced coord)
  -0.13904  -0.04246   0.17275   0.17275   0.27154   0.33952   0.33952   0.49443
   0.61305   0.61305   0.62884   0.63600   0.63600   0.68553   0.93012   0.94886
   1.02117   1.02117   1.02838   1.02838   1.16180   1.20069   1.20069   1.22466
   1.22466   1.25277   1.37311   1.40813   1.40818   1.41572
 kpt#   5, nband= 30, wtk=  0.02778, kpt=  0.1667  0.1667  0.0000 (reduced coord)
  -0.20852   0.14220   0.17258   0.17258   0.27732   0.37280   0.37709   0.37709
   0.45937   0.52777   0.56708   0.66028   0.66028   0.68111   0.88843   0.93570
   0.93570   0.98663   1.01930   1.09904   1.19895   1.21272   1.21272   1.39751
   1.39751   1.40887   1.42552   1.42552   1.44068   1.45541
 kpt#   6, nband= 30, wtk=  0.11111, kpt=  0.3333  0.1667  0.0000 (reduced coord)
  -0.17806   0.05283   0.14259   0.15192   0.28697   0.36479   0.38279   0.40428
   0.55050   0.55575   0.59517   0.68534   0.72715   0.78271   0.80711   0.84085
   0.94927   0.98281   1.01603   1.07533   1.15980   1.19435   1.22703   1.30490
   1.31476   1.32628   1.39365   1.41698   1.43572   1.48185
 kpt#   7, nband= 30, wtk=  0.11111, kpt=  0.5000  0.1667  0.0000 (reduced coord)
  -0.13328  -0.02834   0.11331   0.15093   0.28973   0.36733   0.38722   0.45264
   0.56063   0.60816   0.64747   0.65646   0.67827   0.81042   0.87728   0.92107
   0.95915   0.97933   1.00105   1.06143   1.09871   1.18191   1.21456   1.22494
   1.23483   1.29944   1.32080   1.33442   1.40183   1.46968
 kpt#   8, nband= 30, wtk=  0.11111, kpt= -0.3333  0.1667  0.0000 (reduced coord)
  -0.14780  -0.00583   0.10304   0.16893   0.30524   0.36742   0.37246   0.48287
   0.48985   0.56104   0.63704   0.68894   0.76189   0.79064   0.81552   0.87792
   0.95815   1.02671   1.03600   1.06372   1.13367   1.13480   1.21834   1.23826
   1.24918   1.27023   1.31149   1.40349   1.45076   1.47486
 kpt#   9, nband= 30, wtk=  0.05556, kpt= -0.1667  0.1667  0.0000 (reduced coord)
  -0.19112   0.07962   0.12639   0.19642   0.32738   0.34733   0.35748   0.42277
   0.44382   0.56294   0.59566   0.63920   0.70915   0.79115   0.81105   0.90447
   0.97672   0.98351   0.98965   1.04834   1.19127   1.20624   1.26320   1.30386
   1.34997   1.35431   1.37902   1.47231   1.48106   1.49076
 kpt#  10, nband= 30, wtk=  0.02778, kpt=  0.3333  0.3333  0.0000 (reduced coord)
  -0.15553   0.03231   0.12680   0.12680   0.24015   0.28695   0.48477   0.48477
   0.57357   0.58621   0.69036   0.71828   0.71828   0.77219   0.81704   0.81704
   0.82151   0.91012   1.06652   1.12427   1.15789   1.15789   1.18899   1.23578
   1.24939   1.27798   1.27798   1.47982   1.53012   1.53063
 kpt#  11, nband= 30, wtk=  0.11111, kpt=  0.5000  0.3333  0.0000 (reduced coord)
  -0.11200  -0.02541   0.08072   0.12175   0.25265   0.31473   0.49141   0.49250
   0.60676   0.61510   0.67699   0.68576   0.75516   0.79777   0.81148   0.90196
   0.90535   0.93430   0.97505   1.05183   1.07405   1.08695   1.12049   1.20382
   1.29249   1.29593   1.38864   1.39318   1.40857   1.48772
 kpt#  12, nband= 30, wtk=  0.05556, kpt= -0.3333  0.3333  0.0000 (reduced coord)
  -0.10442  -0.03328   0.05119   0.13833   0.27155   0.43037   0.45553   0.47663
   0.48711   0.50329   0.74346   0.76248   0.79103   0.80506   0.83306   0.86831
   0.89327   0.95158   1.03995   1.05321   1.06191   1.08793   1.19953   1.21116
   1.23031   1.25958   1.29717   1.29846   1.49764   1.50434
 kpt#  13, nband= 30, wtk=  0.01389, kpt=  0.5000  0.5000  0.0000 (reduced coord)
  -0.07202  -0.07202   0.11058   0.11058   0.23930   0.23930   0.58635   0.58635
   0.62781   0.62781   0.68496   0.68496   0.68868   0.68868   0.91315   0.91315
   0.94051   0.94051   0.96323   0.96323   0.99581   0.99581   1.16543   1.16543
   1.30390   1.30390   1.46985   1.46985   1.47375   1.47375
 kpt#  14, nband= 30, wtk=  0.11111, kpt=  0.5000  0.3333  0.1667 (reduced coord)
  -0.14105   0.00867   0.08305   0.13108   0.32022   0.35177   0.37189   0.47773
   0.54976   0.58120   0.69381   0.70601   0.72534   0.76867   0.82630   0.87745
   0.93988   0.99006   0.99453   1.05440   1.10411   1.11669   1.19696   1.23250
   1.25341   1.33079   1.37411   1.38833   1.41479   1.42740
 kpt#  15, nband= 30, wtk=  0.11111, kpt= -0.3333  0.3333  0.1667 (reduced coord)
  -0.10402  -0.03624   0.06664   0.11342   0.33847   0.34662   0.44118   0.45595
   0.49593   0.62869   0.65706   0.70931   0.81478   0.83749   0.84761   0.87826
   0.89929   0.97432   0.99292   1.01727   1.06353   1.15794   1.16815   1.17153
   1.24502   1.30738   1.33985   1.35692   1.36787   1.40687
 kpt#  16, nband= 30, wtk=  0.05556, kpt= -0.3333  0.5000  0.1667 (reduced coord)
  -0.06731  -0.06731   0.08019   0.08019   0.31600   0.31600   0.46558   0.46558
   0.60835   0.60835   0.69448   0.69448   0.82420   0.82420   0.85428   0.85428
   0.90509   0.90509   1.01205   1.01205   1.07168   1.07168   1.13296   1.13296
   1.30205   1.30205   1.35558   1.35558   1.41601   1.41601
 Total charge density [el/Bohr^3]
,     Maximum=    8.5999E-02  at reduced coord.    0.1000    0.1000    0.7000
,Next maximum=    8.5999E-02  at reduced coord.    0.1500    0.1500    0.5500
,     Minimum=    3.4698E-03  at reduced coord.    0.5000    0.5000    0.5000
,Next minimum=    3.4698E-03  at reduced coord.    0.7500    0.7500    0.7500
,  Integrated=    8.0000E+00

--------------------------------------------------------------------------------
 Components of total free energy (in Hartree) :

    Kinetic energy  =  3.02923675082961E+00
    Hartree energy  =  5.39965567979230E-01
    XC energy       = -3.53945919029368E+00
    Ewald energy    = -8.43581958561899E+00
    PspCore energy  =  8.60437873148613E-02
    Loc. psp. energy= -2.43330466453661E+00
    NL   psp  energy=  1.88164924307216E+00
    >>>>>>>>> Etotal= -8.87168809125343E+00

 Other information on the energy :
    Total energy(eV)= -2.41410910137288E+02 ; Band energy (Ha)=   2.3374776183E-01
--------------------------------------------------------------------------------

 Cartesian components of stress tensor (hartree/bohr^3)
  sigma(1 1)=  2.76864062E-05  sigma(3 2)=  0.00000000E+00
  sigma(2 2)=  2.76864062E-05  sigma(3 1)=  0.00000000E+00
  sigma(3 3)=  2.76864062E-05  sigma(2 1)=  0.00000000E+00

-Cartesian components of stress tensor (GPa)         [Pressure= -8.1456E-01 GPa]
- sigma(1 1)=  8.14562055E-01  sigma(3 2)=  0.00000000E+00
- sigma(2 2)=  8.14562055E-01  sigma(3 1)=  0.00000000E+00
- sigma(3 3)=  8.14562055E-01  sigma(2 1)=  0.00000000E+00

================================================================================
== DATASET  2 ==================================================================
-   nproc =    1

 mkfilename : getkss/=0, take file _KSS from output of DATASET   1.

 Exchange-correlation functional for the present dataset will be:
  LDA: new Teter (4/93) with spin-polarized option - ixc=1
 Citation for XC functional:
  S. Goedecker, M. Teter, J. Huetter, PRB 54, 1703 (1996)

 SCREENING: Calculation of the susceptibility and dielectric matrices 

 Based on a program developped by R.W. Godby, V. Olevano, G. Onida, and L. Reining.
 Incorporated in ABINIT by V. Olevano, G.-M. Rignanese, and M. Torrent.
.Using double precision arithmetic ; gwpc =  8

 Real(R)+Recip(G) space primitive vectors, cartesian coordinates (Bohr,Bohr^-1):
 R(1)=  0.0000000  5.1085000  5.1085000  G(1)= -0.0978761  0.0978761  0.0978761
 R(2)=  5.1085000  0.0000000  5.1085000  G(2)=  0.0978761 -0.0978761  0.0978761
 R(3)=  5.1085000  5.1085000  0.0000000  G(3)=  0.0978761  0.0978761 -0.0978761
 Unit cell volume ucvol=  2.6663072E+02 bohr^3
 Angles (23,13,12)=  6.00000000E+01  6.00000000E+01  6.00000000E+01 degrees

--- Pseudopotential description ------------------------------------------------
- pspini: atom type   1  psp file is /home/gonze/ABINIT/ABINITv7.9.3/trunk/7.9.3-private/tests/Psps_for_tests/14si.pspnc
- pspatm: opening atomic psp file    /home/gonze/ABINIT/ABINITv7.9.3/trunk/7.9.3-private/tests/Psps_for_tests/14si.pspnc
-  Troullier-Martins psp for element  Si        Thu Oct 27 17:31:21 EDT 1994
- 14.00000   4.00000    940714                znucl, zion, pspdat
    1    1    2    2      2001   0.00000      pspcod,pspxc,lmax,lloc,mmax,r2well
    0   5.907  14.692    1   2.0872718        l,e99.0,e99.9,nproj,rcpsp
   0.00000000   0.00000000   0.00000000   0.00000000     rms, ekb1, ekb2, epsatm
    1   2.617   4.181    1   2.0872718        l,e99.0,e99.9,nproj,rcpsp
   0.00000000   0.00000000   0.00000000   0.00000000     rms, ekb1, ekb2, epsatm
    2   0.000   0.000    0   2.0872718        l,e99.0,e99.9,nproj,rcpsp
   0.00000000   0.00000000   0.00000000   0.00000000     rms, ekb1, ekb2, epsatm
    1.80626423934776    0.22824404341771    1.17378968127746   rchrg,fchrg,qchrg
 pspatm: epsatm=    1.43386982
         --- l  ekb(1:nproj) -->
             0    3.287949
             1    1.849886
 pspatm: atomic psp has been read  and splines computed

--------------------------------------------------------------------------------

 ==== K-mesh for the wavefunctions ====
 Number of points in the irreducible wedge :    16
 Reduced coordinates and weights : 

     1)     0.00000000E+00  0.00000000E+00  0.00000000E+00       0.00463
     2)     1.66666667E-01  0.00000000E+00  0.00000000E+00       0.03704
     3)     3.33333333E-01  0.00000000E+00  0.00000000E+00       0.03704
     4)     5.00000000E-01  0.00000000E+00  0.00000000E+00       0.01852
     5)     1.66666667E-01  1.66666667E-01  0.00000000E+00       0.02778
     6)     3.33333333E-01  1.66666667E-01  0.00000000E+00       0.11111
     7)     5.00000000E-01  1.66666667E-01  0.00000000E+00       0.11111
     8)    -3.33333333E-01  1.66666667E-01  0.00000000E+00       0.11111
     9)    -1.66666667E-01  1.66666667E-01  0.00000000E+00       0.05556
    10)     3.33333333E-01  3.33333333E-01  0.00000000E+00       0.02778
    11)     5.00000000E-01  3.33333333E-01  0.00000000E+00       0.11111
    12)    -3.33333333E-01  3.33333333E-01  0.00000000E+00       0.05556
    13)     5.00000000E-01  5.00000000E-01  0.00000000E+00       0.01389
    14)     5.00000000E-01  3.33333333E-01  1.66666667E-01       0.11111
    15)    -3.33333333E-01  3.33333333E-01  1.66666667E-01       0.11111
    16)    -3.33333333E-01  5.00000000E-01  1.66666667E-01       0.05556

 Together with 48 symmetry operations and time-reversal symmetry 
 yields   216 points in the full Brillouin Zone.


 ==== Q-mesh for the screening function ====
 Number of points in the irreducible wedge :    16
 Reduced coordinates and weights : 

     1)     0.00000000E+00  0.00000000E+00  0.00000000E+00       0.00463
     2)     1.66666667E-01  0.00000000E+00  0.00000000E+00       0.03704
     3)     3.33333333E-01  0.00000000E+00  0.00000000E+00       0.03704
     4)     5.00000000E-01  0.00000000E+00  0.00000000E+00       0.01852
     5)     1.66666667E-01  1.66666667E-01  0.00000000E+00       0.02778
     6)     3.33333333E-01  1.66666667E-01  0.00000000E+00       0.11111
     7)     5.00000000E-01  1.66666667E-01  0.00000000E+00       0.11111
     8)    -3.33333333E-01  1.66666667E-01  0.00000000E+00       0.11111
     9)    -1.66666667E-01  1.66666667E-01  0.00000000E+00       0.05556
    10)     3.33333333E-01  3.33333333E-01  0.00000000E+00       0.02778
    11)     5.00000000E-01  3.33333333E-01  0.00000000E+00       0.11111
    12)    -3.33333333E-01  3.33333333E-01  0.00000000E+00       0.05556
    13)     5.00000000E-01  5.00000000E-01  0.00000000E+00       0.01389
    14)     5.00000000E-01  3.33333333E-01  1.66666667E-01       0.11111
    15)    -3.33333333E-01  3.33333333E-01  1.66666667E-01       0.11111
    16)    -3.33333333E-01  5.00000000E-01  1.66666667E-01       0.05556

 Together with 48 symmetry operations and time-reversal symmetry 
 yields   216 points in the full Brillouin Zone.


 setmesh: FFT mesh size selected  =  12x 12x 12
          total number of points  =     1728


 screening : taking advantage of time-reversal symmetry 
 Maximum band index for partially occupied states nbvw =     4
 Remaining bands to be divided among processors   nbcw =    11
P Number of bands treated by each node ~   11

 k       eigenvalues [eV]
  1         -6.17   5.92   5.92   5.92   8.45   8.45   8.45   9.18  13.59  13.82
            13.82  17.11  17.11  17.11  20.99
  2         -5.80   3.50   5.46   5.46   8.20   9.11   9.11  11.27  13.09  13.09
            14.77  16.44  19.07  19.07  23.06
  3         -4.76   0.51   4.90   4.90   7.61   9.40   9.40  13.62  13.99  13.99
            14.85  19.34  20.70  20.70  22.65
  4         -3.78  -1.16   4.70   4.70   7.39   9.24   9.24  13.45  16.68  16.68
            17.11  17.31  17.31  18.65  25.31
  5         -5.67   3.87   4.70   4.70   7.55  10.14  10.26  10.26  12.50  14.36
            15.43  17.97  17.97  18.53  24.18
  6         -4.85   1.44   3.88   4.13   7.81   9.93  10.42  11.00  14.98  15.12
            16.20  18.65  19.79  21.30  21.96
  7         -3.63  -0.77   3.08   4.11   7.88  10.00  10.54  12.32  15.26  16.55
            17.62  17.86  18.46  22.05  23.87
  8         -4.02  -0.16   2.80   4.60   8.31  10.00  10.14  13.14  13.33  15.27
            17.33  18.75  20.73  21.51  22.19
  9         -5.20   2.17   3.44   5.34   8.91   9.45   9.73  11.50  12.08  15.32
            16.21  17.39  19.30  21.53  22.07
 10         -4.23   0.88   3.45   3.45   6.53   7.81  13.19  13.19  15.61  15.95
            18.79  19.55  19.55  21.01  22.23
 11         -3.05  -0.69   2.20   3.31   6.88   8.56  13.37  13.40  16.51  16.74
            18.42  18.66  20.55  21.71  22.08
 12         -2.84  -0.91   1.39   3.76   7.39  11.71  12.40  12.97  13.25  13.70
            20.23  20.75  21.53  21.91  22.67
 13         -1.96  -1.96   3.01   3.01   6.51   6.51  15.96  15.96  17.08  17.08
            18.64  18.64  18.74  18.74  24.85
 14         -3.84   0.24   2.26   3.57   8.71   9.57  10.12  13.00  14.96  15.82
            18.88  19.21  19.74  20.92  22.48
 15         -2.83  -0.99   1.81   3.09   9.21   9.43  12.01  12.41  13.49  17.11
            17.88  19.30  22.17  22.79  23.06
 16         -1.83  -1.83   2.18   2.18   8.60   8.60  12.67  12.67  16.55  16.55
            18.90  18.90  22.43  22.43  23.25
 Number of electrons calculated from density =    7.9999; Expected =    8.0000
 average of density, n =  0.030004
 r_s =    1.9964
 omega_plasma =   16.7087 [eV]


 calculating chi0 at frequencies [eV] :
  1    0.000000E+00    0.000000E+00
  2    0.000000E+00    1.670870E+01


--------------------------------------------------------------------------------
  q-point number  1        q = ( 0.000000, 0.000000, 0.000000) [r.l.u.]
--------------------------------------------------------------------------------
  chi0(G,G') at the    1 th omega   0.0000   0.0000 [eV]
       1       2       3       4       5       6       7       8       9
    1  -0.000   0.000  -0.000  -0.000   0.000   0.000  -0.000  -0.000   0.000
       -0.000   0.000   0.000  -0.000  -0.000   0.000   0.000  -0.000  -0.000

    2   0.000 -13.500   0.000  -0.078  -0.000  -0.078  -0.000  -0.088   0.000
       -0.000  -0.000  -4.221  -0.000  -0.262   0.000  -0.262   0.000  -0.261

  chi0(G,G') at the    2 th omega   0.0000  16.7087 [eV]
       1       2       3       4       5       6       7       8       9
    1  -0.000   0.000  -0.000  -0.000   0.000   0.000  -0.000  -0.000   0.000
        0.000   0.000   0.000  -0.000  -0.000   0.000   0.000  -0.000  -0.000

    2   0.000  -4.474   0.000   0.053  -0.000   0.053  -0.000   0.047   0.000
       -0.000   0.000  -0.972  -0.000  -0.110   0.000  -0.110   0.000  -0.109

 For q-point:  0.000010 0.000020 0.000030
  dielectric constant =  15.0537
  dielectric constant without local fields =  15.7444

  Average fulfillment of the sum rule on Im[epsilon] for q-point    1 :     36.27  [%]
  Heads and wings of the symmetrical epsilon^-1(G,G') 

   Upper and lower wings at the    1 th omega   0.0000   0.0000 [eV]
       1       2       3       4       5       6       7       8       9
      0.066   0.005  -0.005  -0.014   0.014   0.014  -0.014  -0.005   0.005
     -0.000   0.005   0.005  -0.014  -0.014   0.014   0.014  -0.005  -0.005
       1       2       3       4       5       6       7       8       9
      0.066   0.005  -0.005  -0.014   0.014   0.014  -0.014  -0.005   0.005
     -0.000  -0.005  -0.005   0.014   0.014  -0.014  -0.014   0.005   0.005


   Upper and lower wings at the    2 th omega   0.0000  16.7087 [eV]
       1       2       3       4       5       6       7       8       9
      0.578   0.008  -0.008  -0.024   0.024   0.024  -0.024  -0.008   0.008
      0.000   0.008   0.008  -0.024  -0.024   0.024   0.024  -0.008  -0.008
       1       2       3       4       5       6       7       8       9
      0.578   0.008  -0.008  -0.024   0.024   0.024  -0.024  -0.008   0.008
      0.000  -0.008  -0.008   0.024   0.024  -0.024  -0.024   0.008   0.008




--------------------------------------------------------------------------------
  q-point number  2        q = ( 0.166667, 0.000000, 0.000000) [r.l.u.]
--------------------------------------------------------------------------------
  chi0(G,G') at the    1 th omega   0.0000   0.0000 [eV]
       1       2       3       4       5       6       7       8       9
    1  -4.817  -1.254   1.695  -0.361  -1.185  -0.361  -1.185  -0.361  -1.185
       -0.000  -1.254  -1.695  -0.361   1.185  -0.361   1.185  -0.361   1.185

    2  -1.254 -12.161   0.000  -0.375  -0.000  -0.375  -0.000  -0.375  -0.000
        1.254  -0.000  -3.870  -0.000   0.014   0.000   0.014  -0.000   0.014

  chi0(G,G') at the    2 th omega   0.0000  16.7087 [eV]
       1       2       3       4       5       6       7       8       9
    1  -0.447  -0.261   0.240   0.012  -0.149   0.012  -0.149   0.012  -0.149
        0.000  -0.261  -0.240   0.012   0.149   0.012   0.149   0.012   0.149

    2  -0.261  -4.149   0.000   0.046  -0.000   0.046  -0.000   0.046  -0.000
        0.261  -0.000  -0.931  -0.000  -0.045   0.000  -0.045  -0.000  -0.045

  Average fulfillment of the sum rule on Im[epsilon] for q-point    2 :     82.07  [%]


--------------------------------------------------------------------------------
  q-point number  3        q = ( 0.333333, 0.000000, 0.000000) [r.l.u.]
--------------------------------------------------------------------------------
  chi0(G,G') at the    1 th omega   0.0000   0.0000 [eV]
       1       2       3       4       5       6       7       8       9
    1  -9.998  -1.500   2.316  -1.268  -1.970  -1.268  -1.970  -1.268  -1.970
       -0.000  -1.500  -2.316  -1.268   1.970  -1.268   1.970  -1.268   1.970

    2  -1.500 -10.654   0.000  -0.128  -0.000  -0.128   0.000  -0.128  -0.000
        1.500  -0.000  -3.457  -0.000   0.110  -0.000   0.110   0.000   0.110

  chi0(G,G') at the    2 th omega   0.0000  16.7087 [eV]
       1       2       3       4       5       6       7       8       9
    1  -1.601  -0.481   0.396  -0.119  -0.377  -0.119  -0.377  -0.119  -0.377
       -0.000  -0.481  -0.396  -0.119   0.377  -0.119   0.377  -0.119   0.377

    2  -0.481  -3.619   0.000   0.040  -0.000   0.040   0.000   0.040  -0.000
        0.481  -0.000  -0.826  -0.000  -0.009  -0.000  -0.009   0.000  -0.009

  Average fulfillment of the sum rule on Im[epsilon] for q-point    3 :     70.52  [%]


--------------------------------------------------------------------------------
  q-point number  4        q = ( 0.500000, 0.000000, 0.000000) [r.l.u.]
--------------------------------------------------------------------------------
  chi0(G,G') at the    1 th omega   0.0000   0.0000 [eV]
       1       2       3       4       5       6       7       8       9
    1 -12.712  -1.808   2.496  -1.842  -2.123  -1.842  -2.123  -1.842  -2.123
       -0.000  -1.808  -2.496  -1.842   2.123  -1.842   2.123  -1.842   2.123

    2  -1.808  -8.881   0.000   0.155  -0.000   0.155  -0.000   0.155   0.000
        1.808  -0.000  -3.149   0.000   0.244   0.000   0.244  -0.000   0.244

  chi0(G,G') at the    2 th omega   0.0000  16.7087 [eV]
       1       2       3       4       5       6       7       8       9
    1  -3.006  -0.623   0.446  -0.356  -0.571  -0.356  -0.571  -0.356  -0.571
        0.000  -0.623  -0.446  -0.356   0.571  -0.356   0.571  -0.356   0.571

    2  -0.623  -2.983   0.000   0.017  -0.000   0.017  -0.000   0.017  -0.000
        0.623   0.000  -0.654   0.000  -0.005   0.000  -0.005  -0.000  -0.005

  Average fulfillment of the sum rule on Im[epsilon] for q-point    4 :     65.75  [%]


--------------------------------------------------------------------------------
  q-point number  5        q = ( 0.166667, 0.166667, 0.000000) [r.l.u.]
--------------------------------------------------------------------------------
  chi0(G,G') at the    1 th omega   0.0000   0.0000 [eV]
       1       2       3       4       5       6       7       8       9
    1  -6.339  -1.549   0.160   0.160  -1.549   0.160  -1.549  -1.549   0.160
       -0.000  -1.549  -0.160   0.160   1.549   0.160   1.549  -1.549  -0.160

    2  -1.549 -12.712  -0.000  -0.225  -0.000  -0.225  -0.000  -0.456  -0.000
        1.549  -0.000  -3.431   0.000   0.151   0.000   0.151   0.000  -0.237

  chi0(G,G') at the    2 th omega   0.0000  16.7087 [eV]
       1       2       3       4       5       6       7       8       9
    1  -0.581  -0.227   0.087   0.087  -0.227   0.087  -0.227  -0.227   0.087
       -0.000  -0.227  -0.087   0.087   0.227   0.087   0.227  -0.227  -0.087

    2  -0.227  -4.224  -0.000   0.050  -0.000   0.050  -0.000   0.051  -0.000
        0.227  -0.000  -0.914   0.000  -0.041   0.000  -0.041   0.000  -0.085

  Average fulfillment of the sum rule on Im[epsilon] for q-point    5 :     80.43  [%]


--------------------------------------------------------------------------------
  q-point number  6        q = ( 0.333333, 0.166667, 0.000000) [r.l.u.]
--------------------------------------------------------------------------------
  chi0(G,G') at the    1 th omega   0.0000   0.0000 [eV]
       1       2       3       4       5       6       7       8       9
    1 -11.000  -1.899   0.933  -0.706  -2.213  -0.706  -2.213  -1.885  -1.166
       -0.000  -1.899  -0.933  -0.706   2.213  -0.706   2.213  -1.885   1.166

    2  -1.899 -11.207  -0.000  -0.323  -0.000  -0.323  -0.000  -0.257  -0.000
        1.899  -0.000  -3.062  -0.000   0.243   0.000   0.243   0.000  -0.186

  chi0(G,G') at the    2 th omega   0.0000  16.7087 [eV]
       1       2       3       4       5       6       7       8       9
    1  -1.489  -0.450   0.265   0.008  -0.397   0.008  -0.397  -0.306  -0.182
       -0.000  -0.450  -0.265   0.008   0.397   0.008   0.397  -0.306   0.182

    2  -0.450  -3.765  -0.000   0.027  -0.000   0.027  -0.000   0.035  -0.000
        0.450   0.000  -0.837  -0.000  -0.014   0.000  -0.014   0.000  -0.033

  Average fulfillment of the sum rule on Im[epsilon] for q-point    6 :     71.51  [%]


--------------------------------------------------------------------------------
  q-point number  7        q = ( 0.500000, 0.166667, 0.000000) [r.l.u.]
--------------------------------------------------------------------------------
  chi0(G,G') at the    1 th omega   0.0000   0.0000 [eV]
       1       2       3       4       5       6       7       8       9
    1 -13.961  -1.995   1.154  -1.611  -2.457  -1.611  -2.457  -2.183  -1.631
       -0.000  -1.995  -1.154  -1.611   2.457  -1.611   2.457  -2.183   1.631

    2  -1.995  -9.513  -0.000   0.036  -0.000   0.036  -0.000   0.108  -0.000
        1.995  -0.000  -2.868   0.000   0.308   0.000   0.308   0.000   0.059

  chi0(G,G') at the    2 th omega   0.0000  16.7087 [eV]
       1       2       3       4       5       6       7       8       9
    1  -2.772  -0.599   0.349  -0.211  -0.567  -0.211  -0.567  -0.458  -0.467
        0.000  -0.599  -0.349  -0.211   0.567  -0.211   0.567  -0.458   0.467

    2  -0.599  -3.167  -0.000   0.020  -0.000   0.020  -0.000   0.044  -0.000
        0.599   0.000  -0.693   0.000  -0.012   0.000  -0.012   0.000  -0.002

  Average fulfillment of the sum rule on Im[epsilon] for q-point    7 :     65.34  [%]


--------------------------------------------------------------------------------
  q-point number  8        q = (-0.333333, 0.166667, 0.000000) [r.l.u.]
--------------------------------------------------------------------------------
  chi0(G,G') at the    1 th omega   0.0000   0.0000 [eV]
       1       2       3       4       5       6       7       8       9
    1 -13.152   1.099  -1.931  -2.084  -2.081  -2.084  -2.081  -2.306  -0.589
       -0.000   1.099   1.931  -2.084   2.081  -2.084   2.081  -2.306   0.589

    2   1.099 -15.058  -0.000   0.682  -0.000   0.682  -0.000  -0.138   0.000
       -1.099  -0.000  -2.977   0.000  -0.350  -0.000  -0.350  -0.000  -1.436

  chi0(G,G') at the    2 th omega   0.0000  16.7087 [eV]
       1       2       3       4       5       6       7       8       9
    1  -2.331   0.336  -0.561  -0.437  -0.340  -0.437  -0.340  -0.541   0.028
       -0.000   0.336   0.561  -0.437   0.340  -0.437   0.340  -0.541  -0.028

    2   0.336  -3.944  -0.000   0.033  -0.000   0.033  -0.000   0.018   0.000
       -0.336   0.000  -0.753   0.000  -0.144  -0.000  -0.144  -0.000  -0.120

  Average fulfillment of the sum rule on Im[epsilon] for q-point    8 :     66.68  [%]


--------------------------------------------------------------------------------
  q-point number  9        q = (-0.166667, 0.166667, 0.000000) [r.l.u.]
--------------------------------------------------------------------------------
  chi0(G,G') at the    1 th omega   0.0000   0.0000 [eV]
       1       2       3       4       5       6       7       8       9
    1  -9.588   0.768  -1.907  -1.594  -1.594  -1.594  -1.594  -1.907   0.769
       -0.000   0.768   1.907  -1.594   1.594  -1.594   1.594  -1.907  -0.769

    2   0.768 -15.083  -0.000   0.596  -0.000   0.596  -0.000  -0.123   0.000
       -0.768  -0.000  -3.238   0.000  -0.289  -0.000  -0.289  -0.000  -1.400

  chi0(G,G') at the    2 th omega   0.0000  16.7087 [eV]
       1       2       3       4       5       6       7       8       9
    1  -1.130   0.217  -0.387  -0.193  -0.193  -0.193  -0.193  -0.387   0.217
       -0.000   0.217   0.387  -0.193   0.193  -0.193   0.193  -0.387  -0.217

    2   0.217  -4.541  -0.000   0.055  -0.000   0.055  -0.000   0.041   0.000
       -0.217   0.000  -0.875   0.000  -0.152  -0.000  -0.152  -0.000  -0.171

  Average fulfillment of the sum rule on Im[epsilon] for q-point    9 :     74.79  [%]


--------------------------------------------------------------------------------
  q-point number 10        q = ( 0.333333, 0.333333, 0.000000) [r.l.u.]
--------------------------------------------------------------------------------
  chi0(G,G') at the    1 th omega   0.0000   0.0000 [eV]
       1       2       3       4       5       6       7       8       9
    1 -12.604  -2.231  -0.619  -0.620  -2.231  -0.620  -2.231  -2.232  -0.620
       -0.000  -2.231   0.619  -0.620   2.231  -0.620   2.231  -2.232   0.620

    2  -2.231 -11.581  -0.000  -0.279  -0.000  -0.279  -0.000  -0.098  -0.000
        2.231  -0.000  -2.410   0.000   0.273   0.000   0.273   0.000  -0.266

  chi0(G,G') at the    2 th omega   0.0000  16.7087 [eV]
       1       2       3       4       5       6       7       8       9
    1  -2.022  -0.485  -0.015  -0.015  -0.485  -0.015  -0.485  -0.486  -0.015
        0.000  -0.485   0.015  -0.015   0.485  -0.015   0.485  -0.486   0.015

    2  -0.485  -3.827  -0.000   0.006  -0.000   0.006  -0.000   0.041  -0.000
        0.485   0.000  -0.723   0.000   0.001   0.000   0.001   0.000  -0.063

  Average fulfillment of the sum rule on Im[epsilon] for q-point   10 :     67.35  [%]


--------------------------------------------------------------------------------
  q-point number 11        q = ( 0.500000, 0.333333, 0.000000) [r.l.u.]
--------------------------------------------------------------------------------
  chi0(G,G') at the    1 th omega   0.0000   0.0000 [eV]
       1       2       3       4       5       6       7       8       9
    1 -15.096  -2.340  -0.395  -1.446  -2.430  -1.446  -2.430  -2.268  -1.461
       -0.000  -2.340   0.395  -1.446   2.430  -1.446   2.430  -2.268   1.461

    2  -2.340  -9.719  -0.000  -0.203  -0.000  -0.203  -0.000   0.009  -0.000
        2.340  -0.000  -2.302   0.000   0.355   0.000   0.355   0.000  -0.064

  chi0(G,G') at the    2 th omega   0.0000  16.7087 [eV]
       1       2       3       4       5       6       7       8       9
    1  -3.031  -0.620   0.087  -0.179  -0.603  -0.179  -0.603  -0.583  -0.356
        0.000  -0.620  -0.087  -0.179   0.603  -0.179   0.603  -0.583   0.356

    2  -0.620  -3.257  -0.000  -0.014  -0.000  -0.014  -0.000   0.040  -0.000
        0.620   0.000  -0.633   0.000  -0.001   0.000  -0.001   0.000  -0.020

  Average fulfillment of the sum rule on Im[epsilon] for q-point   11 :     63.51  [%]


--------------------------------------------------------------------------------
  q-point number 12        q = (-0.333333, 0.333333, 0.000000) [r.l.u.]
--------------------------------------------------------------------------------
  chi0(G,G') at the    1 th omega   0.0000   0.0000 [eV]
       1       2       3       4       5       6       7       8       9
    1 -15.662  -0.397  -2.177  -2.453  -2.452  -2.453  -2.452  -2.178  -0.394
       -0.000  -0.397   2.177  -2.453   2.452  -2.453   2.452  -2.178   0.393

    2  -0.397 -16.250  -0.000   0.485  -0.000   0.485  -0.000  -0.169   0.000
        0.397  -0.000  -2.373   0.000   0.041  -0.000   0.041   0.000  -1.380

  chi0(G,G') at the    2 th omega   0.0000  16.7087 [eV]
       1       2       3       4       5       6       7       8       9
    1  -3.397   0.102  -0.639  -0.571  -0.570  -0.571  -0.570  -0.640   0.104
        0.000   0.102   0.639  -0.571   0.570  -0.571   0.570  -0.640  -0.104

    2   0.102  -4.012  -0.000   0.007  -0.000   0.007  -0.000  -0.004   0.000
       -0.102  -0.000  -0.583   0.000  -0.081  -0.000  -0.081   0.000  -0.077

  Average fulfillment of the sum rule on Im[epsilon] for q-point   12 :     63.97  [%]


--------------------------------------------------------------------------------
  q-point number 13        q = ( 0.500000, 0.500000, 0.000000) [r.l.u.]
--------------------------------------------------------------------------------
  chi0(G,G') at the    1 th omega   0.0000   0.0000 [eV]
       1       2       3       4       5       6       7       8       9
    1 -15.452  -2.373  -1.340  -1.349  -2.381  -1.349  -2.381  -2.373  -1.339
       -0.010  -2.383   1.347  -1.341   2.371  -1.341   2.371  -2.384   1.346

    2  -2.373  -9.851   0.006  -0.121  -0.005  -0.121  -0.005   0.154   0.004
        2.383  -0.008  -1.766   0.002   0.361   0.002   0.361  -0.004  -0.133

  chi0(G,G') at the    2 th omega   0.0000  16.7087 [eV]
       1       2       3       4       5       6       7       8       9
    1  -3.575  -0.649  -0.280  -0.280  -0.648  -0.280  -0.648  -0.650  -0.279
       -0.000  -0.649   0.280  -0.280   0.648  -0.280   0.648  -0.650   0.279

    2  -0.649  -3.260   0.000  -0.045  -0.000  -0.045  -0.000   0.080  -0.000
        0.649  -0.000  -0.479   0.000   0.015  -0.000   0.015   0.000  -0.027

  Average fulfillment of the sum rule on Im[epsilon] for q-point   13 :     62.44  [%]


--------------------------------------------------------------------------------
  q-point number 14        q = ( 0.500000, 0.333333, 0.166667) [r.l.u.]
--------------------------------------------------------------------------------
  chi0(G,G') at the    1 th omega   0.0000   0.0000 [eV]
       1       2       3       4       5       6       7       8       9
    1 -14.270  -2.312  -0.266  -1.704  -2.318  -0.267  -2.312  -2.319  -1.704
       -0.000  -2.312   0.266  -1.704   2.318  -0.267   2.312  -2.319   1.704

    2  -2.312 -10.524  -0.000  -0.218  -0.000  -0.233  -0.000  -0.191  -0.000
        2.312  -0.000  -2.494  -0.000   0.275   0.000   0.395  -0.000  -0.012

  chi0(G,G') at the    2 th omega   0.0000  16.7087 [eV]
       1       2       3       4       5       6       7       8       9
    1  -2.444  -0.564   0.145  -0.298  -0.488   0.144  -0.564  -0.488  -0.298
        0.000  -0.564  -0.145  -0.298   0.488   0.144   0.564  -0.488   0.298

    2  -0.564  -3.504  -0.000   0.008  -0.000   0.009  -0.000   0.034  -0.000
        0.564   0.000  -0.714  -0.000   0.008   0.000   0.011  -0.000  -0.020

  Average fulfillment of the sum rule on Im[epsilon] for q-point   14 :     65.87  [%]


--------------------------------------------------------------------------------
  q-point number 15        q = (-0.333333, 0.333333, 0.166667) [r.l.u.]
--------------------------------------------------------------------------------
  chi0(G,G') at the    1 th omega   0.0000   0.0000 [eV]
       1       2       3       4       5       6       7       8       9
    1 -15.965  -0.210  -2.188  -2.465  -2.239  -2.034  -2.455  -2.331  -1.429
       -0.000  -0.210   2.188  -2.465   2.239  -2.034   2.455  -2.331   1.429

    2  -0.210 -15.954  -0.000  -0.092  -0.000   1.456  -0.000  -0.438   0.000
        0.210  -0.000  -2.402   0.000  -0.174  -0.000  -0.092  -0.000  -0.725

  chi0(G,G') at the    2 th omega   0.0000  16.7087 [eV]
       1       2       3       4       5       6       7       8       9
    1  -3.565   0.181  -0.647  -0.640  -0.487  -0.567  -0.611  -0.649  -0.134
       -0.000   0.181   0.647  -0.640   0.487  -0.567   0.611  -0.649   0.134

    2   0.181  -3.559  -0.000  -0.029  -0.000   0.036  -0.000  -0.018   0.000
       -0.181  -0.000  -0.570   0.000  -0.051  -0.000  -0.098  -0.000  -0.047

  Average fulfillment of the sum rule on Im[epsilon] for q-point   15 :     64.13  [%]


--------------------------------------------------------------------------------
  q-point number 16        q = (-0.333333, 0.500000, 0.166667) [r.l.u.]
--------------------------------------------------------------------------------
  chi0(G,G') at the    1 th omega   0.0000   0.0000 [eV]
       1       2       3       4       5       6       7       8       9
    1 -16.500  -1.414  -2.093  -2.524  -2.341  -2.342  -2.523  -2.095  -1.413
       -0.000  -1.414   2.093  -2.524   2.341  -2.342   2.523  -2.095   1.413

    2  -1.414 -16.556   0.000  -0.165  -0.000   0.879  -0.000  -0.261   0.000
        1.414  -0.000  -1.815  -0.000  -0.004  -0.000   0.235  -0.000   0.000

  chi0(G,G') at the    2 th omega   0.0000  16.7087 [eV]
       1       2       3       4       5       6       7       8       9
    1  -4.238  -0.121  -0.655  -0.697  -0.662  -0.663  -0.696  -0.656  -0.120
       -0.000  -0.121   0.655  -0.697   0.662  -0.663   0.696  -0.656   0.120

    2  -0.121  -3.819   0.000  -0.073  -0.000   0.006  -0.000  -0.010   0.000
        0.121  -0.000  -0.377  -0.000  -0.003  -0.000  -0.047  -0.000   0.000

  Average fulfillment of the sum rule on Im[epsilon] for q-point   16 :     63.73  [%]

================================================================================
== DATASET  3 ==================================================================
-   nproc =    1

 mkfilename : getscr/=0, take file _SCR from output of DATASET   2.

 mkfilename : getkss/=0, take file _KSS from output of DATASET   1.

 Exchange-correlation functional for the present dataset will be:
  LDA: new Teter (4/93) with spin-polarized option - ixc=1
 Citation for XC functional:
  S. Goedecker, M. Teter, J. Huetter, PRB 54, 1703 (1996)

 SIGMA: Calculation of the GW corrections 

 Based on a program developped by R.W. Godby, V. Olevano, G. Onida, and L. Reining.
 Incorporated in ABINIT by V. Olevano, G.-M. Rignanese, and M. Torrent.
.Using double precision arithmetic ; gwpc =  8

 Real(R)+Recip(G) space primitive vectors, cartesian coordinates (Bohr,Bohr^-1):
 R(1)=  0.0000000  5.1085000  5.1085000  G(1)= -0.0978761  0.0978761  0.0978761
 R(2)=  5.1085000  0.0000000  5.1085000  G(2)=  0.0978761 -0.0978761  0.0978761
 R(3)=  5.1085000  5.1085000  0.0000000  G(3)=  0.0978761  0.0978761 -0.0978761
 Unit cell volume ucvol=  2.6663072E+02 bohr^3
 Angles (23,13,12)=  6.00000000E+01  6.00000000E+01  6.00000000E+01 degrees
--------------------------------------------------------------------------------

 ==== K-mesh for the wavefunctions ====
 Number of points in the irreducible wedge :    16
 Reduced coordinates and weights : 

     1)     0.00000000E+00  0.00000000E+00  0.00000000E+00       0.00463
     2)     1.66666667E-01  0.00000000E+00  0.00000000E+00       0.03704
     3)     3.33333333E-01  0.00000000E+00  0.00000000E+00       0.03704
     4)     5.00000000E-01  0.00000000E+00  0.00000000E+00       0.01852
     5)     1.66666667E-01  1.66666667E-01  0.00000000E+00       0.02778
     6)     3.33333333E-01  1.66666667E-01  0.00000000E+00       0.11111
     7)     5.00000000E-01  1.66666667E-01  0.00000000E+00       0.11111
     8)    -3.33333333E-01  1.66666667E-01  0.00000000E+00       0.11111
     9)    -1.66666667E-01  1.66666667E-01  0.00000000E+00       0.05556
    10)     3.33333333E-01  3.33333333E-01  0.00000000E+00       0.02778
    11)     5.00000000E-01  3.33333333E-01  0.00000000E+00       0.11111
    12)    -3.33333333E-01  3.33333333E-01  0.00000000E+00       0.05556
    13)     5.00000000E-01  5.00000000E-01  0.00000000E+00       0.01389
    14)     5.00000000E-01  3.33333333E-01  1.66666667E-01       0.11111
    15)    -3.33333333E-01  3.33333333E-01  1.66666667E-01       0.11111
    16)    -3.33333333E-01  5.00000000E-01  1.66666667E-01       0.05556

 Together with 48 symmetry operations and time-reversal symmetry 
 yields   216 points in the full Brillouin Zone.


 ==== Q-mesh for screening function ====
 Number of points in the irreducible wedge :    16
 Reduced coordinates and weights : 

     1)     0.00000000E+00  0.00000000E+00  0.00000000E+00       0.00463
     2)     1.66666667E-01  0.00000000E+00  0.00000000E+00       0.03704
     3)     3.33333333E-01  0.00000000E+00  0.00000000E+00       0.03704
     4)     5.00000000E-01  0.00000000E+00  0.00000000E+00       0.01852
     5)     1.66666667E-01  1.66666667E-01  0.00000000E+00       0.02778
     6)     3.33333333E-01  1.66666667E-01  0.00000000E+00       0.11111
     7)     5.00000000E-01  1.66666667E-01  0.00000000E+00       0.11111
     8)    -3.33333333E-01  1.66666667E-01  0.00000000E+00       0.11111
     9)    -1.66666667E-01  1.66666667E-01  0.00000000E+00       0.05556
    10)     3.33333333E-01  3.33333333E-01  0.00000000E+00       0.02778
    11)     5.00000000E-01  3.33333333E-01  0.00000000E+00       0.11111
    12)    -3.33333333E-01  3.33333333E-01  0.00000000E+00       0.05556
    13)     5.00000000E-01  5.00000000E-01  0.00000000E+00       0.01389
    14)     5.00000000E-01  3.33333333E-01  1.66666667E-01       0.11111
    15)    -3.33333333E-01  3.33333333E-01  1.66666667E-01       0.11111
    16)    -3.33333333E-01  5.00000000E-01  1.66666667E-01       0.05556

 Together with 48 symmetry operations and time-reversal symmetry 
 yields   216 points in the full Brillouin Zone.


 setmesh: FFT mesh size selected  =  12x 12x 12
          total number of points  =     1728


 k       eigenvalues [eV]
  1         -6.17   5.92   5.92   5.92   8.45   8.45   8.45   9.18  13.59  13.82
            13.82  17.11  17.11  17.11  20.99  29.30  29.30  29.30  30.45  30.45
            31.40  31.40  31.40  35.51  35.51
  2         -5.80   3.50   5.46   5.46   8.20   9.11   9.11  11.27  13.09  13.09
            14.77  16.44  19.07  19.07  23.06  26.04  26.04  26.43  30.15  30.15
            32.18  32.18  33.54  35.84  37.16
  3         -4.76   0.51   4.90   4.90   7.61   9.40   9.40  13.62  13.99  13.99
            14.85  19.34  20.70  20.70  22.65  23.64  23.64  27.63  30.37  30.37
            31.23  32.67  32.67  35.36  35.44
  4         -3.78  -1.16   4.70   4.70   7.39   9.24   9.24  13.45  16.68  16.68
            17.11  17.31  17.31  18.65  25.31  25.82  27.79  27.79  27.98  27.98
            31.61  32.67  32.67  33.32  33.32
  5         -5.67   3.87   4.70   4.70   7.55  10.14  10.26  10.26  12.50  14.36
            15.43  17.97  17.97  18.53  24.18  25.46  25.46  26.85  27.74  29.91
            32.63  33.00  33.00  38.03  38.03
  6         -4.85   1.44   3.88   4.13   7.81   9.93  10.42  11.00  14.98  15.12
            16.20  18.65  19.79  21.30  21.96  22.88  25.83  26.74  27.65  29.26
            31.56  32.50  33.39  35.51  35.78
  7         -3.63  -0.77   3.08   4.11   7.88  10.00  10.54  12.32  15.26  16.55
            17.62  17.86  18.46  22.05  23.87  25.06  26.10  26.65  27.24  28.88
            29.90  32.16  33.05  33.33  33.60
  8         -4.02  -0.16   2.80   4.60   8.31  10.00  10.14  13.14  13.33  15.27
            17.33  18.75  20.73  21.51  22.19  23.89  26.07  27.94  28.19  28.95
            30.85  30.88  33.15  33.69  33.99
[...]

 E^0_gap          2.526
 E^GW_gap         3.104
 DeltaE^GW_gap    0.578


== END DATASET(S) ==============================================================
================================================================================
  
 -outvars: echo values of variables after computation  --------
            acell      1.0217000000E+01  1.0217000000E+01  1.0217000000E+01 Bohr
              amu      2.80855000E+01
             bdgw           2       6
           diemac      1.20000000E+01
             ecut1     8.00000000E+00 Hartree
             ecut2     7.56385066E+00 Hartree
             ecut3     7.56385066E+00 Hartree
             ecut4     7.56385066E+00 Hartree
             ecut5     7.56385066E+00 Hartree
          ecuteps1     0.00000000E+00 Hartree
          ecuteps2     7.56385066E-01 Hartree
          ecuteps3     0.00000000E+00 Hartree
          ecuteps4     0.00000000E+00 Hartree
          ecuteps5     0.00000000E+00 Hartree
         ecutsigx1     0.00000000E+00 Hartree
         ecutsigx2     0.00000000E+00 Hartree
         ecutsigx3     2.26915520E+00 Hartree
         ecutsigx4     2.26915520E+00 Hartree
         ecutsigx5     2.26915520E+00 Hartree
          ecutwfn1     8.00000000E+00 Hartree
          ecutwfn2     7.56385066E+00 Hartree
          ecutwfn3     7.56385066E+00 Hartree
          ecutwfn4     7.56385066E+00 Hartree
          ecutwfn5     7.56385066E+00 Hartree
           etotal1    -8.8716880913E+00
           etotal2     0.0000000000E+00
           etotal3     0.0000000000E+00
           etotal4     0.0000000000E+00
           etotal5     0.0000000000E+00
            fcart1    -0.0000000000E+00 -0.0000000000E+00 -0.0000000000E+00
                      -0.0000000000E+00 -0.0000000000E+00 -0.0000000000E+00
            fcart2     0.0000000000E+00  0.0000000000E+00  0.0000000000E+00
                       0.0000000000E+00  0.0000000000E+00  0.0000000000E+00
            fcart3     0.0000000000E+00  0.0000000000E+00  0.0000000000E+00
                       0.0000000000E+00  0.0000000000E+00  0.0000000000E+00
            fcart4     0.0000000000E+00  0.0000000000E+00  0.0000000000E+00
                       0.0000000000E+00  0.0000000000E+00  0.0000000000E+00
            fcart5     0.0000000000E+00  0.0000000000E+00  0.0000000000E+00
                       0.0000000000E+00  0.0000000000E+00  0.0000000000E+00
-          fftalg         112
            fftgw          11
        freqspmax1     0.00000000E+00 Hartree
        freqspmax2     0.00000000E+00 Hartree
        freqspmax3     7.34986508E-01 Hartree
        freqspmax4     1.83746627E-01 Hartree
        freqspmax5     0.00000000E+00 Hartree
        freqspmin1    -0.00000000E+00 Hartree
        freqspmin2    -0.00000000E+00 Hartree
        freqspmin3    -7.34986508E-01 Hartree
        freqspmin4    -2.93994603E-01 Hartree
        freqspmin5    -0.00000000E+00 Hartree
           getkss1          0
           getkss2         -1
           getkss3          1
           getkss4          1
           getkss5          1
           getscr1          0
           getscr2          0
           getscr3          2
           getscr4          2
           getscr5          2
           gwpara           2
 gw_customnfreqsp1          0
 gw_customnfreqsp2          0
 gw_customnfreqsp3          0
 gw_customnfreqsp4          0
 gw_customnfreqsp5          8
        gw_freqsp5      -0.01102   -0.00367    0.01213    0.03675    0.18375    0.36749    1.83747    3.67493 Hartree
         icutcoul1          6
         icutcoul2          6
         icutcoul3          3
         icutcoul4          3
         icutcoul5          3
          inclvkb1          1
          inclvkb2          2
          inclvkb3          1
          inclvkb4          1
          inclvkb5          1
           istwfk        1    0    0    1    0    0    0    0    0    0
                         0    0    1    0    0    0
           jdtset        1    2    3    4    5
              kpt      0.00000000E+00  0.00000000E+00  0.00000000E+00
                       1.66666667E-01  0.00000000E+00  0.00000000E+00
                       3.33333333E-01  0.00000000E+00  0.00000000E+00
                       5.00000000E-01  0.00000000E+00  0.00000000E+00
                       1.66666667E-01  1.66666667E-01  0.00000000E+00
                       3.33333333E-01  1.66666667E-01  0.00000000E+00
                       5.00000000E-01  1.66666667E-01  0.00000000E+00
                      -3.33333333E-01  1.66666667E-01  0.00000000E+00
                      -1.66666667E-01  1.66666667E-01  0.00000000E+00
                       3.33333333E-01  3.33333333E-01  0.00000000E+00
                       5.00000000E-01  3.33333333E-01  0.00000000E+00
                      -3.33333333E-01  3.33333333E-01  0.00000000E+00
                       5.00000000E-01  5.00000000E-01  0.00000000E+00
                       5.00000000E-01  3.33333333E-01  1.66666667E-01
                      -3.33333333E-01  3.33333333E-01  1.66666667E-01
                      -3.33333333E-01  5.00000000E-01  1.66666667E-01
         kptrlatt        6    0    0      0    6    0      0    0    6
          kptrlen      4.33470599E+01
          kssform1          3
          kssform2          1
          kssform3          1
          kssform4          1
          kssform5          1
P           mkmem          16
            natom           2
            nband1         30
            nband2         15
            nband3         25
            nband4         25
            nband5         25
         nbandkss1         25
         nbandkss2          0
         nbandkss3          0
         nbandkss4          0
         nbandkss5          0
           nbdbuf1          5
           nbdbuf2          0
           nbdbuf3          0
           nbdbuf4          0
           nbdbuf5          0
           ndtset           5
          nfreqim1         -1
          nfreqim2         10
          nfreqim3         -1
          nfreqim4         -1
          nfreqim5         -1
          nfreqsp1          0
          nfreqsp2          0
          nfreqsp3        500
          nfreqsp4         50
          nfreqsp5          8
            ngfft1         20      20      20
            ngfft2         18      18      18
            ngfft3         18      18      18
            ngfft4         18      18      18
            ngfft5         18      18      18
             nkpt          16
           nkptgw           1
         nomegasf1        100
         nomegasf2         50
         nomegasf3        100
         nomegasf4        100
         nomegasf5        100
         nomegasi1         12
         nomegasi2         12
         nomegasi3         10
         nomegasi4         10
         nomegasi5         10
           npweps1          0
           npweps2         15
           npweps3          0
           npweps4          0
           npweps5          0
          npwsigx1          0
          npwsigx2          0
          npwsigx3         59
          npwsigx4         59
          npwsigx5         59
           npwwfn1          0
           npwwfn2        283
           npwwfn3        283
           npwwfn4        283
           npwwfn5        283
           nsheps1          0
           nsheps2          3
           nsheps3          0
           nsheps4          0
           nsheps5          0
          nshsigx1          0
          nshsigx2          0
          nshsigx3          6
          nshsigx4          6
          nshsigx5          6
            nstep          50
             nsym          48
           ntypat           1
              occ1     2.000000  2.000000  2.000000  2.000000  0.000000  0.000000
                       0.000000  0.000000  0.000000  0.000000  0.000000  0.000000
                       0.000000  0.000000  0.000000  0.000000  0.000000  0.000000
                       0.000000  0.000000  0.000000  0.000000  0.000000  0.000000
                       0.000000  0.000000  0.000000  0.000000  0.000000  0.000000
              occ2     2.000000  2.000000  2.000000  2.000000  0.000000  0.000000
                       0.000000  0.000000  0.000000  0.000000  0.000000  0.000000
                       0.000000  0.000000  0.000000
              occ3     2.000000  2.000000  2.000000  2.000000  0.000000  0.000000
                       0.000000  0.000000  0.000000  0.000000  0.000000  0.000000
                       0.000000  0.000000  0.000000  0.000000  0.000000  0.000000
                       0.000000  0.000000  0.000000  0.000000  0.000000  0.000000
                       0.000000
              occ4     2.000000  2.000000  2.000000  2.000000  0.000000  0.000000
                       0.000000  0.000000  0.000000  0.000000  0.000000  0.000000
                       0.000000  0.000000  0.000000  0.000000  0.000000  0.000000
                       0.000000  0.000000  0.000000  0.000000  0.000000  0.000000
                       0.000000
              occ5     2.000000  2.000000  2.000000  2.000000  0.000000  0.000000
                       0.000000  0.000000  0.000000  0.000000  0.000000  0.000000
                       0.000000  0.000000  0.000000  0.000000  0.000000  0.000000
                       0.000000  0.000000  0.000000  0.000000  0.000000  0.000000
                       0.000000
       omegasimax1     1.83746627E+00 Hartree
       omegasimax2     1.83746627E+00 Hartree
       omegasimax3     3.67493254E-01 Hartree
       omegasimax4     3.67493254E-01 Hartree
       omegasimax5     3.67493254E-01 Hartree
        optdriver1          0
        optdriver2          3
        optdriver3          4
        optdriver4          4
        optdriver5          4
            rprim      0.0000000000E+00  5.0000000000E-01  5.0000000000E-01
                       5.0000000000E-01  0.0000000000E+00  5.0000000000E-01
                       5.0000000000E-01  5.0000000000E-01  0.0000000000E+00
          spbroad1     1.00000001E-01 Hartree
          spbroad2     3.67493254E-02 Hartree
          spbroad3     1.00000001E-01 Hartree
          spbroad4     1.00000001E-01 Hartree
          spbroad5     1.00000001E-01 Hartree
          spgroup         227
           spmeth1          0
           spmeth2          2
           spmeth3          0
           spmeth4          0
           spmeth5          0
           strten1     2.7686406177E-05  2.7686406177E-05  2.7686406177E-05
                       0.0000000000E+00  0.0000000000E+00  0.0000000000E+00
           strten2     0.0000000000E+00  0.0000000000E+00  0.0000000000E+00
                       0.0000000000E+00  0.0000000000E+00  0.0000000000E+00
           strten3     0.0000000000E+00  0.0000000000E+00  0.0000000000E+00
                       0.0000000000E+00  0.0000000000E+00  0.0000000000E+00
           strten4     0.0000000000E+00  0.0000000000E+00  0.0000000000E+00
                       0.0000000000E+00  0.0000000000E+00  0.0000000000E+00
           strten5     0.0000000000E+00  0.0000000000E+00  0.0000000000E+00
                       0.0000000000E+00  0.0000000000E+00  0.0000000000E+00
           symchi1       0
           symchi2       1
           symchi3       0
           symchi4       0
           symchi5       0
           symrel      1  0  0   0  1  0   0  0  1      -1  0  0   0 -1  0   0  0 -1
                       0 -1  1   0 -1  0   1 -1  0       0  1 -1   0  1  0  -1  1  0
                      -1  0  0  -1  0  1  -1  1  0       1  0  0   1  0 -1   1 -1  0
                       0  1 -1   1  0 -1   0  0 -1       0 -1  1  -1  0  1   0  0  1
                      -1  0  0  -1  1  0  -1  0  1       1  0  0   1 -1  0   1  0 -1
                       0 -1  1   1 -1  0   0 -1  0       0  1 -1  -1  1  0   0  1  0
                       1  0  0   0  0  1   0  1  0      -1  0  0   0  0 -1   0 -1  0
                       0  1 -1   0  0 -1   1  0 -1       0 -1  1   0  0  1  -1  0  1
                      -1  0  1  -1  1  0  -1  0  0       1  0 -1   1 -1  0   1  0  0
                       0 -1  0   1 -1  0   0 -1  1       0  1  0  -1  1  0   0  1 -1
                       1  0 -1   0  0 -1   0  1 -1      -1  0  1   0  0  1   0 -1  1
                       0  1  0   0  0  1   1  0  0       0 -1  0   0  0 -1  -1  0  0
                       1  0 -1   0  1 -1   0  0 -1      -1  0  1   0 -1  1   0  0  1
                       0 -1  0   0 -1  1   1 -1  0       0  1  0   0  1 -1  -1  1  0
                      -1  0  1  -1  0  0  -1  1  0       1  0 -1   1  0  0   1 -1  0
                       0  1  0   1  0  0   0  0  1       0 -1  0  -1  0  0   0  0 -1
                       0  0 -1   0  1 -1   1  0 -1       0  0  1   0 -1  1  -1  0  1
                       1 -1  0   0 -1  1   0 -1  0      -1  1  0   0  1 -1   0  1  0
                       0  0  1   1  0  0   0  1  0       0  0 -1  -1  0  0   0 -1  0
                      -1  1  0  -1  0  0  -1  0  1       1 -1  0   1  0  0   1  0 -1
                       0  0  1   0  1  0   1  0  0       0  0 -1   0 -1  0  -1  0  0
                       1 -1  0   0 -1  0   0 -1  1      -1  1  0   0  1  0   0  1 -1
                       0  0 -1   1  0 -1   0  1 -1       0  0  1  -1  0  1   0 -1  1
                      -1  1  0  -1  0  1  -1  0  0       1 -1  0   1  0 -1   1  0  0
            tnons      0.0000000  0.0000000  0.0000000     0.2500000  0.2500000  0.2500000
                       0.0000000  0.0000000  0.0000000     0.2500000  0.2500000  0.2500000
                       0.0000000  0.0000000  0.0000000     0.2500000  0.2500000  0.2500000
                       0.0000000  0.0000000  0.0000000     0.2500000  0.2500000  0.2500000
                       0.0000000  0.0000000  0.0000000     0.2500000  0.2500000  0.2500000
                       0.0000000  0.0000000  0.0000000     0.2500000  0.2500000  0.2500000
                       0.0000000  0.0000000  0.0000000     0.2500000  0.2500000  0.2500000
                       0.0000000  0.0000000  0.0000000     0.2500000  0.2500000  0.2500000
                       0.0000000  0.0000000  0.0000000     0.2500000  0.2500000  0.2500000
                       0.0000000  0.0000000  0.0000000     0.2500000  0.2500000  0.2500000
                       0.0000000  0.0000000  0.0000000     0.2500000  0.2500000  0.2500000
                       0.0000000  0.0000000  0.0000000     0.2500000  0.2500000  0.2500000
                       0.0000000  0.0000000  0.0000000     0.2500000  0.2500000  0.2500000
                       0.0000000  0.0000000  0.0000000     0.2500000  0.2500000  0.2500000
                       0.0000000  0.0000000  0.0000000     0.2500000  0.2500000  0.2500000
                       0.0000000  0.0000000  0.0000000     0.2500000  0.2500000  0.2500000
                       0.0000000  0.0000000  0.0000000     0.2500000  0.2500000  0.2500000
                       0.0000000  0.0000000  0.0000000     0.2500000  0.2500000  0.2500000
                       0.0000000  0.0000000  0.0000000     0.2500000  0.2500000  0.2500000
                       0.0000000  0.0000000  0.0000000     0.2500000  0.2500000  0.2500000
                       0.0000000  0.0000000  0.0000000     0.2500000  0.2500000  0.2500000
                       0.0000000  0.0000000  0.0000000     0.2500000  0.2500000  0.2500000
                       0.0000000  0.0000000  0.0000000     0.2500000  0.2500000  0.2500000
                       0.0000000  0.0000000  0.0000000     0.2500000  0.2500000  0.2500000
           tolwfr      1.00000000E-10
            typat      1  1
              wtk        0.00463    0.03704    0.03704    0.01852    0.02778    0.11111
                         0.11111    0.11111    0.05556    0.02778    0.11111    0.05556
                         0.01389    0.11111    0.11111    0.05556
           xangst      0.0000000000E+00  0.0000000000E+00  0.0000000000E+00
                       1.3516508850E+00  1.3516508850E+00  1.3516508850E+00
            xcart      0.0000000000E+00  0.0000000000E+00  0.0000000000E+00
                       2.5542500000E+00  2.5542500000E+00  2.5542500000E+00
             xred      0.0000000000E+00  0.0000000000E+00  0.0000000000E+00
                       2.5000000000E-01  2.5000000000E-01  2.5000000000E-01
            znucl       14.00000

================================================================================


- Timing analysis has been suppressed with timopt=0



================================================================================

 Suggested references for the acknowledgment of ABINIT usage.

 The users of ABINIT have little formal obligations with respect to the ABINIT group
 (those specified in the GNU General Public License, http://www.gnu.org/copyleft/gpl.txt).
 However, it is common practice in the scientific literature,
 to acknowledge the efforts of people that have made the research possible.
 In this spirit, please find below suggested citations of work written by ABINIT developers,
 corresponding to implementations inside of ABINIT that you have used in the present run.
 Note also that it will be of great value to readers of publications presenting these results,
 to read papers enabling them to understand the theoretical formalism and details
 of the ABINIT implementation.
 For information on why they are suggested, see also http://www.abinit.org/about/?text=acknowledgments.

 [1] ABINIT : First-principles approach of materials and nanosystem properties.
 X. Gonze, B. Amadon, P.-M. Anglade, J.-M. Beuken, F. Bottin, P. Boulanger, F. Bruneval,
 D. Caliste, R. Caracas, M. Cote, T. Deutsch, L. Genovese, Ph. Ghosez, M. Giantomassi
 S. Goedecker, D.R. Hamann, P. Hermet, F. Jollet, G. Jomard, S. Leroux, M. Mancini, S. Mazevet,
 M.J.T. Oliveira, G. Onida, Y. Pouillon, T. Rangel, G.-M. Rignanese, D. Sangalli, R. Shaltaf,
 M. Torrent, M.J. Verstraete, G. Zerah, J.W. Zwanziger
 Computer Phys. Comm. 180, 2582-2615 (2009).
 Comment : the third generic paper describing the ABINIT project.
 Note that a version of this paper, that is not formatted for Computer Phys. Comm. 
 is available at http://www.abinit.org/about/ABINIT_CPC_v10.pdf .
 The licence allows the authors to put it on the Web.

 [2] A brief introduction to the ABINIT software package.
 X. Gonze, G.-M. Rignanese, M. Verstraete, J.-M. Beuken, Y. Pouillon, R. Caracas, F. Jollet,
 M. Torrent, G. Zerah, M. Mikami, Ph. Ghosez, M. Veithen, J.-Y. Raty, V. Olevano, F. Bruneval,
 L. Reining, R. Godby, G. Onida, D.R. Hamann, and D.C. Allan.
 Z. Kristallogr. 220, 558-562 (2005).
 Comment : the second generic paper describing the ABINIT project. Note that this paper
 should be cited especially if you are using the GW part of ABINIT, as several authors
 of this part are not in the list of authors of the first or third paper.
 The .pdf of the latter paper is available at http://www.abinit.org/about/zfk_0505-06_558-562.pdf.
 Note that it should not redistributed (Copyright by Oldenburg Wissenshaftverlag,
 the licence allows the authors to put it on the Web).


 And optionally :

 [3] First-principles computation of material properties : the ABINIT software project. 
 X. Gonze, J.-M. Beuken, R. Caracas, F. Detraux, M. Fuchs, G.-M. Rignanese, L. Sindic,
 M. Verstraete, G. Zerah, F. Jollet, M. Torrent, A. Roy, M. Mikami, Ph. Ghosez, J.-Y. Raty, D.C. Allan.
 Computational Materials Science 25, 478-492 (2002). http://dx.doi.org/10.1016/S0927-0256(02)00325-7
 Comment : the original paper describing the ABINIT project.

 [4] Fast radix 2, 3, 4 and 5 kernels for Fast Fourier Transformations
 on computers with overlapping multiply-add instructions.
 S. Goedecker, SIAM J. on Scientific Computing 18, 1605 (1997).
-
- Proc.   0 individual time (sec): cpu=         77.8  wall=         83.1

================================================================================

 Calculation completed.
.Delivered   22 WARNINGs and  12 COMMENTs to log file.
+Overall time at end (sec) : cpu=         77.8  wall=         83.1
