
.Version 7.10.4 of ABINIT 
.(MPI version, prepared for a x86_64_linux_gnu4.7 computer) 

.Copyright (C) 1998-2014 ABINIT group . 
 ABINIT comes with ABSOLUTELY NO WARRANTY.
 It is free software, and you are welcome to redistribute it
 under certain conditions (GNU General Public License,
 see ~abinit/COPYING or http://www.gnu.org/copyleft/gpl.txt).

 ABINIT is a project of the Universite Catholique de Louvain,
 Corning Inc. and other collaborators, see ~abinit/doc/developers/contributors.txt .
 Please read ~abinit/doc/users/acknowledgments.html for suggested
 acknowledgments of the ABINIT effort.
 For more information, see http://www.abinit.org .

.Starting date : Wed 11 Mar 2015.
- ( at 10h30 )
  
- input  file    -> t10.in
- output file    -> t10.out
- root for input  files -> t10i
- root for output files -> t10o


 DATASET    1 : space group Fd -3 m (#227); Bravais cF (face-center cubic)
================================================================================
 Values of the parameters that define the memory need for DATASET  1.
   intxc =         0  ionmov =         0    iscf =         7 xclevel =         1
  lmnmax =         2   lnmax =         2   mband =        17  mffmem =         1
P  mgfft =        20   mkmem =         2 mpssoang=         3     mpw =       296
  mqgrid =      3001   natom =         2    nfft =      8000    nkpt =         2
  nloalg =         4  nspden =         1 nspinor =         1  nsppol =         1
    nsym =        24  n1xccc =      2501  ntypat =         1  occopt =         1
================================================================================
P This job should need less than                       3.028 Mbytes of memory.
  Rough estimation (10% accuracy) of disk space for files :
_ WF disk file :      0.156 Mbytes ; DEN or POT disk file :      0.063 Mbytes.
================================================================================


 DATASET    2 : space group Fd -3 m (#227); Bravais cF (face-center cubic)
================================================================================
 Values of the parameters that define the memory need for DATASET  2.
   intxc =         0  ionmov =         0    iscf =         7 xclevel =         1
  lmnmax =         2   lnmax =         2   mband =        10  mffmem =         1
P  mgfft =        18   mkmem =         2 mpssoang=         3     mpw =       274
  mqgrid =      3001   natom =         2    nfft =      5832    nkpt =         2
  nloalg =         4  nspden =         1 nspinor =         1  nsppol =         1
    nsym =        24  n1xccc =      2501  ntypat =         1  occopt =         1
================================================================================
P This job should need less than                       2.343 Mbytes of memory.
  Rough estimation (10% accuracy) of disk space for files :
_ WF disk file :      0.086 Mbytes ; DEN or POT disk file :      0.046 Mbytes.
================================================================================


 DATASET    3 : space group Fd -3 m (#227); Bravais cF (face-center cubic)
================================================================================
 Values of the parameters that define the memory need for DATASET  3.
   intxc =         0  ionmov =         0    iscf =         7 xclevel =         1
  lmnmax =         2   lnmax =         2   mband =         5  mffmem =         1
P  mgfft =        18   mkmem =         2 mpssoang=         3     mpw =       274
  mqgrid =      3001   natom =         2    nfft =      5832    nkpt =         2
  nloalg =         4  nspden =         1 nspinor =         1  nsppol =         1
    nsym =        24  n1xccc =      2501  ntypat =         1  occopt =         1
================================================================================
P This job should need less than                       2.297 Mbytes of memory.
  Rough estimation (10% accuracy) of disk space for files :
_ WF disk file :      0.044 Mbytes ; DEN or POT disk file :      0.046 Mbytes.
================================================================================


 DATASET    4 : space group Fd -3 m (#227); Bravais cF (face-center cubic)
================================================================================
 Values of the parameters that define the memory need for DATASET  4.
   intxc =         0  ionmov =         0    iscf =         7 xclevel =         1
  lmnmax =         2   lnmax =         2   mband =        17  mffmem =         1
P  mgfft =        20   mkmem =         2 mpssoang=         3     mpw =       296
  mqgrid =      3001   natom =         2    nfft =      8000    nkpt =         2
  nloalg =         4  nspden =         1 nspinor =         1  nsppol =         1
    nsym =        48  n1xccc =      2501  ntypat =         1  occopt =         1
================================================================================
P This job should need less than                       3.029 Mbytes of memory.
  Rough estimation (10% accuracy) of disk space for files :
_ WF disk file :      0.156 Mbytes ; DEN or POT disk file :      0.063 Mbytes.
================================================================================


 DATASET    5 : space group Fd -3 m (#227); Bravais cF (face-center cubic)
================================================================================
 Values of the parameters that define the memory need for DATASET  5.
   intxc =         0  ionmov =         0    iscf =         7 xclevel =         1
  lmnmax =         2   lnmax =         2   mband =        10  mffmem =         1
P  mgfft =        18   mkmem =         2 mpssoang=         3     mpw =       274
  mqgrid =      3001   natom =         2    nfft =      5832    nkpt =         2
  nloalg =         4  nspden =         1 nspinor =         1  nsppol =         1
    nsym =        48  n1xccc =      2501  ntypat =         1  occopt =         1
================================================================================
P This job should need less than                       2.343 Mbytes of memory.
  Rough estimation (10% accuracy) of disk space for files :
_ WF disk file :      0.086 Mbytes ; DEN or POT disk file :      0.046 Mbytes.
================================================================================


 DATASET    6 : space group Fd -3 m (#227); Bravais cF (face-center cubic)
================================================================================
 Values of the parameters that define the memory need for DATASET  6.
   intxc =         0  ionmov =         0    iscf =         7 xclevel =         1
  lmnmax =         2   lnmax =         2   mband =         7  mffmem =         1
P  mgfft =        18   mkmem =         2 mpssoang=         3     mpw =       274
  mqgrid =      3001   natom =         2    nfft =      5832    nkpt =         2
  nloalg =         4  nspden =         1 nspinor =         1  nsppol =         1
    nsym =        48  n1xccc =      2501  ntypat =         1  occopt =         1
================================================================================
P This job should need less than                       2.316 Mbytes of memory.
  Rough estimation (10% accuracy) of disk space for files :
_ WF disk file :      0.061 Mbytes ; DEN or POT disk file :      0.046 Mbytes.
================================================================================

--------------------------------------------------------------------------------
------------- Echo of variables that govern the present computation ------------
--------------------------------------------------------------------------------
-
- outvars: echo of selected default values                                      
-   accesswff0 =  0 , fftalg0 =112 , wfoptalg0 =  0
-
- outvars: echo of global parameters not present in the input file              
-  max_nthreads =    0
-
 -outvars: echo values of preprocessed input variables --------
            acell      1.0250000000E+01  1.0250000000E+01  1.0250000000E+01 Bohr
              amu      2.80855000E+01
             bdgw3          4       5
             bdgw6          4       5
             ecut1     8.00000000E+00 Hartree
             ecut2     7.51522524E+00 Hartree
             ecut3     7.51522524E+00 Hartree
             ecut4     8.00000000E+00 Hartree
             ecut5     7.51522524E+00 Hartree
             ecut6     7.51522524E+00 Hartree
          ecuteps1     0.00000000E+00 Hartree
          ecuteps2     1.50304505E+00 Hartree
          ecuteps3     0.00000000E+00 Hartree
          ecuteps4     0.00000000E+00 Hartree
          ecuteps5     1.50304505E+00 Hartree
          ecuteps6     0.00000000E+00 Hartree
         ecutsigx1     0.00000000E+00 Hartree
         ecutsigx2     0.00000000E+00 Hartree
         ecutsigx3     2.25456757E+00 Hartree
         ecutsigx4     0.00000000E+00 Hartree
         ecutsigx5     0.00000000E+00 Hartree
         ecutsigx6     2.25456757E+00 Hartree
          ecutwfn1     8.00000000E+00 Hartree
          ecutwfn2     7.51522524E+00 Hartree
          ecutwfn3     7.51522524E+00 Hartree
          ecutwfn4     8.00000000E+00 Hartree
          ecutwfn5     7.51522524E+00 Hartree
          ecutwfn6     7.51522524E+00 Hartree
-          fftalg         112
           getkss1          0
           getkss2         -1
           getkss3         -2
           getkss4          0
           getkss5         -1
           getkss6         -2
           getscr1          0
           getscr2          0
           getscr3         -1
           getscr4          0
           getscr5          0
           getscr6         -1
           gw_eet1         -1
           gw_eet2          2
           gw_eet3          2
           gw_eet4         -1
           gw_eet5          0
           gw_eet6          0
   gw_eet_inclvkb1          0
   gw_eet_inclvkb2          1
   gw_eet_inclvkb3          1
   gw_eet_inclvkb4          0
   gw_eet_inclvkb5          0
   gw_eet_inclvkb6          0
     gw_eet_nband1         -1
     gw_eet_nband2         -1
     gw_eet_nband3         -1
     gw_eet_nband4         -1
     gw_eet_nband5          8
     gw_eet_nband6          6
     gw_eet_scale1     0.0000000000E+00
     gw_eet_scale2     0.0000000000E+00
     gw_eet_scale3     0.0000000000E+00
     gw_eet_scale4     0.0000000000E+00
     gw_eet_scale5     1.2000000000E+00
     gw_eet_scale6     1.2000000000E+00
         icutcoul1          6
         icutcoul2          6
         icutcoul3          3
         icutcoul4          6
         icutcoul5          6
         icutcoul6          3
          inclvkb1          1
          inclvkb2          2
          inclvkb3          1
          inclvkb4          1
          inclvkb5          0
          inclvkb6          1
           jdtset        1    2    3    4    5    6
              kpt     -2.50000000E-01  5.00000000E-01  0.00000000E+00
                      -2.50000000E-01  0.00000000E+00  0.00000000E+00
            kptgw3     2.50000000E-01  7.50000000E-01  2.50000000E-01
            kptgw6     2.50000000E-01  7.50000000E-01  2.50000000E-01
         kptrlatt        2   -2    2     -2    2    2     -2   -2    2
          kptrlen      2.05000000E+01
          kssform1          3
          kssform2          1
          kssform3          1
          kssform4          3
          kssform5          1
          kssform6          1
P           mkmem           2
            natom           2
            nband1         17
            nband2         10
            nband3          5
            nband4         17
            nband5         10
            nband6          7
         nbandkss1         12
         nbandkss2          0
         nbandkss3          0
         nbandkss4         12
         nbandkss5          0
         nbandkss6          0
           nbdbuf1          5
           nbdbuf2          0
           nbdbuf3          0
           nbdbuf4          5
           nbdbuf5          0
           nbdbuf6          0
           ndtset           6
            ngfft1         20      20      20
            ngfft2         18      18      18
            ngfft3         18      18      18
            ngfft4         20      20      20
            ngfft5         18      18      18
            ngfft6         18      18      18
             nkpt           2
           nkptgw1          0
           nkptgw2          0
           nkptgw3          1
           nkptgw4          0
           nkptgw5          0
           nkptgw6          1
           npweps1          0
           npweps2         27
           npweps3          0
           npweps4          0
           npweps5         27
           npweps6          0
          npwsigx1          0
          npwsigx2          0
          npwsigx3         59
          npwsigx4          0
          npwsigx5          0
          npwsigx6         59
           npwwfn1          0
           npwwfn2        283
           npwwfn3        283
           npwwfn4          0
           npwwfn5        283
           npwwfn6        283
           nsheps1          0
           nsheps2          5
           nsheps3          0
           nsheps4          0
           nsheps5          4
           nsheps6          0
          nshsigx1          0
          nshsigx2          0
          nshsigx3          9
          nshsigx4          0
          nshsigx5          0
          nshsigx6          6
            nstep1         20
            nstep2         30
            nstep3         30
            nstep4         20
            nstep5         30
            nstep6         30
             nsym1         24
             nsym2         24
             nsym3         24
             nsym4         48
             nsym5         48
             nsym6         48
           ntypat           1
              occ1     2.000000  2.000000  2.000000  2.000000  0.000000  0.000000
                       0.000000  0.000000  0.000000  0.000000  0.000000  0.000000
                       0.000000  0.000000  0.000000  0.000000  0.000000
              occ2     2.000000  2.000000  2.000000  2.000000  0.000000  0.000000
                       0.000000  0.000000  0.000000  0.000000
              occ3     2.000000  2.000000  2.000000  2.000000  0.000000
              occ4     2.000000  2.000000  2.000000  2.000000  0.000000  0.000000
                       0.000000  0.000000  0.000000  0.000000  0.000000  0.000000
                       0.000000  0.000000  0.000000  0.000000  0.000000
              occ5     2.000000  2.000000  2.000000  2.000000  0.000000  0.000000
                       0.000000  0.000000  0.000000  0.000000
              occ6     2.000000  2.000000  2.000000  2.000000  0.000000  0.000000
                       0.000000
        optdriver1          0
        optdriver2          3
        optdriver3          4
        optdriver4          0
        optdriver5          3
        optdriver6          4
           ppmfrq1     0.00000000E+00 Hartree
           ppmfrq2     6.06363869E-01 Hartree
           ppmfrq3     0.00000000E+00 Hartree
           ppmfrq4     0.00000000E+00 Hartree
           ppmfrq5     6.06363869E-01 Hartree
           ppmfrq6     0.00000000E+00 Hartree
            rprim      0.0000000000E+00  5.0000000000E-01  5.0000000000E-01
                       5.0000000000E-01  0.0000000000E+00  5.0000000000E-01
                       5.0000000000E-01  5.0000000000E-01  0.0000000000E+00
           shiftk      5.00000000E-01  5.00000000E-01  5.00000000E-01
          spgroup         227
           symafm1       1    1    1    1    1    1    1    1    1    1
                         1    1    1    1    1    1    1    1    1    1
                         1    1    1    1
           symafm2       1    1    1    1    1    1    1    1    1    1
                         1    1    1    1    1    1    1    1    1    1
                         1    1    1    1
           symafm3       1    1    1    1    1    1    1    1    1    1
                         1    1    1    1    1    1    1    1    1    1
                         1    1    1    1
           symafm4       1    1    1    1    1    1    1    1    1    1
                         1    1    1    1    1    1    1    1    1    1
                         1    1    1    1    1    1    1    1    1    1
                         1    1    1    1    1    1    1    1    1    1
                         1    1    1    1    1    1    1    1
           symafm5       1    1    1    1    1    1    1    1    1    1
                         1    1    1    1    1    1    1    1    1    1
                         1    1    1    1    1    1    1    1    1    1
                         1    1    1    1    1    1    1    1    1    1
                         1    1    1    1    1    1    1    1
           symafm6       1    1    1    1    1    1    1    1    1    1
                         1    1    1    1    1    1    1    1    1    1
                         1    1    1    1    1    1    1    1    1    1
                         1    1    1    1    1    1    1    1    1    1
                         1    1    1    1    1    1    1    1
        symmorphi1          0
        symmorphi2          0
        symmorphi3          0
        symmorphi4          1
        symmorphi5          1
        symmorphi6          1
           symrel1     1  0  0   0  1  0   0  0  1       0 -1  1   0 -1  0   1 -1  0
                      -1  0  0  -1  0  1  -1  1  0       0  1 -1   1  0 -1   0  0 -1
                      -1  0  0  -1  1  0  -1  0  1       0 -1  1   1 -1  0   0 -1  0
                       1  0  0   0  0  1   0  1  0       0  1 -1   0  0 -1   1  0 -1
                      -1  0  1  -1  1  0  -1  0  0       0 -1  0   1 -1  0   0 -1  1
                       1  0 -1   0  0 -1   0  1 -1       0  1  0   0  0  1   1  0  0
                       1  0 -1   0  1 -1   0  0 -1       0 -1  0   0 -1  1   1 -1  0
                      -1  0  1  -1  0  0  -1  1  0       0  1  0   1  0  0   0  0  1
                       0  0 -1   0  1 -1   1  0 -1       1 -1  0   0 -1  1   0 -1  0
                       0  0  1   1  0  0   0  1  0      -1  1  0  -1  0  0  -1  0  1
                       0  0  1   0  1  0   1  0  0       1 -1  0   0 -1  0   0 -1  1
                       0  0 -1   1  0 -1   0  1 -1      -1  1  0  -1  0  1  -1  0  0
           symrel2     1  0  0   0  1  0   0  0  1       0 -1  1   0 -1  0   1 -1  0
                      -1  0  0  -1  0  1  -1  1  0       0  1 -1   1  0 -1   0  0 -1
                      -1  0  0  -1  1  0  -1  0  1       0 -1  1   1 -1  0   0 -1  0
                       1  0  0   0  0  1   0  1  0       0  1 -1   0  0 -1   1  0 -1
                      -1  0  1  -1  1  0  -1  0  0       0 -1  0   1 -1  0   0 -1  1
                       1  0 -1   0  0 -1   0  1 -1       0  1  0   0  0  1   1  0  0
                       1  0 -1   0  1 -1   0  0 -1       0 -1  0   0 -1  1   1 -1  0
                      -1  0  1  -1  0  0  -1  1  0       0  1  0   1  0  0   0  0  1
                       0  0 -1   0  1 -1   1  0 -1       1 -1  0   0 -1  1   0 -1  0
                       0  0  1   1  0  0   0  1  0      -1  1  0  -1  0  0  -1  0  1
                       0  0  1   0  1  0   1  0  0       1 -1  0   0 -1  0   0 -1  1
                       0  0 -1   1  0 -1   0  1 -1      -1  1  0  -1  0  1  -1  0  0
           symrel3     1  0  0   0  1  0   0  0  1       0 -1  1   0 -1  0   1 -1  0
                      -1  0  0  -1  0  1  -1  1  0       0  1 -1   1  0 -1   0  0 -1
                      -1  0  0  -1  1  0  -1  0  1       0 -1  1   1 -1  0   0 -1  0
                       1  0  0   0  0  1   0  1  0       0  1 -1   0  0 -1   1  0 -1
                      -1  0  1  -1  1  0  -1  0  0       0 -1  0   1 -1  0   0 -1  1
                       1  0 -1   0  0 -1   0  1 -1       0  1  0   0  0  1   1  0  0
                       1  0 -1   0  1 -1   0  0 -1       0 -1  0   0 -1  1   1 -1  0
                      -1  0  1  -1  0  0  -1  1  0       0  1  0   1  0  0   0  0  1
                       0  0 -1   0  1 -1   1  0 -1       1 -1  0   0 -1  1   0 -1  0
                       0  0  1   1  0  0   0  1  0      -1  1  0  -1  0  0  -1  0  1
                       0  0  1   0  1  0   1  0  0       1 -1  0   0 -1  0   0 -1  1
                       0  0 -1   1  0 -1   0  1 -1      -1  1  0  -1  0  1  -1  0  0
           symrel4     1  0  0   0  1  0   0  0  1      -1  0  0   0 -1  0   0  0 -1
                       0 -1  1   0 -1  0   1 -1  0       0  1 -1   0  1  0  -1  1  0
                      -1  0  0  -1  0  1  -1  1  0       1  0  0   1  0 -1   1 -1  0
                       0  1 -1   1  0 -1   0  0 -1       0 -1  1  -1  0  1   0  0  1
                      -1  0  0  -1  1  0  -1  0  1       1  0  0   1 -1  0   1  0 -1
                       0 -1  1   1 -1  0   0 -1  0       0  1 -1  -1  1  0   0  1  0
                       1  0  0   0  0  1   0  1  0      -1  0  0   0  0 -1   0 -1  0
                       0  1 -1   0  0 -1   1  0 -1       0 -1  1   0  0  1  -1  0  1
                      -1  0  1  -1  1  0  -1  0  0       1  0 -1   1 -1  0   1  0  0
                       0 -1  0   1 -1  0   0 -1  1       0  1  0  -1  1  0   0  1 -1
                       1  0 -1   0  0 -1   0  1 -1      -1  0  1   0  0  1   0 -1  1
                       0  1  0   0  0  1   1  0  0       0 -1  0   0  0 -1  -1  0  0
                       1  0 -1   0  1 -1   0  0 -1      -1  0  1   0 -1  1   0  0  1
                       0 -1  0   0 -1  1   1 -1  0       0  1  0   0  1 -1  -1  1  0
                      -1  0  1  -1  0  0  -1  1  0       1  0 -1   1  0  0   1 -1  0
                       0  1  0   1  0  0   0  0  1       0 -1  0  -1  0  0   0  0 -1
                       0  0 -1   0  1 -1   1  0 -1       0  0  1   0 -1  1  -1  0  1
                       1 -1  0   0 -1  1   0 -1  0      -1  1  0   0  1 -1   0  1  0
                       0  0  1   1  0  0   0  1  0       0  0 -1  -1  0  0   0 -1  0
                      -1  1  0  -1  0  0  -1  0  1       1 -1  0   1  0  0   1  0 -1
                       0  0  1   0  1  0   1  0  0       0  0 -1   0 -1  0  -1  0  0
                       1 -1  0   0 -1  0   0 -1  1      -1  1  0   0  1  0   0  1 -1
                       0  0 -1   1  0 -1   0  1 -1       0  0  1  -1  0  1   0 -1  1
                      -1  1  0  -1  0  1  -1  0  0       1 -1  0   1  0 -1   1  0  0
           symrel5     1  0  0   0  1  0   0  0  1      -1  0  0   0 -1  0   0  0 -1
                       0 -1  1   0 -1  0   1 -1  0       0  1 -1   0  1  0  -1  1  0
                      -1  0  0  -1  0  1  -1  1  0       1  0  0   1  0 -1   1 -1  0
                       0  1 -1   1  0 -1   0  0 -1       0 -1  1  -1  0  1   0  0  1
                      -1  0  0  -1  1  0  -1  0  1       1  0  0   1 -1  0   1  0 -1
                       0 -1  1   1 -1  0   0 -1  0       0  1 -1  -1  1  0   0  1  0
                       1  0  0   0  0  1   0  1  0      -1  0  0   0  0 -1   0 -1  0
                       0  1 -1   0  0 -1   1  0 -1       0 -1  1   0  0  1  -1  0  1
                      -1  0  1  -1  1  0  -1  0  0       1  0 -1   1 -1  0   1  0  0
                       0 -1  0   1 -1  0   0 -1  1       0  1  0  -1  1  0   0  1 -1
                       1  0 -1   0  0 -1   0  1 -1      -1  0  1   0  0  1   0 -1  1
                       0  1  0   0  0  1   1  0  0       0 -1  0   0  0 -1  -1  0  0
                       1  0 -1   0  1 -1   0  0 -1      -1  0  1   0 -1  1   0  0  1
                       0 -1  0   0 -1  1   1 -1  0       0  1  0   0  1 -1  -1  1  0
                      -1  0  1  -1  0  0  -1  1  0       1  0 -1   1  0  0   1 -1  0
                       0  1  0   1  0  0   0  0  1       0 -1  0  -1  0  0   0  0 -1
                       0  0 -1   0  1 -1   1  0 -1       0  0  1   0 -1  1  -1  0  1
                       1 -1  0   0 -1  1   0 -1  0      -1  1  0   0  1 -1   0  1  0
                       0  0  1   1  0  0   0  1  0       0  0 -1  -1  0  0   0 -1  0
                      -1  1  0  -1  0  0  -1  0  1       1 -1  0   1  0  0   1  0 -1
                       0  0  1   0  1  0   1  0  0       0  0 -1   0 -1  0  -1  0  0
                       1 -1  0   0 -1  0   0 -1  1      -1  1  0   0  1  0   0  1 -1
                       0  0 -1   1  0 -1   0  1 -1       0  0  1  -1  0  1   0 -1  1
                      -1  1  0  -1  0  1  -1  0  0       1 -1  0   1  0 -1   1  0  0
           symrel6     1  0  0   0  1  0   0  0  1      -1  0  0   0 -1  0   0  0 -1
                       0 -1  1   0 -1  0   1 -1  0       0  1 -1   0  1  0  -1  1  0
                      -1  0  0  -1  0  1  -1  1  0       1  0  0   1  0 -1   1 -1  0
                       0  1 -1   1  0 -1   0  0 -1       0 -1  1  -1  0  1   0  0  1
                      -1  0  0  -1  1  0  -1  0  1       1  0  0   1 -1  0   1  0 -1
                       0 -1  1   1 -1  0   0 -1  0       0  1 -1  -1  1  0   0  1  0
                       1  0  0   0  0  1   0  1  0      -1  0  0   0  0 -1   0 -1  0
                       0  1 -1   0  0 -1   1  0 -1       0 -1  1   0  0  1  -1  0  1
                      -1  0  1  -1  1  0  -1  0  0       1  0 -1   1 -1  0   1  0  0
                       0 -1  0   1 -1  0   0 -1  1       0  1  0  -1  1  0   0  1 -1
                       1  0 -1   0  0 -1   0  1 -1      -1  0  1   0  0  1   0 -1  1
                       0  1  0   0  0  1   1  0  0       0 -1  0   0  0 -1  -1  0  0
                       1  0 -1   0  1 -1   0  0 -1      -1  0  1   0 -1  1   0  0  1
                       0 -1  0   0 -1  1   1 -1  0       0  1  0   0  1 -1  -1  1  0
                      -1  0  1  -1  0  0  -1  1  0       1  0 -1   1  0  0   1 -1  0
                       0  1  0   1  0  0   0  0  1       0 -1  0  -1  0  0   0  0 -1
                       0  0 -1   0  1 -1   1  0 -1       0  0  1   0 -1  1  -1  0  1
                       1 -1  0   0 -1  1   0 -1  0      -1  1  0   0  1 -1   0  1  0
                       0  0  1   1  0  0   0  1  0       0  0 -1  -1  0  0   0 -1  0
                      -1  1  0  -1  0  0  -1  0  1       1 -1  0   1  0  0   1  0 -1
                       0  0  1   0  1  0   1  0  0       0  0 -1   0 -1  0  -1  0  0
                       1 -1  0   0 -1  0   0 -1  1      -1  1  0   0  1  0   0  1 -1
                       0  0 -1   1  0 -1   0  1 -1       0  0  1  -1  0  1   0 -1  1
                      -1  1  0  -1  0  1  -1  0  0       1 -1  0   1  0 -1   1  0  0
            tnons1     0.0000000  0.0000000  0.0000000     0.0000000  0.0000000  0.0000000
                       0.0000000  0.0000000  0.0000000     0.0000000  0.0000000  0.0000000
                       0.0000000  0.0000000  0.0000000     0.0000000  0.0000000  0.0000000
                       0.0000000  0.0000000  0.0000000     0.0000000  0.0000000  0.0000000
                       0.0000000  0.0000000  0.0000000     0.0000000  0.0000000  0.0000000
                       0.0000000  0.0000000  0.0000000     0.0000000  0.0000000  0.0000000
                       0.0000000  0.0000000  0.0000000     0.0000000  0.0000000  0.0000000
                       0.0000000  0.0000000  0.0000000     0.0000000  0.0000000  0.0000000
                       0.0000000  0.0000000  0.0000000     0.0000000  0.0000000  0.0000000
                       0.0000000  0.0000000  0.0000000     0.0000000  0.0000000  0.0000000
                       0.0000000  0.0000000  0.0000000     0.0000000  0.0000000  0.0000000
                       0.0000000  0.0000000  0.0000000     0.0000000  0.0000000  0.0000000
            tnons2     0.0000000  0.0000000  0.0000000     0.0000000  0.0000000  0.0000000
                       0.0000000  0.0000000  0.0000000     0.0000000  0.0000000  0.0000000
                       0.0000000  0.0000000  0.0000000     0.0000000  0.0000000  0.0000000
                       0.0000000  0.0000000  0.0000000     0.0000000  0.0000000  0.0000000
                       0.0000000  0.0000000  0.0000000     0.0000000  0.0000000  0.0000000
                       0.0000000  0.0000000  0.0000000     0.0000000  0.0000000  0.0000000
                       0.0000000  0.0000000  0.0000000     0.0000000  0.0000000  0.0000000
                       0.0000000  0.0000000  0.0000000     0.0000000  0.0000000  0.0000000
                       0.0000000  0.0000000  0.0000000     0.0000000  0.0000000  0.0000000
                       0.0000000  0.0000000  0.0000000     0.0000000  0.0000000  0.0000000
                       0.0000000  0.0000000  0.0000000     0.0000000  0.0000000  0.0000000
                       0.0000000  0.0000000  0.0000000     0.0000000  0.0000000  0.0000000
            tnons3     0.0000000  0.0000000  0.0000000     0.0000000  0.0000000  0.0000000
                       0.0000000  0.0000000  0.0000000     0.0000000  0.0000000  0.0000000
                       0.0000000  0.0000000  0.0000000     0.0000000  0.0000000  0.0000000
                       0.0000000  0.0000000  0.0000000     0.0000000  0.0000000  0.0000000
                       0.0000000  0.0000000  0.0000000     0.0000000  0.0000000  0.0000000
                       0.0000000  0.0000000  0.0000000     0.0000000  0.0000000  0.0000000
                       0.0000000  0.0000000  0.0000000     0.0000000  0.0000000  0.0000000
                       0.0000000  0.0000000  0.0000000     0.0000000  0.0000000  0.0000000
                       0.0000000  0.0000000  0.0000000     0.0000000  0.0000000  0.0000000
                       0.0000000  0.0000000  0.0000000     0.0000000  0.0000000  0.0000000
                       0.0000000  0.0000000  0.0000000     0.0000000  0.0000000  0.0000000
                       0.0000000  0.0000000  0.0000000     0.0000000  0.0000000  0.0000000
            tnons4     0.0000000  0.0000000  0.0000000     0.2500000  0.2500000  0.2500000
                       0.0000000  0.0000000  0.0000000     0.2500000  0.2500000  0.2500000
                       0.0000000  0.0000000  0.0000000     0.2500000  0.2500000  0.2500000
                       0.0000000  0.0000000  0.0000000     0.2500000  0.2500000  0.2500000
                       0.0000000  0.0000000  0.0000000     0.2500000  0.2500000  0.2500000
                       0.0000000  0.0000000  0.0000000     0.2500000  0.2500000  0.2500000
                       0.0000000  0.0000000  0.0000000     0.2500000  0.2500000  0.2500000
                       0.0000000  0.0000000  0.0000000     0.2500000  0.2500000  0.2500000
                       0.0000000  0.0000000  0.0000000     0.2500000  0.2500000  0.2500000
                       0.0000000  0.0000000  0.0000000     0.2500000  0.2500000  0.2500000
                       0.0000000  0.0000000  0.0000000     0.2500000  0.2500000  0.2500000
                       0.0000000  0.0000000  0.0000000     0.2500000  0.2500000  0.2500000
                       0.0000000  0.0000000  0.0000000     0.2500000  0.2500000  0.2500000
                       0.0000000  0.0000000  0.0000000     0.2500000  0.2500000  0.2500000
                       0.0000000  0.0000000  0.0000000     0.2500000  0.2500000  0.2500000
                       0.0000000  0.0000000  0.0000000     0.2500000  0.2500000  0.2500000
                       0.0000000  0.0000000  0.0000000     0.2500000  0.2500000  0.2500000
                       0.0000000  0.0000000  0.0000000     0.2500000  0.2500000  0.2500000
                       0.0000000  0.0000000  0.0000000     0.2500000  0.2500000  0.2500000
                       0.0000000  0.0000000  0.0000000     0.2500000  0.2500000  0.2500000
                       0.0000000  0.0000000  0.0000000     0.2500000  0.2500000  0.2500000
                       0.0000000  0.0000000  0.0000000     0.2500000  0.2500000  0.2500000
                       0.0000000  0.0000000  0.0000000     0.2500000  0.2500000  0.2500000
                       0.0000000  0.0000000  0.0000000     0.2500000  0.2500000  0.2500000
            tnons5     0.0000000  0.0000000  0.0000000     0.2500000  0.2500000  0.2500000
                       0.0000000  0.0000000  0.0000000     0.2500000  0.2500000  0.2500000
                       0.0000000  0.0000000  0.0000000     0.2500000  0.2500000  0.2500000
                       0.0000000  0.0000000  0.0000000     0.2500000  0.2500000  0.2500000
                       0.0000000  0.0000000  0.0000000     0.2500000  0.2500000  0.2500000
                       0.0000000  0.0000000  0.0000000     0.2500000  0.2500000  0.2500000
                       0.0000000  0.0000000  0.0000000     0.2500000  0.2500000  0.2500000
                       0.0000000  0.0000000  0.0000000     0.2500000  0.2500000  0.2500000
                       0.0000000  0.0000000  0.0000000     0.2500000  0.2500000  0.2500000
                       0.0000000  0.0000000  0.0000000     0.2500000  0.2500000  0.2500000
                       0.0000000  0.0000000  0.0000000     0.2500000  0.2500000  0.2500000
                       0.0000000  0.0000000  0.0000000     0.2500000  0.2500000  0.2500000
                       0.0000000  0.0000000  0.0000000     0.2500000  0.2500000  0.2500000
                       0.0000000  0.0000000  0.0000000     0.2500000  0.2500000  0.2500000
                       0.0000000  0.0000000  0.0000000     0.2500000  0.2500000  0.2500000
                       0.0000000  0.0000000  0.0000000     0.2500000  0.2500000  0.2500000
                       0.0000000  0.0000000  0.0000000     0.2500000  0.2500000  0.2500000
                       0.0000000  0.0000000  0.0000000     0.2500000  0.2500000  0.2500000
                       0.0000000  0.0000000  0.0000000     0.2500000  0.2500000  0.2500000
                       0.0000000  0.0000000  0.0000000     0.2500000  0.2500000  0.2500000
                       0.0000000  0.0000000  0.0000000     0.2500000  0.2500000  0.2500000
                       0.0000000  0.0000000  0.0000000     0.2500000  0.2500000  0.2500000
                       0.0000000  0.0000000  0.0000000     0.2500000  0.2500000  0.2500000
                       0.0000000  0.0000000  0.0000000     0.2500000  0.2500000  0.2500000
            tnons6     0.0000000  0.0000000  0.0000000     0.2500000  0.2500000  0.2500000
                       0.0000000  0.0000000  0.0000000     0.2500000  0.2500000  0.2500000
                       0.0000000  0.0000000  0.0000000     0.2500000  0.2500000  0.2500000
                       0.0000000  0.0000000  0.0000000     0.2500000  0.2500000  0.2500000
                       0.0000000  0.0000000  0.0000000     0.2500000  0.2500000  0.2500000
                       0.0000000  0.0000000  0.0000000     0.2500000  0.2500000  0.2500000
                       0.0000000  0.0000000  0.0000000     0.2500000  0.2500000  0.2500000
                       0.0000000  0.0000000  0.0000000     0.2500000  0.2500000  0.2500000
                       0.0000000  0.0000000  0.0000000     0.2500000  0.2500000  0.2500000
                       0.0000000  0.0000000  0.0000000     0.2500000  0.2500000  0.2500000
                       0.0000000  0.0000000  0.0000000     0.2500000  0.2500000  0.2500000
                       0.0000000  0.0000000  0.0000000     0.2500000  0.2500000  0.2500000
                       0.0000000  0.0000000  0.0000000     0.2500000  0.2500000  0.2500000
                       0.0000000  0.0000000  0.0000000     0.2500000  0.2500000  0.2500000
                       0.0000000  0.0000000  0.0000000     0.2500000  0.2500000  0.2500000
                       0.0000000  0.0000000  0.0000000     0.2500000  0.2500000  0.2500000
                       0.0000000  0.0000000  0.0000000     0.2500000  0.2500000  0.2500000
                       0.0000000  0.0000000  0.0000000     0.2500000  0.2500000  0.2500000
                       0.0000000  0.0000000  0.0000000     0.2500000  0.2500000  0.2500000
                       0.0000000  0.0000000  0.0000000     0.2500000  0.2500000  0.2500000
                       0.0000000  0.0000000  0.0000000     0.2500000  0.2500000  0.2500000
                       0.0000000  0.0000000  0.0000000     0.2500000  0.2500000  0.2500000
                       0.0000000  0.0000000  0.0000000     0.2500000  0.2500000  0.2500000
                       0.0000000  0.0000000  0.0000000     0.2500000  0.2500000  0.2500000
           tolwfr      1.00000000E-16
            typat      1  1
              wtk        0.75000    0.25000
           xangst      0.0000000000E+00  0.0000000000E+00  0.0000000000E+00
                       1.3560165970E+00  1.3560165970E+00  1.3560165970E+00
            xcart      0.0000000000E+00  0.0000000000E+00  0.0000000000E+00
                       2.5625000000E+00  2.5625000000E+00  2.5625000000E+00
             xred      0.0000000000E+00  0.0000000000E+00  0.0000000000E+00
                       2.5000000000E-01  2.5000000000E-01  2.5000000000E-01
            znucl       14.00000

================================================================================

 chkinp: Checking input parameters for consistency, jdtset=   1.

 chkinp: Checking input parameters for consistency, jdtset=   2.

 chkinp: Checking input parameters for consistency, jdtset=   3.

 chkinp: Checking input parameters for consistency, jdtset=   4.

 chkinp: Checking input parameters for consistency, jdtset=   5.

 chkinp: Checking input parameters for consistency, jdtset=   6.

================================================================================
== DATASET  1 ==================================================================
-   nproc =    1

 Exchange-correlation functional for the present dataset will be:
  LDA: new Teter (4/93) with spin-polarized option - ixc=1
 Citation for XC functional:
  S. Goedecker, M. Teter, J. Huetter, PRB 54, 1703 (1996)

 Real(R)+Recip(G) space primitive vectors, cartesian coordinates (Bohr,Bohr^-1):
 R(1)=  0.0000000  5.1250000  5.1250000  G(1)= -0.0975610  0.0975610  0.0975610
 R(2)=  5.1250000  0.0000000  5.1250000  G(2)=  0.0975610 -0.0975610  0.0975610
 R(3)=  5.1250000  5.1250000  0.0000000  G(3)=  0.0975610  0.0975610 -0.0975610
 Unit cell volume ucvol=  2.6922266E+02 bohr^3
 Angles (23,13,12)=  6.00000000E+01  6.00000000E+01  6.00000000E+01 degrees

 getcut: wavevector=  0.0000  0.0000  0.0000  ngfft=  20  20  20
         ecut(hartree)=      8.000   => boxcut(ratio)=   2.16726

--- Pseudopotential description ------------------------------------------------
- pspini: atom type   1  psp file is /home/gonze/ABINIT/ABINITv7.10.4/trunk/7.10.4-private/tests/Psps_for_tests/14si.pspnc
- pspatm: opening atomic psp file    /home/gonze/ABINIT/ABINITv7.10.4/trunk/7.10.4-private/tests/Psps_for_tests/14si.pspnc
-  Troullier-Martins psp for element  Si        Thu Oct 27 17:31:21 EDT 1994
- 14.00000   4.00000    940714                znucl, zion, pspdat
    1    1    2    2      2001   0.00000      pspcod,pspxc,lmax,lloc,mmax,r2well
    0   5.907  14.692    1   2.0872718        l,e99.0,e99.9,nproj,rcpsp
   0.00000000   0.00000000   0.00000000   0.00000000     rms, ekb1, ekb2, epsatm
    1   2.617   4.181    1   2.0872718        l,e99.0,e99.9,nproj,rcpsp
   0.00000000   0.00000000   0.00000000   0.00000000     rms, ekb1, ekb2, epsatm
    2   0.000   0.000    0   2.0872718        l,e99.0,e99.9,nproj,rcpsp
   0.00000000   0.00000000   0.00000000   0.00000000     rms, ekb1, ekb2, epsatm
    1.80626423934776    0.22824404341771    1.17378968127746   rchrg,fchrg,qchrg
 pspatm: epsatm=    1.43386982
         --- l  ekb(1:nproj) -->
             0    3.287949
             1    1.849886
 pspatm: atomic psp has been read  and splines computed

   2.29419171E+01                                ecore*ucvol(ha*bohr**3)
--------------------------------------------------------------------------------

P newkpt: treating     17 bands with npw=     290 for ikpt=   1 by node    0
P newkpt: treating     17 bands with npw=     296 for ikpt=   2 by node    0

_setup2: Arith. and geom. avg. npw (full set) are     291.500     291.489

================================================================================

     iter   Etot(hartree)      deltaE(h)  residm     vres2
 ETOT  1  -8.8600679655298    -8.860E+00 2.622E-03 5.803E+00
 ETOT  2  -8.8661418766938    -6.074E-03 2.390E-08 2.926E-01
 ETOT  3  -8.8662966689425    -1.548E-04 1.095E-05 5.425E-03
 ETOT  4  -8.8662985738860    -1.905E-06 2.572E-07 1.926E-04
 ETOT  5  -8.8662987555411    -1.817E-07 6.645E-09 1.136E-06
 ETOT  6  -8.8662987560866    -5.455E-10 5.139E-11 1.205E-08
 ETOT  7  -8.8662987560928    -6.230E-12 5.367E-13 7.818E-11
 ETOT  8  -8.8662987560928    -1.776E-15 3.124E-15 2.596E-12
 ETOT  9  -8.8662987560929    -4.263E-14 2.497E-16 3.418E-14
 ETOT 10  -8.8662987560928     3.730E-14 8.986E-17 1.247E-16

 At SCF step   10   max residual=  8.99E-17 < tolwfr=  1.00E-16 =>converged.

 Cartesian components of stress tensor (hartree/bohr^3)
  sigma(1 1)=  4.82823078E-05  sigma(3 2)=  0.00000000E+00
  sigma(2 2)=  4.82823078E-05  sigma(3 1)=  0.00000000E+00
  sigma(3 3)=  4.82823078E-05  sigma(2 1)=  0.00000000E+00


======================================================================
 Calculating and writing out Kohn-Sham electronic Structure file
 Using conjugate gradient wavefunctions and energies (kssform=3)
 number of Gamma centered plane waves    435
 number of Gamma centered shells     38
 number of bands     12
 maximum angular momentum components      3
 Conjugate gradient eigenvalues
   k    eigenvalues [Hartree]
   1     -0.1262 -0.0211  0.0828  0.1327  0.2670  0.3760  0.4226  0.4318  0.5854
          0.6052  0.6652  0.6754
   2     -0.1974  0.0690  0.1865  0.1865  0.2852  0.3423  0.3423  0.4615  0.4815
          0.4815  0.5359  0.6409
 Test on the normalization of the wavefunctions
  min sum_G |a(n,k,G)| =  1.000000
  max sum_G |a(n,k,G)| =  1.000000
 Test on the orthogonalization of the wavefunctions
  min sum_G a(n,k,G)a(n',k,G) =  0.000000
  max sum_G a(n,k,G)a(n',k,G) =  0.000000

================================================================================

 ----iterations are completed or convergence reached----

 Mean square residual over all n,k,spin=   1.9467E-07; max=  6.6188E-06
  -0.2500  0.5000  0.0000    1  6.61884E-06 kpt; spin; max resid(k); each band:
  5.36E-17 4.93E-17 3.40E-18 5.56E-17 3.58E-18 7.56E-18 4.94E-18 8.99E-17
  3.71E-18 3.47E-18 6.46E-17 8.90E-18 4.99E-18 2.36E-17 1.44E-14 6.28E-11
  6.62E-06
  -0.2500  0.0000  0.0000    1  7.90326E-17 kpt; spin; max resid(k); each band:
  5.25E-17 5.61E-17 3.80E-17 3.80E-17 4.42E-18 7.90E-17 7.90E-17 5.62E-18
  2.94E-18 2.94E-18 7.08E-18 6.28E-18 1.26E-17 1.26E-17 5.02E-17 7.18E-17
  9.12E-18
 reduced coordinates (array xred) for    2 atoms
       0.000000000000      0.000000000000      0.000000000000
       0.250000000000      0.250000000000      0.250000000000
 rms dE/dt=  0.0000E+00; max dE/dt=  0.0000E+00; dE/dt below (all hartree)
    1       0.000000000000      0.000000000000      0.000000000000
    2       0.000000000000      0.000000000000      0.000000000000

 cartesian coordinates (angstrom) at end:
    1      0.00000000000000     0.00000000000000     0.00000000000000
    2      1.35601659701187     1.35601659701187     1.35601659701187

 cartesian forces (hartree/bohr) at end:
    1     -0.00000000000000    -0.00000000000000    -0.00000000000000
    2     -0.00000000000000    -0.00000000000000    -0.00000000000000
 frms,max,avg= 0.0000000E+00 0.0000000E+00   0.000E+00  0.000E+00  0.000E+00 h/b

 cartesian forces (eV/Angstrom) at end:
    1     -0.00000000000000    -0.00000000000000    -0.00000000000000
    2     -0.00000000000000    -0.00000000000000    -0.00000000000000
 frms,max,avg= 0.0000000E+00 0.0000000E+00   0.000E+00  0.000E+00  0.000E+00 e/A
 length scales= 10.250000000000 10.250000000000 10.250000000000 bohr
              =  5.424066388047  5.424066388047  5.424066388047 angstroms
 prteigrs : about to open file t10o_DS1_EIG
 Fermi (or HOMO) energy (hartree) =   0.18655   Average Vxc (hartree)=  -0.35271
 Eigenvalues (hartree) for nkpt=   2  k points:
 kpt#   1, nband= 17, wtk=  0.75000, kpt= -0.2500  0.5000  0.0000 (reduced coord)
  -0.12620  -0.02107   0.08279   0.13272   0.26698   0.37599   0.42257   0.43181
   0.58541   0.60517   0.66524   0.67544   0.68467   0.82919   0.86955   0.89509
   0.92549
 kpt#   2, nband= 17, wtk=  0.25000, kpt= -0.2500  0.0000  0.0000 (reduced coord)
  -0.19737   0.06902   0.18655   0.18655   0.28520   0.34226   0.34226   0.46151
   0.48147   0.48147   0.53593   0.64088   0.75373   0.75373   0.86861   0.87149
   0.87149
 Total charge density [el/Bohr^3]
,     Maximum=    8.5996E-02  at reduced coord.    0.1000    0.1000    0.7000
,Next maximum=    8.5996E-02  at reduced coord.    0.1000    0.7000    0.1000
,     Minimum=    3.1695E-03  at reduced coord.    0.7500    0.7500    0.7500
,Next minimum=    3.1695E-03  at reduced coord.    0.5000    0.5000    0.5000
,  Integrated=    8.0000E+00

--------------------------------------------------------------------------------
 Components of total free energy (in Hartree) :

    Kinetic energy  =  3.03394603579895E+00
    Hartree energy  =  5.51614528736186E-01
    XC energy       = -3.53659202383375E+00
    Ewald energy    = -8.40866036158725E+00
    PspCore energy  =  8.52154029741278E-02
    Loc. psp. energy= -2.46205434501468E+00
    NL   psp  energy=  1.87023200683360E+00
    >>>>>>>>> Etotal= -8.86629875609282E+00

 Other information on the energy :
    Total energy(eV)= -2.41264258869482E+02 ; Band energy (Ha)=   2.2471947587E-01
--------------------------------------------------------------------------------

 Cartesian components of stress tensor (hartree/bohr^3)
  sigma(1 1)=  4.82823078E-05  sigma(3 2)=  0.00000000E+00
  sigma(2 2)=  4.82823078E-05  sigma(3 1)=  0.00000000E+00
  sigma(3 3)=  4.82823078E-05  sigma(2 1)=  0.00000000E+00

-Cartesian components of stress tensor (GPa)         [Pressure= -1.4205E+00 GPa]
- sigma(1 1)=  1.42051430E+00  sigma(3 2)=  0.00000000E+00
- sigma(2 2)=  1.42051430E+00  sigma(3 1)=  0.00000000E+00
- sigma(3 3)=  1.42051430E+00  sigma(2 1)=  0.00000000E+00

================================================================================
== DATASET  2 ==================================================================
-   nproc =    1

 mkfilename : getkss/=0, take file _KSS from output of DATASET   1.

 Exchange-correlation functional for the present dataset will be:
  LDA: new Teter (4/93) with spin-polarized option - ixc=1
 Citation for XC functional:
  S. Goedecker, M. Teter, J. Huetter, PRB 54, 1703 (1996)

 SCREENING: Calculation of the susceptibility and dielectric matrices 

 Based on a program developped by R.W. Godby, V. Olevano, G. Onida, and L. Reining.
 Incorporated in ABINIT by V. Olevano, G.-M. Rignanese, and M. Torrent.
.Using double precision arithmetic ; gwpc =  8

 Real(R)+Recip(G) space primitive vectors, cartesian coordinates (Bohr,Bohr^-1):
 R(1)=  0.0000000  5.1250000  5.1250000  G(1)= -0.0975610  0.0975610  0.0975610
 R(2)=  5.1250000  0.0000000  5.1250000  G(2)=  0.0975610 -0.0975610  0.0975610
 R(3)=  5.1250000  5.1250000  0.0000000  G(3)=  0.0975610  0.0975610 -0.0975610
 Unit cell volume ucvol=  2.6922266E+02 bohr^3
 Angles (23,13,12)=  6.00000000E+01  6.00000000E+01  6.00000000E+01 degrees

--- Pseudopotential description ------------------------------------------------
- pspini: atom type   1  psp file is /home/gonze/ABINIT/ABINITv7.10.4/trunk/7.10.4-private/tests/Psps_for_tests/14si.pspnc
- pspatm: opening atomic psp file    /home/gonze/ABINIT/ABINITv7.10.4/trunk/7.10.4-private/tests/Psps_for_tests/14si.pspnc
-  Troullier-Martins psp for element  Si        Thu Oct 27 17:31:21 EDT 1994
- 14.00000   4.00000    940714                znucl, zion, pspdat
    1    1    2    2      2001   0.00000      pspcod,pspxc,lmax,lloc,mmax,r2well
    0   5.907  14.692    1   2.0872718        l,e99.0,e99.9,nproj,rcpsp
   0.00000000   0.00000000   0.00000000   0.00000000     rms, ekb1, ekb2, epsatm
    1   2.617   4.181    1   2.0872718        l,e99.0,e99.9,nproj,rcpsp
   0.00000000   0.00000000   0.00000000   0.00000000     rms, ekb1, ekb2, epsatm
    2   0.000   0.000    0   2.0872718        l,e99.0,e99.9,nproj,rcpsp
   0.00000000   0.00000000   0.00000000   0.00000000     rms, ekb1, ekb2, epsatm
    1.80626423934776    0.22824404341771    1.17378968127746   rchrg,fchrg,qchrg
 pspatm: epsatm=    1.43386982
         --- l  ekb(1:nproj) -->
             0    3.287949
             1    1.849886
 pspatm: atomic psp has been read  and splines computed

--------------------------------------------------------------------------------

 ==== K-mesh for the wavefunctions ====
 Number of points in the irreducible wedge :     2
 Reduced coordinates and weights : 

     1)    -2.50000000E-01  5.00000000E-01  0.00000000E+00       0.75000
     2)    -2.50000000E-01  0.00000000E+00  0.00000000E+00       0.25000

 Together with 24 symmetry operations and time-reversal symmetry 
 yields    32 points in the full Brillouin Zone.


 ==== Q-mesh for the screening function ====
 Number of points in the irreducible wedge :     6
 Reduced coordinates and weights : 

     1)     0.00000000E+00  0.00000000E+00  0.00000000E+00       0.03125
     2)    -2.50000000E-01  0.00000000E+00  2.50000000E-01       0.37500
     3)     0.00000000E+00  5.00000000E-01  5.00000000E-01       0.09375
     4)     5.00000000E-01  0.00000000E+00  0.00000000E+00       0.12500
     5)    -2.50000000E-01  0.00000000E+00 -2.50000000E-01       0.18750
     6)    -2.50000000E-01  5.00000000E-01  2.50000000E-01       0.18750

 Together with 24 symmetry operations and time-reversal symmetry 
 yields    32 points in the full Brillouin Zone.


 setmesh: FFT mesh size selected  =  15x 15x 15
          total number of points  =     3375


 screening : taking advantage of time-reversal symmetry 
 Maximum band index for partially occupied states nbvw =     4
 Remaining bands to be divided among processors   nbcw =     6
P Number of bands treated by each node ~    6

 k       eigenvalues [eV]
  1         -3.43  -0.57   2.25   3.61   7.26  10.23  11.50  11.75  15.93  16.47

  2         -5.37   1.88   5.08   5.08   7.76   9.31   9.31  12.56  13.10  13.10

 Number of electrons calculated from density =    7.9997; Expected =    8.0000
 average of density, n =  0.029714
 r_s =    2.0029
 omega_plasma =   16.6279 [eV]


 calculating chi0 at frequencies [eV] :
  1    0.000000E+00    0.000000E+00
  2    0.000000E+00    1.650000E+01


--------------------------------------------------------------------------------
  q-point number  1        q = ( 0.000000, 0.000000, 0.000000) [r.l.u.]
--------------------------------------------------------------------------------
  chi0(G,G') at the    1 th omega   0.0000   0.0000 [eV]
       1       2       3       4       5       6       7       8       9
    1  -0.000   0.000  -0.000   0.000  -0.000  -0.000   0.000  -0.000   0.000
        0.000   0.000  -0.000   0.000  -0.000   0.000  -0.000   0.000  -0.000

    2   0.000 -15.962   0.022  -0.122   0.040  -0.000  -0.000   0.000  -0.000
       -0.000   0.000  -0.000  -0.000   0.000  -4.162  -0.086  -0.086  -0.095

  chi0(G,G') at the    2 th omega   0.0000  16.5000 [eV]
       1       2       3       4       5       6       7       8       9
    1  -0.000   0.000  -0.000   0.000  -0.000  -0.000   0.000  -0.000   0.000
        0.000   0.000  -0.000   0.000  -0.000   0.000  -0.000   0.000  -0.000

    2   0.000  -8.359  -0.213  -0.199  -0.198   0.000  -0.000  -0.000  -0.000
       -0.000   0.000  -0.000  -0.000   0.000  -1.103  -0.227  -0.246  -0.216

 For q-point:  0.000010 0.000020 0.000030
  dielectric constant =  23.3543
  dielectric constant without local fields =  24.8591

  Average fulfillment of the sum rule on Im[epsilon] for q-point    1 :     17.77  [%]
  Heads and wings of the symmetrical epsilon^-1(G,G') 

   Upper and lower wings at the    1 th omega   0.0000   0.0000 [eV]
       1       2       3       4       5       6       7       8       9
      0.043   0.004  -0.011   0.011  -0.004  -0.004   0.011  -0.011   0.004
      0.000   0.004  -0.011   0.011  -0.004   0.004  -0.011   0.011  -0.004
       1       2       3       4       5       6       7       8       9
      0.043   0.004  -0.011   0.011  -0.004  -0.004   0.011  -0.011   0.004
      0.000  -0.004   0.011  -0.011   0.004  -0.004   0.011  -0.011   0.004


   Upper and lower wings at the    2 th omega   0.0000  16.5000 [eV]
       1       2       3       4       5       6       7       8       9
      0.491   0.007  -0.020   0.020  -0.007  -0.007   0.020  -0.020   0.007
     -0.000   0.007  -0.020   0.020  -0.007   0.007  -0.020   0.020  -0.007
       1       2       3       4       5       6       7       8       9
      0.491   0.007  -0.020   0.020  -0.007  -0.007   0.020  -0.020   0.007
     -0.000  -0.007   0.020  -0.020   0.007  -0.007   0.020  -0.020   0.007




--------------------------------------------------------------------------------
  q-point number  2        q = (-0.250000, 0.000000, 0.250000) [r.l.u.]
--------------------------------------------------------------------------------
  chi0(G,G') at the    1 th omega   0.0000   0.0000 [eV]
       1       2       3       4       5       6       7       8       9
    1 -18.943   0.947  -1.961  -1.852  -1.989  -1.961   0.947  -1.989  -1.852
        0.000   0.947  -1.961  -1.852  -1.989   1.961  -0.947   1.989   1.852

    2   0.947 -19.357  -0.516  -0.209  -0.298   0.000   0.000  -0.000  -0.000
       -0.947   0.000   0.000  -0.000  -0.000  -1.983  -1.592  -0.316  -0.123

  chi0(G,G') at the    2 th omega   0.0000  16.5000 [eV]
       1       2       3       4       5       6       7       8       9
    1  -2.101   0.251  -0.797  -0.447  -0.447  -0.797   0.251  -0.447  -0.447
        0.000   0.251  -0.797  -0.447  -0.447   0.797  -0.251   0.447   0.447

    2   0.251  -5.448  -0.021  -0.100  -0.068  -0.000  -0.000  -0.000  -0.000
       -0.251   0.000   0.000   0.000   0.000  -1.030  -0.193  -0.121  -0.115

  Average fulfillment of the sum rule on Im[epsilon] for q-point    2 :     -0.00  [%]


--------------------------------------------------------------------------------
  q-point number  3        q = ( 0.000000, 0.500000, 0.500000) [r.l.u.]
--------------------------------------------------------------------------------
  chi0(G,G') at the    1 th omega   0.0000   0.0000 [eV]
       1       2       3       4       5       6       7       8       9
    1 -20.611  -1.538  -2.559  -1.538  -2.559  -2.559  -1.538  -2.559  -1.538
        0.000  -1.538  -2.559  -1.538  -2.559   2.559   1.538   2.559   1.538

    2  -1.538 -18.636  -0.271   1.232  -0.158   0.000  -0.000  -0.000  -0.000
        1.538   0.000   0.000  -0.000  -0.000  -1.279   0.000   0.378   0.000

  chi0(G,G') at the    2 th omega   0.0000  16.5000 [eV]
       1       2       3       4       5       6       7       8       9
    1  -3.870  -0.166  -0.969  -0.166  -0.969  -0.969  -0.166  -0.969  -0.166
        0.000  -0.166  -0.969  -0.166  -0.969   0.969   0.166   0.969   0.166

    2  -0.166  -6.728  -0.088  -0.190  -0.100   0.000  -0.000  -0.000  -0.000
        0.166   0.000  -0.000  -0.000   0.000  -0.687  -0.000  -0.279  -0.000

  Average fulfillment of the sum rule on Im[epsilon] for q-point    3 :     -0.00  [%]


--------------------------------------------------------------------------------
  q-point number  4        q = ( 0.500000, 0.000000, 0.000000) [r.l.u.]
--------------------------------------------------------------------------------
  chi0(G,G') at the    1 th omega   0.0000   0.0000 [eV]
       1       2       3       4       5       6       7       8       9
    1 -18.260  -2.295  -1.780  -1.764  -1.735   3.642  -2.002  -2.095  -1.991
        0.000  -2.295  -1.780  -1.764  -1.735  -3.642   2.002   2.095   1.992

    2  -2.295  -9.919   0.142  -0.024  -0.067  -0.000  -0.000  -0.000   0.000
        2.295   0.000  -0.000   0.000   0.000  -1.781  -0.495  -0.488  -0.511

  chi0(G,G') at the    2 th omega   0.0000  16.5000 [eV]
       1       2       3       4       5       6       7       8       9
    1  -3.008  -0.973  -0.340  -0.339  -0.340   0.556  -0.780  -0.789  -0.782
        0.000  -0.973  -0.340  -0.339  -0.340  -0.556   0.780   0.789   0.782

    2  -0.973  -8.274   0.045   0.063   0.051   0.000  -0.000  -0.000  -0.000
        0.973   0.000   0.000   0.000   0.000  -1.130  -0.192  -0.187  -0.199

  Average fulfillment of the sum rule on Im[epsilon] for q-point    4 :     -0.00  [%]


--------------------------------------------------------------------------------
  q-point number  5        q = (-0.250000, 0.000000,-0.250000) [r.l.u.]
--------------------------------------------------------------------------------
  chi0(G,G') at the    1 th omega   0.0000   0.0000 [eV]
       1       2       3       4       5       6       7       8       9
    1 -15.557   0.117   0.117  -2.003  -2.003  -2.003  -2.003   0.117   0.117
        0.000   0.117   0.117  -2.003  -2.003   2.003   2.003  -0.117  -0.117

    2   0.117 -17.810   0.616  -0.523  -0.354   0.000  -0.000  -0.000  -0.000
       -0.117   0.000   0.000  -0.000  -0.000  -2.659  -0.262  -0.479  -0.380

  chi0(G,G') at the    2 th omega   0.0000  16.5000 [eV]
       1       2       3       4       5       6       7       8       9
    1  -0.983   0.131   0.131  -0.507  -0.507  -0.507  -0.507   0.131   0.131
        0.000   0.131   0.131  -0.507  -0.507   0.507   0.507  -0.131  -0.131

    2   0.131  -7.258  -0.032  -0.005  -0.048   0.000  -0.000  -0.000   0.000
       -0.131   0.000  -0.000  -0.000  -0.000  -0.997  -0.192  -0.153  -0.135

  Average fulfillment of the sum rule on Im[epsilon] for q-point    5 :     -0.00  [%]


--------------------------------------------------------------------------------
  q-point number  6        q = (-0.250000, 0.500000, 0.250000) [r.l.u.]
--------------------------------------------------------------------------------
  chi0(G,G') at the    1 th omega   0.0000   0.0000 [eV]
       1       2       3       4       5       6       7       8       9
    1 -20.478  -1.195  -2.471  -2.082  -2.760  -2.760  -2.082  -2.471  -1.195
        0.000  -1.195  -2.471  -2.082  -2.760   2.760   2.082   2.471   1.195

    2  -1.195 -20.398  -0.550   0.133  -0.085  -0.000  -0.000  -0.000   0.000
        1.195   0.000  -0.000  -0.000  -0.000  -1.064   0.000  -0.112   0.000

  chi0(G,G') at the    2 th omega   0.0000  16.5000 [eV]
       1       2       3       4       5       6       7       8       9
    1  -4.749  -0.060  -0.938  -0.602  -1.137  -1.137  -0.602  -0.938  -0.060
        0.000  -0.060  -0.938  -0.602  -1.137   1.137   0.602   0.938   0.060

    2  -0.060  -4.762  -0.159  -0.177  -0.061  -0.000  -0.000   0.000   0.000
        0.060   0.000  -0.000   0.000   0.000  -0.753   0.000  -0.050   0.000

  Average fulfillment of the sum rule on Im[epsilon] for q-point    6 :     -0.00  [%]

================================================================================
== DATASET  3 ==================================================================
-   nproc =    1

 mkfilename : getscr/=0, take file _SCR from output of DATASET   2.

 mkfilename : getkss/=0, take file _KSS from output of DATASET   1.

 Exchange-correlation functional for the present dataset will be:
  LDA: new Teter (4/93) with spin-polarized option - ixc=1
 Citation for XC functional:
  S. Goedecker, M. Teter, J. Huetter, PRB 54, 1703 (1996)

 SIGMA: Calculation of the GW corrections 

 Based on a program developped by R.W. Godby, V. Olevano, G. Onida, and L. Reining.
 Incorporated in ABINIT by V. Olevano, G.-M. Rignanese, and M. Torrent.
.Using double precision arithmetic ; gwpc =  8

 Real(R)+Recip(G) space primitive vectors, cartesian coordinates (Bohr,Bohr^-1):
 R(1)=  0.0000000  5.1250000  5.1250000  G(1)= -0.0975610  0.0975610  0.0975610
 R(2)=  5.1250000  0.0000000  5.1250000  G(2)=  0.0975610 -0.0975610  0.0975610
 R(3)=  5.1250000  5.1250000  0.0000000  G(3)=  0.0975610  0.0975610 -0.0975610
 Unit cell volume ucvol=  2.6922266E+02 bohr^3
 Angles (23,13,12)=  6.00000000E+01  6.00000000E+01  6.00000000E+01 degrees
--------------------------------------------------------------------------------

 ==== K-mesh for the wavefunctions ====
 Number of points in the irreducible wedge :     2
 Reduced coordinates and weights : 

     1)    -2.50000000E-01  5.00000000E-01  0.00000000E+00       0.75000
     2)    -2.50000000E-01  0.00000000E+00  0.00000000E+00       0.25000

 Together with 24 symmetry operations and time-reversal symmetry 
 yields    32 points in the full Brillouin Zone.


 ==== Q-mesh for screening function ====
 Number of points in the irreducible wedge :     6
 Reduced coordinates and weights : 

     1)     0.00000000E+00  0.00000000E+00  0.00000000E+00       0.03125
     2)    -2.50000000E-01  0.00000000E+00  2.50000000E-01       0.37500
     3)     0.00000000E+00  5.00000000E-01  5.00000000E-01       0.09375
     4)     5.00000000E-01  0.00000000E+00  0.00000000E+00       0.12500
     5)    -2.50000000E-01  0.00000000E+00 -2.50000000E-01       0.18750
     6)    -2.50000000E-01  5.00000000E-01  2.50000000E-01       0.18750

 Together with 24 symmetry operations and time-reversal symmetry 
 yields    32 points in the full Brillouin Zone.


 setmesh: FFT mesh size selected  =  15x 15x 15
          total number of points  =     3375


 k       eigenvalues [eV]
  1         -3.43  -0.57   2.25   3.61   7.26
  2         -5.37   1.88   5.08   5.08   7.76
 Number of electrons calculated from density =    7.9997; Expected =    8.0000
 average of density, n =  0.029714
 r_s =    2.0029
 omega_plasma =   16.6279 [eV]


 === KS Band Gaps ===
  >>>> For spin  1
   Minimum optical gap =   2.6843 [eV], located at k-point      :  -0.2500  0.0000  0.0000
   Fundamental gap     =   2.1885 [eV], Top of valence bands at :  -0.2500  0.0000  0.0000
                                        Bottom of conduction at :  -0.2500  0.5000  0.0000
 SIGMA fundamental parameters:
 PLASMON POLE MODEL  1
 number of plane-waves for SigmaX                   59
 number of plane-waves for SigmaC and W             27
 number of plane-waves for wavefunctions           283
 number of bands                                     5
 number of independent spin polarizations            1
 number of spinorial components                      1
 number of k-points in IBZ                           2
 number of q-points in IBZ                           6
 number of symmetry operations                      24
 number of k-points in BZ                           32
 number of q-points in BZ                           32
 number of frequencies for dSigma/dE                 9
 frequency step for dSigma/dE [eV]                0.25
 number of omega for Sigma on real axis              0
 max omega for Sigma on real axis  [eV]           0.00
 zcut for avoiding poles [eV]                     0.10

 EPSILON^-1 parameters (SCR file):
 dimension of the eps^-1 matrix on file             27
 dimension of the eps^-1 matrix used                27
 number of plane-waves for wavefunctions           283
 number of bands                                    10
 number of q-points in IBZ                           6
 number of frequencies                               2
 number of real frequencies                          1
 number of imag frequencies                          1

 matrix elements of self-energy operator (all in [eV])

 Perturbative Calculation

 k =    0.250   0.750   0.250
 Band     E0 <VxcLDA>   SigX SigC(E0)      Z dSigC/dE  Sig(E)    E-E0       E
    4   3.612 -10.667 -12.705   2.074   0.755  -0.325 -10.641   0.027   3.638
    5   7.265  -9.290  -5.023  -3.596   0.791  -0.265  -8.759   0.531   7.796

 E^0_gap          3.653
 E^GW_gap         4.157
 DeltaE^GW_gap    0.504


================================================================================
== DATASET  4 ==================================================================
-   nproc =    1

 Exchange-correlation functional for the present dataset will be:
  LDA: new Teter (4/93) with spin-polarized option - ixc=1
 Citation for XC functional:
  S. Goedecker, M. Teter, J. Huetter, PRB 54, 1703 (1996)

 Real(R)+Recip(G) space primitive vectors, cartesian coordinates (Bohr,Bohr^-1):
 R(1)=  0.0000000  5.1250000  5.1250000  G(1)= -0.0975610  0.0975610  0.0975610
 R(2)=  5.1250000  0.0000000  5.1250000  G(2)=  0.0975610 -0.0975610  0.0975610
 R(3)=  5.1250000  5.1250000  0.0000000  G(3)=  0.0975610  0.0975610 -0.0975610
 Unit cell volume ucvol=  2.6922266E+02 bohr^3
 Angles (23,13,12)=  6.00000000E+01  6.00000000E+01  6.00000000E+01 degrees

 getcut: wavevector=  0.0000  0.0000  0.0000  ngfft=  20  20  20
         ecut(hartree)=      8.000   => boxcut(ratio)=   2.16726

--- Pseudopotential description ------------------------------------------------
- pspini: atom type   1  psp file is /home/gonze/ABINIT/ABINITv7.10.4/trunk/7.10.4-private/tests/Psps_for_tests/14si.pspnc
- pspatm: opening atomic psp file    /home/gonze/ABINIT/ABINITv7.10.4/trunk/7.10.4-private/tests/Psps_for_tests/14si.pspnc
-  Troullier-Martins psp for element  Si        Thu Oct 27 17:31:21 EDT 1994
- 14.00000   4.00000    940714                znucl, zion, pspdat
    1    1    2    2      2001   0.00000      pspcod,pspxc,lmax,lloc,mmax,r2well
    0   5.907  14.692    1   2.0872718        l,e99.0,e99.9,nproj,rcpsp
   0.00000000   0.00000000   0.00000000   0.00000000     rms, ekb1, ekb2, epsatm
    1   2.617   4.181    1   2.0872718        l,e99.0,e99.9,nproj,rcpsp
   0.00000000   0.00000000   0.00000000   0.00000000     rms, ekb1, ekb2, epsatm
    2   0.000   0.000    0   2.0872718        l,e99.0,e99.9,nproj,rcpsp
   0.00000000   0.00000000   0.00000000   0.00000000     rms, ekb1, ekb2, epsatm
    1.80626423934776    0.22824404341771    1.17378968127746   rchrg,fchrg,qchrg
 pspatm: epsatm=    1.43386982
         --- l  ekb(1:nproj) -->
             0    3.287949
             1    1.849886
 pspatm: atomic psp has been read  and splines computed

--------------------------------------------------------------------------------

P newkpt: treating     17 bands with npw=     290 for ikpt=   1 by node    0
P newkpt: treating     17 bands with npw=     296 for ikpt=   2 by node    0

_setup2: Arith. and geom. avg. npw (full set) are     291.500     291.489

================================================================================

     iter   Etot(hartree)      deltaE(h)  residm     vres2
 ETOT  1  -8.8600710768241    -8.860E+00 2.622E-03 5.802E+00
 ETOT  2  -8.8661438694576    -6.073E-03 2.453E-08 2.907E-01
 ETOT  3  -8.8662973000351    -1.534E-04 1.090E-05 4.812E-03
 ETOT  4  -8.8662987481064    -1.448E-06 2.556E-07 1.602E-05
 ETOT  5  -8.8662987560561    -7.950E-09 7.529E-10 7.349E-08
 ETOT  6  -8.8662987560926    -3.649E-11 2.492E-12 3.238E-10
 ETOT  7  -8.8662987560928    -1.990E-13 3.028E-15 1.089E-12
 ETOT  8  -8.8662987560928     3.553E-14 9.291E-17 7.053E-15

 At SCF step    8   max residual=  9.29E-17 < tolwfr=  1.00E-16 =>converged.

 Cartesian components of stress tensor (hartree/bohr^3)
  sigma(1 1)=  4.82823683E-05  sigma(3 2)=  0.00000000E+00
  sigma(2 2)=  4.82823683E-05  sigma(3 1)=  0.00000000E+00
  sigma(3 3)=  4.82823683E-05  sigma(2 1)=  0.00000000E+00


======================================================================
 Calculating and writing out Kohn-Sham electronic Structure file
 Using conjugate gradient wavefunctions and energies (kssform=3)
 number of Gamma centered plane waves    459
 number of Gamma centered shells     24
 number of bands     12
 maximum angular momentum components      3
 Conjugate gradient eigenvalues
   k    eigenvalues [Hartree]
   1     -0.1262 -0.0211  0.0828  0.1327  0.2670  0.3760  0.4226  0.4318  0.5854
          0.6052  0.6652  0.6754
   2     -0.1974  0.0690  0.1865  0.1865  0.2852  0.3423  0.3423  0.4615  0.4815
          0.4815  0.5359  0.6409
 Test on the normalization of the wavefunctions
  min sum_G |a(n,k,G)| =  1.000000
  max sum_G |a(n,k,G)| =  1.000000
 Test on the orthogonalization of the wavefunctions
  min sum_G a(n,k,G)a(n',k,G) =  0.000000
  max sum_G a(n,k,G)a(n',k,G) =  0.000000

================================================================================

 ----iterations are completed or convergence reached----

 Mean square residual over all n,k,spin=   4.3585E-07; max=  1.4817E-05
  -0.2500  0.5000  0.0000    1  1.48167E-05 kpt; spin; max resid(k); each band:
  7.34E-17 7.48E-17 8.86E-17 8.00E-17 3.89E-17 3.03E-17 8.87E-17 9.29E-17
  8.46E-17 8.41E-17 8.51E-17 9.25E-17 4.40E-17 5.31E-16 3.32E-12 2.29E-09
  1.48E-05
  -0.2500  0.0000  0.0000    1  1.03352E-14 kpt; spin; max resid(k); each band:
  7.84E-17 7.20E-17 7.04E-17 7.04E-17 9.12E-17 8.63E-17 8.63E-17 7.11E-17
  8.84E-17 8.84E-17 3.21E-17 3.40E-17 4.12E-17 4.12E-17 1.03E-14 2.15E-15
  7.24E-17
 reduced coordinates (array xred) for    2 atoms
       0.000000000000      0.000000000000      0.000000000000
       0.250000000000      0.250000000000      0.250000000000
 rms dE/dt=  0.0000E+00; max dE/dt=  0.0000E+00; dE/dt below (all hartree)
    1       0.000000000000      0.000000000000      0.000000000000
    2       0.000000000000      0.000000000000      0.000000000000

 cartesian coordinates (angstrom) at end:
    1      0.00000000000000     0.00000000000000     0.00000000000000
    2      1.35601659701187     1.35601659701187     1.35601659701187

 cartesian forces (hartree/bohr) at end:
    1     -0.00000000000000    -0.00000000000000    -0.00000000000000
    2     -0.00000000000000    -0.00000000000000    -0.00000000000000
 frms,max,avg= 0.0000000E+00 0.0000000E+00   0.000E+00  0.000E+00  0.000E+00 h/b

 cartesian forces (eV/Angstrom) at end:
    1     -0.00000000000000    -0.00000000000000    -0.00000000000000
    2     -0.00000000000000    -0.00000000000000    -0.00000000000000
 frms,max,avg= 0.0000000E+00 0.0000000E+00   0.000E+00  0.000E+00  0.000E+00 e/A
 length scales= 10.250000000000 10.250000000000 10.250000000000 bohr
              =  5.424066388047  5.424066388047  5.424066388047 angstroms
 prteigrs : about to open file t10o_DS4_EIG
 Fermi (or HOMO) energy (hartree) =   0.18655   Average Vxc (hartree)=  -0.35271
 Eigenvalues (hartree) for nkpt=   2  k points:
 kpt#   1, nband= 17, wtk=  0.75000, kpt= -0.2500  0.5000  0.0000 (reduced coord)
  -0.12620  -0.02107   0.08279   0.13272   0.26698   0.37599   0.42257   0.43181
   0.58541   0.60517   0.66524   0.67544   0.68467   0.82919   0.86955   0.89509
   0.92560
 kpt#   2, nband= 17, wtk=  0.25000, kpt= -0.2500  0.0000  0.0000 (reduced coord)
  -0.19737   0.06902   0.18655   0.18655   0.28520   0.34226   0.34226   0.46151
   0.48147   0.48147   0.53593   0.64088   0.75373   0.75373   0.86861   0.87149
   0.87149
 Total charge density [el/Bohr^3]
,     Maximum=    8.5996E-02  at reduced coord.    0.1000    0.1000    0.7000
,Next maximum=    8.5996E-02  at reduced coord.    0.1500    0.1500    0.5500
,     Minimum=    3.1695E-03  at reduced coord.    0.5000    0.5000    0.5000
,Next minimum=    3.1695E-03  at reduced coord.    0.7500    0.7500    0.7500
,  Integrated=    8.0000E+00

--------------------------------------------------------------------------------
 Components of total free energy (in Hartree) :

    Kinetic energy  =  3.03394602625843E+00
    Hartree energy  =  5.51614523466957E-01
    XC energy       = -3.53659202066257E+00
    Ewald energy    = -8.40866036158725E+00
    PspCore energy  =  8.52154029741278E-02
    Loc. psp. energy= -2.46205431638814E+00
    NL   psp  energy=  1.87023198984563E+00
    >>>>>>>>> Etotal= -8.86629875609281E+00

 Other information on the energy :
    Total energy(eV)= -2.41264258869482E+02 ; Band energy (Ha)=   2.2471946917E-01
--------------------------------------------------------------------------------

 Cartesian components of stress tensor (hartree/bohr^3)
  sigma(1 1)=  4.82823683E-05  sigma(3 2)=  0.00000000E+00
  sigma(2 2)=  4.82823683E-05  sigma(3 1)=  0.00000000E+00
  sigma(3 3)=  4.82823683E-05  sigma(2 1)=  0.00000000E+00

-Cartesian components of stress tensor (GPa)         [Pressure= -1.4205E+00 GPa]
- sigma(1 1)=  1.42051608E+00  sigma(3 2)=  0.00000000E+00
- sigma(2 2)=  1.42051608E+00  sigma(3 1)=  0.00000000E+00
- sigma(3 3)=  1.42051608E+00  sigma(2 1)=  0.00000000E+00

================================================================================
== DATASET  5 ==================================================================
-   nproc =    1

 mkfilename : getkss/=0, take file _KSS from output of DATASET   4.

 Exchange-correlation functional for the present dataset will be:
  LDA: new Teter (4/93) with spin-polarized option - ixc=1
 Citation for XC functional:
  S. Goedecker, M. Teter, J. Huetter, PRB 54, 1703 (1996)

 SCREENING: Calculation of the susceptibility and dielectric matrices 

 Based on a program developped by R.W. Godby, V. Olevano, G. Onida, and L. Reining.
 Incorporated in ABINIT by V. Olevano, G.-M. Rignanese, and M. Torrent.
.Using double precision arithmetic ; gwpc =  8

 Real(R)+Recip(G) space primitive vectors, cartesian coordinates (Bohr,Bohr^-1):
 R(1)=  0.0000000  5.1250000  5.1250000  G(1)= -0.0975610  0.0975610  0.0975610
 R(2)=  5.1250000  0.0000000  5.1250000  G(2)=  0.0975610 -0.0975610  0.0975610
 R(3)=  5.1250000  5.1250000  0.0000000  G(3)=  0.0975610  0.0975610 -0.0975610
 Unit cell volume ucvol=  2.6922266E+02 bohr^3
 Angles (23,13,12)=  6.00000000E+01  6.00000000E+01  6.00000000E+01 degrees

--- Pseudopotential description ------------------------------------------------
- pspini: atom type   1  psp file is /home/gonze/ABINIT/ABINITv7.10.4/trunk/7.10.4-private/tests/Psps_for_tests/14si.pspnc
- pspatm: opening atomic psp file    /home/gonze/ABINIT/ABINITv7.10.4/trunk/7.10.4-private/tests/Psps_for_tests/14si.pspnc
-  Troullier-Martins psp for element  Si        Thu Oct 27 17:31:21 EDT 1994
- 14.00000   4.00000    940714                znucl, zion, pspdat
    1    1    2    2      2001   0.00000      pspcod,pspxc,lmax,lloc,mmax,r2well
    0   5.907  14.692    1   2.0872718        l,e99.0,e99.9,nproj,rcpsp
   0.00000000   0.00000000   0.00000000   0.00000000     rms, ekb1, ekb2, epsatm
    1   2.617   4.181    1   2.0872718        l,e99.0,e99.9,nproj,rcpsp
   0.00000000   0.00000000   0.00000000   0.00000000     rms, ekb1, ekb2, epsatm
    2   0.000   0.000    0   2.0872718        l,e99.0,e99.9,nproj,rcpsp
   0.00000000   0.00000000   0.00000000   0.00000000     rms, ekb1, ekb2, epsatm
    1.80626423934776    0.22824404341771    1.17378968127746   rchrg,fchrg,qchrg
 pspatm: epsatm=    1.43386982
         --- l  ekb(1:nproj) -->
             0    3.287949
             1    1.849886
 pspatm: atomic psp has been read  and splines computed

--------------------------------------------------------------------------------

 ==== K-mesh for the wavefunctions ====
 Number of points in the irreducible wedge :     2
 Reduced coordinates and weights : 

     1)    -2.50000000E-01  5.00000000E-01  0.00000000E+00       0.75000
     2)    -2.50000000E-01  0.00000000E+00  0.00000000E+00       0.25000

 Together with 48 symmetry operations and time-reversal symmetry 
 yields    32 points in the full Brillouin Zone.


 ==== Q-mesh for the screening function ====
 Number of points in the irreducible wedge :     6
 Reduced coordinates and weights : 

     1)     0.00000000E+00  0.00000000E+00  0.00000000E+00       0.03125
     2)     5.00000000E-01  0.00000000E+00  0.00000000E+00       0.12500
     3)    -2.50000000E-01  0.00000000E+00  2.50000000E-01       0.37500
     4)    -2.50000000E-01  0.00000000E+00 -2.50000000E-01       0.18750
     5)    -2.50000000E-01  5.00000000E-01  2.50000000E-01       0.18750
     6)     0.00000000E+00  5.00000000E-01  5.00000000E-01       0.09375

 Together with 48 symmetry operations and time-reversal symmetry 
 yields    32 points in the full Brillouin Zone.


 setmesh: FFT mesh size selected  =  20x 20x 20
          total number of points  =     8000


 screening : taking advantage of time-reversal symmetry 
 Maximum band index for partially occupied states nbvw =     4
 Remaining bands to be divided among processors   nbcw =     6
P Number of bands treated by each node ~    6

 k       eigenvalues [eV]
  1         -3.43  -0.57   2.25   3.61   7.26  10.23  11.50  11.75  15.93  16.47

  2         -5.37   1.88   5.08   5.08   7.76   9.31   9.31  12.56  13.10  13.10

 Number of electrons calculated from density =    7.9997; Expected =    8.0000
 average of density, n =  0.029714
 r_s =    2.0029
 omega_plasma =   16.6279 [eV]


 calculating chi0 at frequencies [eV] :
  1    0.000000E+00    0.000000E+00
  2    0.000000E+00    1.650000E+01


--------------------------------------------------------------------------------
  q-point number  1        q = ( 0.000000, 0.000000, 0.000000) [r.l.u.]
--------------------------------------------------------------------------------
  chi0(G,G') at the    1 th omega   0.0000   0.0000 [eV]
       1       2       3       4       5       6       7       8       9
    1  -0.000   0.000  -0.000  -0.000   0.000   0.000  -0.000  -0.000   0.000
        0.000   0.000   0.000  -0.000  -0.000   0.000   0.000  -0.000  -0.000

    2   0.000 -20.662   0.000  -0.517  -0.000  -0.517   0.000  -0.517   0.000
       -0.000   0.000  -4.470  -0.000  -0.328  -0.000  -0.328  -0.000  -0.328

  chi0(G,G') at the    2 th omega   0.0000  16.5000 [eV]
       1       2       3       4       5       6       7       8       9
    1  -0.000   0.000  -0.000  -0.000   0.000   0.000  -0.000  -0.000   0.000
        0.000   0.000   0.000  -0.000  -0.000   0.000   0.000  -0.000  -0.000

    2   0.000  -8.575   0.000  -0.090  -0.000  -0.090   0.000  -0.090   0.000
       -0.000   0.000  -0.995  -0.000  -0.100  -0.000  -0.100  -0.000  -0.100

 For q-point:  0.000010 0.000020 0.000030
  dielectric constant =  27.4145
  dielectric constant without local fields =  29.0163

  Average fulfillment of the sum rule on Im[epsilon] for q-point    1 :     17.34  [%]
  Heads and wings of the symmetrical epsilon^-1(G,G') 

   Upper and lower wings at the    1 th omega   0.0000   0.0000 [eV]
       1       2       3       4       5       6       7       8       9
      0.036   0.003  -0.003  -0.009   0.009   0.009  -0.009  -0.003   0.003
      0.000   0.003   0.003  -0.009  -0.009   0.009   0.009  -0.003  -0.003
       1       2       3       4       5       6       7       8       9
      0.036   0.003  -0.003  -0.009   0.009   0.009  -0.009  -0.003   0.003
      0.000  -0.003  -0.003   0.009   0.009  -0.009  -0.009   0.003   0.003


   Upper and lower wings at the    2 th omega   0.0000  16.5000 [eV]
       1       2       3       4       5       6       7       8       9
      0.449   0.007  -0.007  -0.020   0.020   0.020  -0.020  -0.007   0.007
      0.000   0.007   0.007  -0.020  -0.020   0.020   0.020  -0.007  -0.007
       1       2       3       4       5       6       7       8       9
      0.449   0.007  -0.007  -0.020   0.020   0.020  -0.020  -0.007   0.007
      0.000  -0.007  -0.007   0.020   0.020  -0.020  -0.020   0.007   0.007




--------------------------------------------------------------------------------
  q-point number  2        q = ( 0.500000, 0.000000, 0.000000) [r.l.u.]
--------------------------------------------------------------------------------
  chi0(G,G') at the    1 th omega   0.0000   0.0000 [eV]
       1       2       3       4       5       6       7       8       9
    1 -15.472  -2.007   2.952  -1.899  -2.456  -1.899  -2.456  -1.899  -2.456
        0.000  -2.007  -2.952  -1.899   2.456  -1.899   2.456  -1.899   2.456

    2  -2.007 -14.174   0.000   0.239   0.000   0.239  -0.000   0.239   0.000
[...]
                       0  1 -1   1  0 -1   0  0 -1       0 -1  1  -1  0  1   0  0  1
                      -1  0  0  -1  1  0  -1  0  1       1  0  0   1 -1  0   1  0 -1
                       0 -1  1   1 -1  0   0 -1  0       0  1 -1  -1  1  0   0  1  0
                       1  0  0   0  0  1   0  1  0      -1  0  0   0  0 -1   0 -1  0
                       0  1 -1   0  0 -1   1  0 -1       0 -1  1   0  0  1  -1  0  1
                      -1  0  1  -1  1  0  -1  0  0       1  0 -1   1 -1  0   1  0  0
                       0 -1  0   1 -1  0   0 -1  1       0  1  0  -1  1  0   0  1 -1
                       1  0 -1   0  0 -1   0  1 -1      -1  0  1   0  0  1   0 -1  1
                       0  1  0   0  0  1   1  0  0       0 -1  0   0  0 -1  -1  0  0
                       1  0 -1   0  1 -1   0  0 -1      -1  0  1   0 -1  1   0  0  1
                       0 -1  0   0 -1  1   1 -1  0       0  1  0   0  1 -1  -1  1  0
                      -1  0  1  -1  0  0  -1  1  0       1  0 -1   1  0  0   1 -1  0
                       0  1  0   1  0  0   0  0  1       0 -1  0  -1  0  0   0  0 -1
                       0  0 -1   0  1 -1   1  0 -1       0  0  1   0 -1  1  -1  0  1
                       1 -1  0   0 -1  1   0 -1  0      -1  1  0   0  1 -1   0  1  0
                       0  0  1   1  0  0   0  1  0       0  0 -1  -1  0  0   0 -1  0
                      -1  1  0  -1  0  0  -1  0  1       1 -1  0   1  0  0   1  0 -1
                       0  0  1   0  1  0   1  0  0       0  0 -1   0 -1  0  -1  0  0
                       1 -1  0   0 -1  0   0 -1  1      -1  1  0   0  1  0   0  1 -1
                       0  0 -1   1  0 -1   0  1 -1       0  0  1  -1  0  1   0 -1  1
                      -1  1  0  -1  0  1  -1  0  0       1 -1  0   1  0 -1   1  0  0
           symrel5     1  0  0   0  1  0   0  0  1      -1  0  0   0 -1  0   0  0 -1
                       0 -1  1   0 -1  0   1 -1  0       0  1 -1   0  1  0  -1  1  0
                      -1  0  0  -1  0  1  -1  1  0       1  0  0   1  0 -1   1 -1  0
                       0  1 -1   1  0 -1   0  0 -1       0 -1  1  -1  0  1   0  0  1
                      -1  0  0  -1  1  0  -1  0  1       1  0  0   1 -1  0   1  0 -1
                       0 -1  1   1 -1  0   0 -1  0       0  1 -1  -1  1  0   0  1  0
                       1  0  0   0  0  1   0  1  0      -1  0  0   0  0 -1   0 -1  0
                       0  1 -1   0  0 -1   1  0 -1       0 -1  1   0  0  1  -1  0  1
                      -1  0  1  -1  1  0  -1  0  0       1  0 -1   1 -1  0   1  0  0
                       0 -1  0   1 -1  0   0 -1  1       0  1  0  -1  1  0   0  1 -1
                       1  0 -1   0  0 -1   0  1 -1      -1  0  1   0  0  1   0 -1  1
                       0  1  0   0  0  1   1  0  0       0 -1  0   0  0 -1  -1  0  0
                       1  0 -1   0  1 -1   0  0 -1      -1  0  1   0 -1  1   0  0  1
                       0 -1  0   0 -1  1   1 -1  0       0  1  0   0  1 -1  -1  1  0
                      -1  0  1  -1  0  0  -1  1  0       1  0 -1   1  0  0   1 -1  0
                       0  1  0   1  0  0   0  0  1       0 -1  0  -1  0  0   0  0 -1
                       0  0 -1   0  1 -1   1  0 -1       0  0  1   0 -1  1  -1  0  1
                       1 -1  0   0 -1  1   0 -1  0      -1  1  0   0  1 -1   0  1  0
                       0  0  1   1  0  0   0  1  0       0  0 -1  -1  0  0   0 -1  0
                      -1  1  0  -1  0  0  -1  0  1       1 -1  0   1  0  0   1  0 -1
                       0  0  1   0  1  0   1  0  0       0  0 -1   0 -1  0  -1  0  0
                       1 -1  0   0 -1  0   0 -1  1      -1  1  0   0  1  0   0  1 -1
                       0  0 -1   1  0 -1   0  1 -1       0  0  1  -1  0  1   0 -1  1
                      -1  1  0  -1  0  1  -1  0  0       1 -1  0   1  0 -1   1  0  0
           symrel6     1  0  0   0  1  0   0  0  1      -1  0  0   0 -1  0   0  0 -1
                       0 -1  1   0 -1  0   1 -1  0       0  1 -1   0  1  0  -1  1  0
                      -1  0  0  -1  0  1  -1  1  0       1  0  0   1  0 -1   1 -1  0
                       0  1 -1   1  0 -1   0  0 -1       0 -1  1  -1  0  1   0  0  1
                      -1  0  0  -1  1  0  -1  0  1       1  0  0   1 -1  0   1  0 -1
                       0 -1  1   1 -1  0   0 -1  0       0  1 -1  -1  1  0   0  1  0
                       1  0  0   0  0  1   0  1  0      -1  0  0   0  0 -1   0 -1  0
                       0  1 -1   0  0 -1   1  0 -1       0 -1  1   0  0  1  -1  0  1
                      -1  0  1  -1  1  0  -1  0  0       1  0 -1   1 -1  0   1  0  0
                       0 -1  0   1 -1  0   0 -1  1       0  1  0  -1  1  0   0  1 -1
                       1  0 -1   0  0 -1   0  1 -1      -1  0  1   0  0  1   0 -1  1
                       0  1  0   0  0  1   1  0  0       0 -1  0   0  0 -1  -1  0  0
                       1  0 -1   0  1 -1   0  0 -1      -1  0  1   0 -1  1   0  0  1
                       0 -1  0   0 -1  1   1 -1  0       0  1  0   0  1 -1  -1  1  0
                      -1  0  1  -1  0  0  -1  1  0       1  0 -1   1  0  0   1 -1  0
                       0  1  0   1  0  0   0  0  1       0 -1  0  -1  0  0   0  0 -1
                       0  0 -1   0  1 -1   1  0 -1       0  0  1   0 -1  1  -1  0  1
                       1 -1  0   0 -1  1   0 -1  0      -1  1  0   0  1 -1   0  1  0
                       0  0  1   1  0  0   0  1  0       0  0 -1  -1  0  0   0 -1  0
                      -1  1  0  -1  0  0  -1  0  1       1 -1  0   1  0  0   1  0 -1
                       0  0  1   0  1  0   1  0  0       0  0 -1   0 -1  0  -1  0  0
                       1 -1  0   0 -1  0   0 -1  1      -1  1  0   0  1  0   0  1 -1
                       0  0 -1   1  0 -1   0  1 -1       0  0  1  -1  0  1   0 -1  1
                      -1  1  0  -1  0  1  -1  0  0       1 -1  0   1  0 -1   1  0  0
            tnons1     0.0000000  0.0000000  0.0000000     0.0000000  0.0000000  0.0000000
                       0.0000000  0.0000000  0.0000000     0.0000000  0.0000000  0.0000000
                       0.0000000  0.0000000  0.0000000     0.0000000  0.0000000  0.0000000
                       0.0000000  0.0000000  0.0000000     0.0000000  0.0000000  0.0000000
                       0.0000000  0.0000000  0.0000000     0.0000000  0.0000000  0.0000000
                       0.0000000  0.0000000  0.0000000     0.0000000  0.0000000  0.0000000
                       0.0000000  0.0000000  0.0000000     0.0000000  0.0000000  0.0000000
                       0.0000000  0.0000000  0.0000000     0.0000000  0.0000000  0.0000000
                       0.0000000  0.0000000  0.0000000     0.0000000  0.0000000  0.0000000
                       0.0000000  0.0000000  0.0000000     0.0000000  0.0000000  0.0000000
                       0.0000000  0.0000000  0.0000000     0.0000000  0.0000000  0.0000000
                       0.0000000  0.0000000  0.0000000     0.0000000  0.0000000  0.0000000
            tnons2     0.0000000  0.0000000  0.0000000     0.0000000  0.0000000  0.0000000
                       0.0000000  0.0000000  0.0000000     0.0000000  0.0000000  0.0000000
                       0.0000000  0.0000000  0.0000000     0.0000000  0.0000000  0.0000000
                       0.0000000  0.0000000  0.0000000     0.0000000  0.0000000  0.0000000
                       0.0000000  0.0000000  0.0000000     0.0000000  0.0000000  0.0000000
                       0.0000000  0.0000000  0.0000000     0.0000000  0.0000000  0.0000000
                       0.0000000  0.0000000  0.0000000     0.0000000  0.0000000  0.0000000
                       0.0000000  0.0000000  0.0000000     0.0000000  0.0000000  0.0000000
                       0.0000000  0.0000000  0.0000000     0.0000000  0.0000000  0.0000000
                       0.0000000  0.0000000  0.0000000     0.0000000  0.0000000  0.0000000
                       0.0000000  0.0000000  0.0000000     0.0000000  0.0000000  0.0000000
                       0.0000000  0.0000000  0.0000000     0.0000000  0.0000000  0.0000000
            tnons3     0.0000000  0.0000000  0.0000000     0.0000000  0.0000000  0.0000000
                       0.0000000  0.0000000  0.0000000     0.0000000  0.0000000  0.0000000
                       0.0000000  0.0000000  0.0000000     0.0000000  0.0000000  0.0000000
                       0.0000000  0.0000000  0.0000000     0.0000000  0.0000000  0.0000000
                       0.0000000  0.0000000  0.0000000     0.0000000  0.0000000  0.0000000
                       0.0000000  0.0000000  0.0000000     0.0000000  0.0000000  0.0000000
                       0.0000000  0.0000000  0.0000000     0.0000000  0.0000000  0.0000000
                       0.0000000  0.0000000  0.0000000     0.0000000  0.0000000  0.0000000
                       0.0000000  0.0000000  0.0000000     0.0000000  0.0000000  0.0000000
                       0.0000000  0.0000000  0.0000000     0.0000000  0.0000000  0.0000000
                       0.0000000  0.0000000  0.0000000     0.0000000  0.0000000  0.0000000
                       0.0000000  0.0000000  0.0000000     0.0000000  0.0000000  0.0000000
            tnons4     0.0000000  0.0000000  0.0000000     0.2500000  0.2500000  0.2500000
                       0.0000000  0.0000000  0.0000000     0.2500000  0.2500000  0.2500000
                       0.0000000  0.0000000  0.0000000     0.2500000  0.2500000  0.2500000
                       0.0000000  0.0000000  0.0000000     0.2500000  0.2500000  0.2500000
                       0.0000000  0.0000000  0.0000000     0.2500000  0.2500000  0.2500000
                       0.0000000  0.0000000  0.0000000     0.2500000  0.2500000  0.2500000
                       0.0000000  0.0000000  0.0000000     0.2500000  0.2500000  0.2500000
                       0.0000000  0.0000000  0.0000000     0.2500000  0.2500000  0.2500000
                       0.0000000  0.0000000  0.0000000     0.2500000  0.2500000  0.2500000
                       0.0000000  0.0000000  0.0000000     0.2500000  0.2500000  0.2500000
                       0.0000000  0.0000000  0.0000000     0.2500000  0.2500000  0.2500000
                       0.0000000  0.0000000  0.0000000     0.2500000  0.2500000  0.2500000
                       0.0000000  0.0000000  0.0000000     0.2500000  0.2500000  0.2500000
                       0.0000000  0.0000000  0.0000000     0.2500000  0.2500000  0.2500000
                       0.0000000  0.0000000  0.0000000     0.2500000  0.2500000  0.2500000
                       0.0000000  0.0000000  0.0000000     0.2500000  0.2500000  0.2500000
                       0.0000000  0.0000000  0.0000000     0.2500000  0.2500000  0.2500000
                       0.0000000  0.0000000  0.0000000     0.2500000  0.2500000  0.2500000
                       0.0000000  0.0000000  0.0000000     0.2500000  0.2500000  0.2500000
                       0.0000000  0.0000000  0.0000000     0.2500000  0.2500000  0.2500000
                       0.0000000  0.0000000  0.0000000     0.2500000  0.2500000  0.2500000
                       0.0000000  0.0000000  0.0000000     0.2500000  0.2500000  0.2500000
                       0.0000000  0.0000000  0.0000000     0.2500000  0.2500000  0.2500000
                       0.0000000  0.0000000  0.0000000     0.2500000  0.2500000  0.2500000
            tnons5     0.0000000  0.0000000  0.0000000     0.2500000  0.2500000  0.2500000
                       0.0000000  0.0000000  0.0000000     0.2500000  0.2500000  0.2500000
                       0.0000000  0.0000000  0.0000000     0.2500000  0.2500000  0.2500000
                       0.0000000  0.0000000  0.0000000     0.2500000  0.2500000  0.2500000
                       0.0000000  0.0000000  0.0000000     0.2500000  0.2500000  0.2500000
                       0.0000000  0.0000000  0.0000000     0.2500000  0.2500000  0.2500000
                       0.0000000  0.0000000  0.0000000     0.2500000  0.2500000  0.2500000
                       0.0000000  0.0000000  0.0000000     0.2500000  0.2500000  0.2500000
                       0.0000000  0.0000000  0.0000000     0.2500000  0.2500000  0.2500000
                       0.0000000  0.0000000  0.0000000     0.2500000  0.2500000  0.2500000
                       0.0000000  0.0000000  0.0000000     0.2500000  0.2500000  0.2500000
                       0.0000000  0.0000000  0.0000000     0.2500000  0.2500000  0.2500000
                       0.0000000  0.0000000  0.0000000     0.2500000  0.2500000  0.2500000
                       0.0000000  0.0000000  0.0000000     0.2500000  0.2500000  0.2500000
                       0.0000000  0.0000000  0.0000000     0.2500000  0.2500000  0.2500000
                       0.0000000  0.0000000  0.0000000     0.2500000  0.2500000  0.2500000
                       0.0000000  0.0000000  0.0000000     0.2500000  0.2500000  0.2500000
                       0.0000000  0.0000000  0.0000000     0.2500000  0.2500000  0.2500000
                       0.0000000  0.0000000  0.0000000     0.2500000  0.2500000  0.2500000
                       0.0000000  0.0000000  0.0000000     0.2500000  0.2500000  0.2500000
                       0.0000000  0.0000000  0.0000000     0.2500000  0.2500000  0.2500000
                       0.0000000  0.0000000  0.0000000     0.2500000  0.2500000  0.2500000
                       0.0000000  0.0000000  0.0000000     0.2500000  0.2500000  0.2500000
                       0.0000000  0.0000000  0.0000000     0.2500000  0.2500000  0.2500000
            tnons6     0.0000000  0.0000000  0.0000000     0.2500000  0.2500000  0.2500000
                       0.0000000  0.0000000  0.0000000     0.2500000  0.2500000  0.2500000
                       0.0000000  0.0000000  0.0000000     0.2500000  0.2500000  0.2500000
                       0.0000000  0.0000000  0.0000000     0.2500000  0.2500000  0.2500000
                       0.0000000  0.0000000  0.0000000     0.2500000  0.2500000  0.2500000
                       0.0000000  0.0000000  0.0000000     0.2500000  0.2500000  0.2500000
                       0.0000000  0.0000000  0.0000000     0.2500000  0.2500000  0.2500000
                       0.0000000  0.0000000  0.0000000     0.2500000  0.2500000  0.2500000
                       0.0000000  0.0000000  0.0000000     0.2500000  0.2500000  0.2500000
                       0.0000000  0.0000000  0.0000000     0.2500000  0.2500000  0.2500000
                       0.0000000  0.0000000  0.0000000     0.2500000  0.2500000  0.2500000
                       0.0000000  0.0000000  0.0000000     0.2500000  0.2500000  0.2500000
                       0.0000000  0.0000000  0.0000000     0.2500000  0.2500000  0.2500000
                       0.0000000  0.0000000  0.0000000     0.2500000  0.2500000  0.2500000
                       0.0000000  0.0000000  0.0000000     0.2500000  0.2500000  0.2500000
                       0.0000000  0.0000000  0.0000000     0.2500000  0.2500000  0.2500000
                       0.0000000  0.0000000  0.0000000     0.2500000  0.2500000  0.2500000
                       0.0000000  0.0000000  0.0000000     0.2500000  0.2500000  0.2500000
                       0.0000000  0.0000000  0.0000000     0.2500000  0.2500000  0.2500000
                       0.0000000  0.0000000  0.0000000     0.2500000  0.2500000  0.2500000
                       0.0000000  0.0000000  0.0000000     0.2500000  0.2500000  0.2500000
                       0.0000000  0.0000000  0.0000000     0.2500000  0.2500000  0.2500000
                       0.0000000  0.0000000  0.0000000     0.2500000  0.2500000  0.2500000
                       0.0000000  0.0000000  0.0000000     0.2500000  0.2500000  0.2500000
           tolwfr      1.00000000E-16
            typat      1  1
              wtk        0.75000    0.25000
           xangst      0.0000000000E+00  0.0000000000E+00  0.0000000000E+00
                       1.3560165970E+00  1.3560165970E+00  1.3560165970E+00
            xcart      0.0000000000E+00  0.0000000000E+00  0.0000000000E+00
                       2.5625000000E+00  2.5625000000E+00  2.5625000000E+00
             xred      0.0000000000E+00  0.0000000000E+00  0.0000000000E+00
                       2.5000000000E-01  2.5000000000E-01  2.5000000000E-01
            znucl       14.00000

================================================================================


- Timing analysis has been suppressed with timopt=0



================================================================================

 Suggested references for the acknowledgment of ABINIT usage.

 The users of ABINIT have little formal obligations with respect to the ABINIT group
 (those specified in the GNU General Public License, http://www.gnu.org/copyleft/gpl.txt).
 However, it is common practice in the scientific literature,
 to acknowledge the efforts of people that have made the research possible.
 In this spirit, please find below suggested citations of work written by ABINIT developers,
 corresponding to implementations inside of ABINIT that you have used in the present run.
 Note also that it will be of great value to readers of publications presenting these results,
 to read papers enabling them to understand the theoretical formalism and details
 of the ABINIT implementation.
 For information on why they are suggested, see also http://www.abinit.org/about/?text=acknowledgments.

 [1] ABINIT : First-principles approach of materials and nanosystem properties.
 X. Gonze, B. Amadon, P.-M. Anglade, J.-M. Beuken, F. Bottin, P. Boulanger, F. Bruneval,
 D. Caliste, R. Caracas, M. Cote, T. Deutsch, L. Genovese, Ph. Ghosez, M. Giantomassi
 S. Goedecker, D.R. Hamann, P. Hermet, F. Jollet, G. Jomard, S. Leroux, M. Mancini, S. Mazevet,
 M.J.T. Oliveira, G. Onida, Y. Pouillon, T. Rangel, G.-M. Rignanese, D. Sangalli, R. Shaltaf,
 M. Torrent, M.J. Verstraete, G. Zerah, J.W. Zwanziger
 Computer Phys. Comm. 180, 2582-2615 (2009).
 Comment : the third generic paper describing the ABINIT project.
 Note that a version of this paper, that is not formatted for Computer Phys. Comm. 
 is available at http://www.abinit.org/about/ABINIT_CPC_v10.pdf .
 The licence allows the authors to put it on the Web.

 [2] A brief introduction to the ABINIT software package.
 X. Gonze, G.-M. Rignanese, M. Verstraete, J.-M. Beuken, Y. Pouillon, R. Caracas, F. Jollet,
 M. Torrent, G. Zerah, M. Mikami, Ph. Ghosez, M. Veithen, J.-Y. Raty, V. Olevano, F. Bruneval,
 L. Reining, R. Godby, G. Onida, D.R. Hamann, and D.C. Allan.
 Z. Kristallogr. 220, 558-562 (2005).
 Comment : the second generic paper describing the ABINIT project. Note that this paper
 should be cited especially if you are using the GW part of ABINIT, as several authors
 of this part are not in the list of authors of the first or third paper.
 The .pdf of the latter paper is available at http://www.abinit.org/about/zfk_0505-06_558-562.pdf.
 Note that it should not redistributed (Copyright by Oldenburg Wissenshaftverlag,
 the licence allows the authors to put it on the Web).


 And optionally :

 [3] First-principles computation of material properties : the ABINIT software project. 
 X. Gonze, J.-M. Beuken, R. Caracas, F. Detraux, M. Fuchs, G.-M. Rignanese, L. Sindic,
 M. Verstraete, G. Zerah, F. Jollet, M. Torrent, A. Roy, M. Mikami, Ph. Ghosez, J.-Y. Raty, D.C. Allan.
 Computational Materials Science 25, 478-492 (2002). http://dx.doi.org/10.1016/S0927-0256(02)00325-7
 Comment : the original paper describing the ABINIT project.

 [4] Fast radix 2, 3, 4 and 5 kernels for Fast Fourier Transformations
 on computers with overlapping multiply-add instructions.
 S. Goedecker, SIAM J. on Scientific Computing 18, 1605 (1997).
-
- Proc.   0 individual time (sec): cpu=         18.7  wall=         18.7

================================================================================

 Calculation completed.
.Delivered   18 WARNINGs and   6 COMMENTs to log file.
+Overall time at end (sec) : cpu=         18.7  wall=         18.7
