
.Version 7.9.0 of ABINIT 
.(MPI version, prepared for a x86_64_linux_gnu4.7 computer) 

.Copyright (C) 1998-2014 ABINIT group . 
 ABINIT comes with ABSOLUTELY NO WARRANTY.
 It is free software, and you are welcome to redistribute it
 under certain conditions (GNU General Public License,
 see ~abinit/COPYING or http://www.gnu.org/copyleft/gpl.txt).

 ABINIT is a project of the Universite Catholique de Louvain,
 Corning Inc. and other collaborators, see ~abinit/doc/developers/contributors.txt .
 Please read ~abinit/doc/users/acknowledgments.html for suggested
 acknowledgments of the ABINIT effort.
 For more information, see http://www.abinit.org .

.Starting date : Sat  7 Jun 2014.
- ( at 18h37 )
  
- input  file    -> t15.in
- output file    -> t15.out
- root for input  files -> t15i
- root for output files -> t15o


 DATASET    1 : space group Fd -3 m (#227); Bravais cF (face-center cubic)
================================================================================
 Values of the parameters that define the memory need for DATASET  1.
   intxc =         0  ionmov =         0    iscf =         7 xclevel =         1
  lmnmax =         2   lnmax =         2   mband =         5  mffmem =         1
P  mgfft =        16   mkmem =         8 mpssoang=         3     mpw =       190
  mqgrid =      3001   natom =         2    nfft =      4096    nkpt =         8
  nloalg =         4  nspden =         1 nspinor =         1  nsppol =         1
    nsym =        48  n1xccc =      2501  ntypat =         1  occopt =         1
================================================================================
P This job should need less than                       1.880 Mbytes of memory.
  Rough estimation (10% accuracy) of disk space for files :
_ WF disk file :      0.118 Mbytes ; DEN or POT disk file :      0.033 Mbytes.
================================================================================


 DATASET    2 : space group Fd -3 m (#227); Bravais cF (face-center cubic)
================================================================================
 Values of the parameters that define the memory need for DATASET  2.
   intxc =         0  ionmov =         0    iscf =        -2 xclevel =         1
  lmnmax =         2   lnmax =         2   mband =        35  mffmem =         1
P  mgfft =        16   mkmem =         8 mpssoang=         3     mpw =       190
  mqgrid =      3001   natom =         2    nfft =      4096    nkpt =         8
  nloalg =         4  nspden =         1 nspinor =         1  nsppol =         1
    nsym =        48  n1xccc =      2501  ntypat =         1  occopt =         1
================================================================================
P This job should need less than                       2.145 Mbytes of memory.
  Rough estimation (10% accuracy) of disk space for files :
_ WF disk file :      0.814 Mbytes ; DEN or POT disk file :      0.033 Mbytes.
================================================================================


 DATASET    3 : space group Fd -3 m (#227); Bravais cF (face-center cubic)
================================================================================
 Values of the parameters that define the memory need for DATASET  3.
   intxc =         0  ionmov =         0    iscf =         7 xclevel =         1
  lmnmax =         2   lnmax =         2   mband =         8  mffmem =         1
P  mgfft =        16   mkmem =         8 mpssoang=         3     mpw =       153
  mqgrid =      3001   natom =         2    nfft =      4096    nkpt =         8
  nloalg =         4  nspden =         1 nspinor =         1  nsppol =         1
    nsym =        48  n1xccc =      2501  ntypat =         1  occopt =         1
================================================================================
P This job should need less than                       1.904 Mbytes of memory.
  Rough estimation (10% accuracy) of disk space for files :
_ WF disk file :      0.151 Mbytes ; DEN or POT disk file :      0.033 Mbytes.
================================================================================


 DATASET    4 : space group Fd -3 m (#227); Bravais cF (face-center cubic)
================================================================================
 Values of the parameters that define the memory need for DATASET  4.
   intxc =         0  ionmov =         0    iscf =        -2 xclevel =         1
  lmnmax =         2   lnmax =         2   mband =        35  mffmem =         1
P  mgfft =        16   mkmem =        64 mpssoang=         3     mpw =       193
  mqgrid =      3001   natom =         2    nfft =      4096    nkpt =        64
  nloalg =         4  nspden =         1 nspinor =         1  nsppol =         1
    nsym =        48  n1xccc =      2501  ntypat =         1  occopt =         1
================================================================================
P This job should need less than                       8.354 Mbytes of memory.
  Rough estimation (10% accuracy) of disk space for files :
_ WF disk file :      6.599 Mbytes ; DEN or POT disk file :      0.033 Mbytes.
================================================================================


 DATASET    5 : space group Fd -3 m (#227); Bravais cF (face-center cubic)
================================================================================
 Values of the parameters that define the memory need for DATASET  5.
   intxc =         0  ionmov =         0    iscf =         7 xclevel =         1
  lmnmax =         2   lnmax =         2   mband =         8  mffmem =         1
P  mgfft =        16   mkmem =         8 mpssoang=         3     mpw =       153
  mqgrid =      3001   natom =         2    nfft =      4096    nkpt =         8
  nloalg =         4  nspden =         1 nspinor =         1  nsppol =         1
    nsym =        48  n1xccc =      2501  ntypat =         1  occopt =         1
================================================================================
P This job should need less than                       1.904 Mbytes of memory.
  Rough estimation (10% accuracy) of disk space for files :
_ WF disk file :      0.151 Mbytes ; DEN or POT disk file :      0.033 Mbytes.
================================================================================


 DATASET    6 : space group Fd -3 m (#227); Bravais cF (face-center cubic)
================================================================================
 Values of the parameters that define the memory need for DATASET  6.
   intxc =         0  ionmov =         0    iscf =         7 xclevel =         1
  lmnmax =         2   lnmax =         2   mband =         8  mffmem =         1
P  mgfft =        16   mkmem =        64 mpssoang=         3     mpw =       153
  mqgrid =      3001   natom =         2    nfft =      4096    nkpt =        64
  nloalg =         4  nspden =         1 nspinor =         1  nsppol =         1
    nsym =        48  n1xccc =      2501  ntypat =         1  occopt =         1
================================================================================
P This job should need less than                       3.116 Mbytes of memory.
  Rough estimation (10% accuracy) of disk space for files :
_ WF disk file :      1.197 Mbytes ; DEN or POT disk file :      0.033 Mbytes.
================================================================================


 DATASET    7 : space group Fd -3 m (#227); Bravais cF (face-center cubic)
================================================================================
 Values of the parameters that define the memory need for DATASET  7.
   intxc =         0  ionmov =         0    iscf =         7 xclevel =         1
  lmnmax =         2   lnmax =         2   mband =         8  mffmem =         1
P  mgfft =        16   mkmem =         8 mpssoang=         3     mpw =       153
  mqgrid =      3001   natom =         2    nfft =      4096    nkpt =         8
  nloalg =         4  nspden =         1 nspinor =         1  nsppol =         1
    nsym =        48  n1xccc =      2501  ntypat =         1  occopt =         1
================================================================================
P This job should need less than                       1.904 Mbytes of memory.
  Rough estimation (10% accuracy) of disk space for files :
_ WF disk file :      0.151 Mbytes ; DEN or POT disk file :      0.033 Mbytes.
================================================================================


 DATASET    8 : space group Fd -3 m (#227); Bravais cF (face-center cubic)
================================================================================
 Values of the parameters that define the memory need for DATASET  8.
   intxc =         0  ionmov =         0    iscf =         7 xclevel =         1
  lmnmax =         2   lnmax =         2   mband =         8  mffmem =         1
P  mgfft =        16   mkmem =         8 mpssoang=         3     mpw =       153
  mqgrid =      3001   natom =         2    nfft =      4096    nkpt =         8
  nloalg =         4  nspden =         1 nspinor =         1  nsppol =         1
    nsym =        48  n1xccc =      2501  ntypat =         1  occopt =         1
================================================================================
P This job should need less than                       1.904 Mbytes of memory.
  Rough estimation (10% accuracy) of disk space for files :
_ WF disk file :      0.151 Mbytes ; DEN or POT disk file :      0.033 Mbytes.
================================================================================

--------------------------------------------------------------------------------
------------- Echo of variables that govern the present computation ------------
--------------------------------------------------------------------------------
-
- outvars: echo of selected default values                                      
-   accesswff0 =  0 , fftalg0 =112 , wfoptalg0 =  0
-
- outvars: echo of global parameters not present in the input file              
-  max_nthreads =    0
-
 -outvars: echo values of preprocessed input variables --------
            acell      1.0217000000E+01  1.0217000000E+01  1.0217000000E+01 Bohr
              amu      2.80855000E+01
     bs_algorithm1          1
     bs_algorithm2          1
     bs_algorithm3          2
     bs_algorithm4          1
     bs_algorithm5          2
     bs_algorithm6          2
     bs_algorithm7          2
     bs_algorithm8          2
  bs_coulomb_term1         11
  bs_coulomb_term2         11
  bs_coulomb_term3         21
  bs_coulomb_term4         11
  bs_coulomb_term5         21
  bs_coulomb_term6         21
  bs_coulomb_term7         21
  bs_coulomb_term8         21
      bs_coupling1          1
      bs_coupling2          1
      bs_coupling3          0
      bs_coupling4          1
      bs_coupling5          0
      bs_coupling6          0
      bs_coupling7          0
      bs_coupling8          0
     bs_freq_mesh1     0.00000000E+00  0.00000000E+00  3.67493254E-04 Hartree
     bs_freq_mesh2     0.00000000E+00  0.00000000E+00  3.67493254E-04 Hartree
     bs_freq_mesh3     0.00000000E+00  3.67493254E-01  3.67493254E-03 Hartree
     bs_freq_mesh4     0.00000000E+00  0.00000000E+00  3.67493254E-04 Hartree
     bs_freq_mesh5     0.00000000E+00  3.67493254E-01  3.67493254E-03 Hartree
     bs_freq_mesh6     0.00000000E+00  3.67493254E-01  3.67493254E-03 Hartree
     bs_freq_mesh7     0.00000000E+00  3.67493254E-01  3.67493254E-03 Hartree
     bs_freq_mesh8     0.00000000E+00  3.67493254E-01  3.67493254E-03 Hartree
 bs_haydock_niter1        100
 bs_haydock_niter2        100
 bs_haydock_niter3         60
 bs_haydock_niter4        100
 bs_haydock_niter5        200
 bs_haydock_niter6        200
 bs_haydock_niter7        200
 bs_haydock_niter8        200
     bs_hayd_term1          1
     bs_hayd_term2          1
     bs_hayd_term3          0
     bs_hayd_term4          1
     bs_hayd_term5          0
     bs_hayd_term6          0
     bs_hayd_term7          0
     bs_hayd_term8          0
  bs_interp_kmult1       0    0    0
  bs_interp_kmult2       0    0    0
  bs_interp_kmult3       0    0    0
  bs_interp_kmult4       0    0    0
  bs_interp_kmult5       2    2    2
  bs_interp_kmult6       0    0    0
  bs_interp_kmult7       2    2    2
  bs_interp_kmult8       2    2    2
   bs_interp_mode1          0
   bs_interp_mode2          0
   bs_interp_mode3          0
   bs_interp_mode4          0
   bs_interp_mode5          1
   bs_interp_mode6          0
   bs_interp_mode7          2
   bs_interp_mode8          3
   bs_interp_prep1          0
   bs_interp_prep2          0
   bs_interp_prep3          1
   bs_interp_prep4          0
   bs_interp_prep5          0
   bs_interp_prep6          0
   bs_interp_prep7          0
   bs_interp_prep8          0
        bs_loband1          0
        bs_loband2          0
        bs_loband3          2
        bs_loband4          0
        bs_loband5          2
        bs_loband6          2
        bs_loband7          2
        bs_loband8          2
      chksymbreak           0
           diemac      1.20000000E+01
             ecut1     6.00000000E+00 Hartree
             ecut2     6.00000000E+00 Hartree
             ecut3     5.10559920E+00 Hartree
             ecut4     6.00000000E+00 Hartree
             ecut5     5.10559920E+00 Hartree
             ecut6     5.10559920E+00 Hartree
             ecut7     5.10559920E+00 Hartree
             ecut8     5.10559920E+00 Hartree
          ecuteps1     0.00000000E+00 Hartree
          ecuteps2     0.00000000E+00 Hartree
          ecuteps3     2.08005893E+00 Hartree
          ecuteps4     0.00000000E+00 Hartree
          ecuteps5     2.08005893E+00 Hartree
          ecuteps6     2.08005893E+00 Hartree
          ecuteps7     2.08005893E+00 Hartree
          ecuteps8     2.08005893E+00 Hartree
          ecutwfn1     6.00000000E+00 Hartree
          ecutwfn2     6.00000000E+00 Hartree
          ecutwfn3     5.10559920E+00 Hartree
          ecutwfn4     6.00000000E+00 Hartree
          ecutwfn5     5.10559920E+00 Hartree
          ecutwfn6     5.10559920E+00 Hartree
          ecutwfn7     5.10559920E+00 Hartree
          ecutwfn8     5.10559920E+00 Hartree
-          fftalg         112
        getbsreso1          0
        getbsreso2          0
        getbsreso3          0
        getbsreso4          0
        getbsreso5          3
        getbsreso6          0
        getbsreso7          3
        getbsreso8          3
           getden1          0
           getden2         -1
           getden3          0
           getden4          1
           getden5          0
           getden6          0
           getden7          0
           getden8          0
           getkss1          0
           getkss2          0
           getkss3          2
           getkss4          0
           getkss5          2
           getkss6          4
           getkss7          2
           getkss8          2
       getwfkfine1          0
       getwfkfine2          0
       getwfkfine3          0
       getwfkfine4          0
       getwfkfine5          4
       getwfkfine6          0
       getwfkfine7          4
       getwfkfine8          4
           gwpara           2
          inclvkb1          1
          inclvkb2          1
          inclvkb3          2
          inclvkb4          1
          inclvkb5          2
          inclvkb6          2
          inclvkb7          2
          inclvkb8          2
             iscf1          7
             iscf2         -2
             iscf3          7
             iscf4         -2
             iscf5          7
             iscf6          7
             iscf7          7
             iscf8          7
           jdtset        1    2    3    4    5    6    7    8
              kpt1     5.50000000E-02  6.00000000E-02  6.50000000E-02
                      -4.45000000E-01  6.00000000E-02  6.50000000E-02
                       5.50000000E-02 -4.40000000E-01  6.50000000E-02
                      -4.45000000E-01 -4.40000000E-01  6.50000000E-02
                       5.50000000E-02  6.00000000E-02 -4.35000000E-01
                      -4.45000000E-01  6.00000000E-02 -4.35000000E-01
                       5.50000000E-02 -4.40000000E-01 -4.35000000E-01
                      -4.45000000E-01 -4.40000000E-01 -4.35000000E-01
              kpt2     5.50000000E-02  6.00000000E-02  6.50000000E-02
                      -4.45000000E-01  6.00000000E-02  6.50000000E-02
                       5.50000000E-02 -4.40000000E-01  6.50000000E-02
                      -4.45000000E-01 -4.40000000E-01  6.50000000E-02
                       5.50000000E-02  6.00000000E-02 -4.35000000E-01
                      -4.45000000E-01  6.00000000E-02 -4.35000000E-01
                       5.50000000E-02 -4.40000000E-01 -4.35000000E-01
                      -4.45000000E-01 -4.40000000E-01 -4.35000000E-01
              kpt3     5.50000000E-02  6.00000000E-02  6.50000000E-02
                      -4.45000000E-01  6.00000000E-02  6.50000000E-02
                       5.50000000E-02 -4.40000000E-01  6.50000000E-02
                      -4.45000000E-01 -4.40000000E-01  6.50000000E-02
                       5.50000000E-02  6.00000000E-02 -4.35000000E-01
                      -4.45000000E-01  6.00000000E-02 -4.35000000E-01
                       5.50000000E-02 -4.40000000E-01 -4.35000000E-01
                      -4.45000000E-01 -4.40000000E-01 -4.35000000E-01
              kpt4     5.50000000E-02  6.00000000E-02  6.50000000E-02
                       3.05000000E-01  6.00000000E-02  6.50000000E-02
                      -4.45000000E-01  6.00000000E-02  6.50000000E-02
                      -1.95000000E-01  6.00000000E-02  6.50000000E-02
                       5.50000000E-02  3.10000000E-01  6.50000000E-02
                       3.05000000E-01  3.10000000E-01  6.50000000E-02
                      -4.45000000E-01  3.10000000E-01  6.50000000E-02
                      -1.95000000E-01  3.10000000E-01  6.50000000E-02
                       5.50000000E-02 -4.40000000E-01  6.50000000E-02
                       3.05000000E-01 -4.40000000E-01  6.50000000E-02
                      -4.45000000E-01 -4.40000000E-01  6.50000000E-02
                      -1.95000000E-01 -4.40000000E-01  6.50000000E-02
                       5.50000000E-02 -1.90000000E-01  6.50000000E-02
                       3.05000000E-01 -1.90000000E-01  6.50000000E-02
                      -4.45000000E-01 -1.90000000E-01  6.50000000E-02
                      -1.95000000E-01 -1.90000000E-01  6.50000000E-02
                       5.50000000E-02  6.00000000E-02  3.15000000E-01
                       3.05000000E-01  6.00000000E-02  3.15000000E-01
                      -4.45000000E-01  6.00000000E-02  3.15000000E-01
                      -1.95000000E-01  6.00000000E-02  3.15000000E-01
                       5.50000000E-02  3.10000000E-01  3.15000000E-01
                       3.05000000E-01  3.10000000E-01  3.15000000E-01
                      -4.45000000E-01  3.10000000E-01  3.15000000E-01
                      -1.95000000E-01  3.10000000E-01  3.15000000E-01
                       5.50000000E-02 -4.40000000E-01  3.15000000E-01
                       3.05000000E-01 -4.40000000E-01  3.15000000E-01
                      -4.45000000E-01 -4.40000000E-01  3.15000000E-01
                      -1.95000000E-01 -4.40000000E-01  3.15000000E-01
                       5.50000000E-02 -1.90000000E-01  3.15000000E-01
                       3.05000000E-01 -1.90000000E-01  3.15000000E-01
                      -4.45000000E-01 -1.90000000E-01  3.15000000E-01
                      -1.95000000E-01 -1.90000000E-01  3.15000000E-01
                       5.50000000E-02  6.00000000E-02 -4.35000000E-01
                       3.05000000E-01  6.00000000E-02 -4.35000000E-01
                      -4.45000000E-01  6.00000000E-02 -4.35000000E-01
                      -1.95000000E-01  6.00000000E-02 -4.35000000E-01
                       5.50000000E-02  3.10000000E-01 -4.35000000E-01
                       3.05000000E-01  3.10000000E-01 -4.35000000E-01
                      -4.45000000E-01  3.10000000E-01 -4.35000000E-01
                      -1.95000000E-01  3.10000000E-01 -4.35000000E-01
                       5.50000000E-02 -4.40000000E-01 -4.35000000E-01
                       3.05000000E-01 -4.40000000E-01 -4.35000000E-01
                      -4.45000000E-01 -4.40000000E-01 -4.35000000E-01
                      -1.95000000E-01 -4.40000000E-01 -4.35000000E-01
                       5.50000000E-02 -1.90000000E-01 -4.35000000E-01
                       3.05000000E-01 -1.90000000E-01 -4.35000000E-01
                      -4.45000000E-01 -1.90000000E-01 -4.35000000E-01
                      -1.95000000E-01 -1.90000000E-01 -4.35000000E-01
                       5.50000000E-02  6.00000000E-02 -1.85000000E-01
                       3.05000000E-01  6.00000000E-02 -1.85000000E-01
              kpt5     5.50000000E-02  6.00000000E-02  6.50000000E-02
                      -4.45000000E-01  6.00000000E-02  6.50000000E-02
                       5.50000000E-02 -4.40000000E-01  6.50000000E-02
                      -4.45000000E-01 -4.40000000E-01  6.50000000E-02
                       5.50000000E-02  6.00000000E-02 -4.35000000E-01
                      -4.45000000E-01  6.00000000E-02 -4.35000000E-01
                       5.50000000E-02 -4.40000000E-01 -4.35000000E-01
                      -4.45000000E-01 -4.40000000E-01 -4.35000000E-01
              kpt6     5.50000000E-02  6.00000000E-02  6.50000000E-02
                       3.05000000E-01  6.00000000E-02  6.50000000E-02
                      -4.45000000E-01  6.00000000E-02  6.50000000E-02
                      -1.95000000E-01  6.00000000E-02  6.50000000E-02
                       5.50000000E-02  3.10000000E-01  6.50000000E-02
                       3.05000000E-01  3.10000000E-01  6.50000000E-02
                      -4.45000000E-01  3.10000000E-01  6.50000000E-02
                      -1.95000000E-01  3.10000000E-01  6.50000000E-02
                       5.50000000E-02 -4.40000000E-01  6.50000000E-02
                       3.05000000E-01 -4.40000000E-01  6.50000000E-02
                      -4.45000000E-01 -4.40000000E-01  6.50000000E-02
                      -1.95000000E-01 -4.40000000E-01  6.50000000E-02
                       5.50000000E-02 -1.90000000E-01  6.50000000E-02
                       3.05000000E-01 -1.90000000E-01  6.50000000E-02
                      -4.45000000E-01 -1.90000000E-01  6.50000000E-02
                      -1.95000000E-01 -1.90000000E-01  6.50000000E-02
                       5.50000000E-02  6.00000000E-02  3.15000000E-01
                       3.05000000E-01  6.00000000E-02  3.15000000E-01
                      -4.45000000E-01  6.00000000E-02  3.15000000E-01
                      -1.95000000E-01  6.00000000E-02  3.15000000E-01
                       5.50000000E-02  3.10000000E-01  3.15000000E-01
                       3.05000000E-01  3.10000000E-01  3.15000000E-01
                      -4.45000000E-01  3.10000000E-01  3.15000000E-01
                      -1.95000000E-01  3.10000000E-01  3.15000000E-01
                       5.50000000E-02 -4.40000000E-01  3.15000000E-01
                       3.05000000E-01 -4.40000000E-01  3.15000000E-01
                      -4.45000000E-01 -4.40000000E-01  3.15000000E-01
                      -1.95000000E-01 -4.40000000E-01  3.15000000E-01
                       5.50000000E-02 -1.90000000E-01  3.15000000E-01
                       3.05000000E-01 -1.90000000E-01  3.15000000E-01
                      -4.45000000E-01 -1.90000000E-01  3.15000000E-01
                      -1.95000000E-01 -1.90000000E-01  3.15000000E-01
                       5.50000000E-02  6.00000000E-02 -4.35000000E-01
                       3.05000000E-01  6.00000000E-02 -4.35000000E-01
                      -4.45000000E-01  6.00000000E-02 -4.35000000E-01
                      -1.95000000E-01  6.00000000E-02 -4.35000000E-01
                       5.50000000E-02  3.10000000E-01 -4.35000000E-01
                       3.05000000E-01  3.10000000E-01 -4.35000000E-01
                      -4.45000000E-01  3.10000000E-01 -4.35000000E-01
                      -1.95000000E-01  3.10000000E-01 -4.35000000E-01
                       5.50000000E-02 -4.40000000E-01 -4.35000000E-01
                       3.05000000E-01 -4.40000000E-01 -4.35000000E-01
                      -4.45000000E-01 -4.40000000E-01 -4.35000000E-01
                      -1.95000000E-01 -4.40000000E-01 -4.35000000E-01
                       5.50000000E-02 -1.90000000E-01 -4.35000000E-01
                       3.05000000E-01 -1.90000000E-01 -4.35000000E-01
                      -4.45000000E-01 -1.90000000E-01 -4.35000000E-01
                      -1.95000000E-01 -1.90000000E-01 -4.35000000E-01
                       5.50000000E-02  6.00000000E-02 -1.85000000E-01
                       3.05000000E-01  6.00000000E-02 -1.85000000E-01
              kpt7     5.50000000E-02  6.00000000E-02  6.50000000E-02
                      -4.45000000E-01  6.00000000E-02  6.50000000E-02
                       5.50000000E-02 -4.40000000E-01  6.50000000E-02
                      -4.45000000E-01 -4.40000000E-01  6.50000000E-02
                       5.50000000E-02  6.00000000E-02 -4.35000000E-01
                      -4.45000000E-01  6.00000000E-02 -4.35000000E-01
                       5.50000000E-02 -4.40000000E-01 -4.35000000E-01
                      -4.45000000E-01 -4.40000000E-01 -4.35000000E-01
              kpt8     5.50000000E-02  6.00000000E-02  6.50000000E-02
                      -4.45000000E-01  6.00000000E-02  6.50000000E-02
                       5.50000000E-02 -4.40000000E-01  6.50000000E-02
                      -4.45000000E-01 -4.40000000E-01  6.50000000E-02
                       5.50000000E-02  6.00000000E-02 -4.35000000E-01
                      -4.45000000E-01  6.00000000E-02 -4.35000000E-01
                       5.50000000E-02 -4.40000000E-01 -4.35000000E-01
                      -4.45000000E-01 -4.40000000E-01 -4.35000000E-01
                       outvar_i_n : Printing only first  50 k-points.
         kptrlatt1       2    0    0      0    2    0      0    0    2
         kptrlatt2       2    0    0      0    2    0      0    0    2
         kptrlatt3       2    0    0      0    2    0      0    0    2
         kptrlatt4       4    0    0      0    4    0      0    0    4
         kptrlatt5       2    0    0      0    2    0      0    0    2
         kptrlatt6       4    0    0      0    4    0      0    0    4
         kptrlatt7       2    0    0      0    2    0      0    0    2
         kptrlatt8       2    0    0      0    2    0      0    0    2
          kptrlen1     1.44490200E+01
          kptrlen2     1.44490200E+01
          kptrlen3     1.44490200E+01
          kptrlen4     2.88980399E+01
          kptrlen5     1.44490200E+01
          kptrlen6     2.88980399E+01
          kptrlen7     1.44490200E+01
          kptrlen8     1.44490200E+01
       mdf_epsinf1     0.00000000E+00
       mdf_epsinf2     0.00000000E+00
       mdf_epsinf3     1.20000000E+01
       mdf_epsinf4     0.00000000E+00
       mdf_epsinf5     1.20000000E+01
       mdf_epsinf6     1.20000000E+01
       mdf_epsinf7     1.20000000E+01
       mdf_epsinf8     1.20000000E+01
P           mkmem1          8
P           mkmem2          8
P           mkmem3          8
P           mkmem4         64
P           mkmem5          8
P           mkmem6         64
P           mkmem7          8
P           mkmem8          8
            natom           2
            nband1          5
            nband2         35
            nband3          8
            nband4         35
            nband5          8
            nband6          8
            nband7          8
            nband8          8
           nbdbuf1          0
           nbdbuf2          2
           nbdbuf3          0
           nbdbuf4          2
           nbdbuf5          0
           nbdbuf6          0
           nbdbuf7          0
           nbdbuf8          0
           ndtset           8
            ngfft          16      16      16
             nkpt1          8
             nkpt2          8
             nkpt3          8
             nkpt4         64
             nkpt5          8
             nkpt6         64
             nkpt7          8
             nkpt8          8
           npweps1          0
           npweps2          0
           npweps3         51
           npweps4          0
           npweps5         51
           npweps6         51
           npweps7         51
           npweps8         51
           npwwfn1          0
           npwwfn2          0
           npwwfn3        169
           npwwfn4          0
           npwwfn5        169
           npwwfn6        169
           npwwfn7        169
           npwwfn8        169
           nsheps1          0
           nsheps2          0
           nsheps3          5
           nsheps4          0
           nsheps5          5
           nsheps6          5
           nsheps7          5
           nsheps8          5
            nstep          50
             nsym          48
           ntypat           1
              occ1     2.000000  2.000000  2.000000  2.000000  0.000000
              occ3     2.000000  2.000000  2.000000  2.000000  0.000000  0.000000
                       0.000000  0.000000
              occ5     2.000000  2.000000  2.000000  2.000000  0.000000  0.000000
                       0.000000  0.000000
              occ6     2.000000  2.000000  2.000000  2.000000  0.000000  0.000000
                       0.000000  0.000000
              occ7     2.000000  2.000000  2.000000  2.000000  0.000000  0.000000
                       0.000000  0.000000
              occ8     2.000000  2.000000  2.000000  2.000000  0.000000  0.000000
                       0.000000  0.000000
        optdriver1          0
        optdriver2          0
        optdriver3         99
        optdriver4          0
        optdriver5         99
        optdriver6         99
        optdriver7         99
        optdriver8         99
            rprim      0.0000000000E+00  5.0000000000E-01  5.0000000000E-01
                       5.0000000000E-01  0.0000000000E+00  5.0000000000E-01
                       5.0000000000E-01  5.0000000000E-01  0.0000000000E+00
           shiftk1     1.10000000E-01  1.20000000E-01  1.30000000E-01
           shiftk2     1.10000000E-01  1.20000000E-01  1.30000000E-01
           shiftk3     1.10000000E-01  1.20000000E-01  1.30000000E-01
           shiftk4     2.20000000E-01  2.40000000E-01  2.60000000E-01
           shiftk5     1.10000000E-01  1.20000000E-01  1.30000000E-01
           shiftk6     2.20000000E-01  2.40000000E-01  2.60000000E-01
           shiftk7     1.10000000E-01  1.20000000E-01  1.30000000E-01
           shiftk8     1.10000000E-01  1.20000000E-01  1.30000000E-01
         soenergy1     0.00000000E+00 Hartree
         soenergy2     0.00000000E+00 Hartree
         soenergy3     2.93994603E-02 Hartree
         soenergy4     0.00000000E+00 Hartree
         soenergy5     2.93994603E-02 Hartree
         soenergy6     2.93994603E-02 Hartree
         soenergy7     2.93994603E-02 Hartree
         soenergy8     2.93994603E-02 Hartree
          spgroup         227
           symrel      1  0  0   0  1  0   0  0  1      -1  0  0   0 -1  0   0  0 -1
                       0 -1  1   0 -1  0   1 -1  0       0  1 -1   0  1  0  -1  1  0
                      -1  0  0  -1  0  1  -1  1  0       1  0  0   1  0 -1   1 -1  0
                       0  1 -1   1  0 -1   0  0 -1       0 -1  1  -1  0  1   0  0  1
                      -1  0  0  -1  1  0  -1  0  1       1  0  0   1 -1  0   1  0 -1
                       0 -1  1   1 -1  0   0 -1  0       0  1 -1  -1  1  0   0  1  0
                       1  0  0   0  0  1   0  1  0      -1  0  0   0  0 -1   0 -1  0
                       0  1 -1   0  0 -1   1  0 -1       0 -1  1   0  0  1  -1  0  1
                      -1  0  1  -1  1  0  -1  0  0       1  0 -1   1 -1  0   1  0  0
                       0 -1  0   1 -1  0   0 -1  1       0  1  0  -1  1  0   0  1 -1
                       1  0 -1   0  0 -1   0  1 -1      -1  0  1   0  0  1   0 -1  1
                       0  1  0   0  0  1   1  0  0       0 -1  0   0  0 -1  -1  0  0
                       1  0 -1   0  1 -1   0  0 -1      -1  0  1   0 -1  1   0  0  1
                       0 -1  0   0 -1  1   1 -1  0       0  1  0   0  1 -1  -1  1  0
                      -1  0  1  -1  0  0  -1  1  0       1  0 -1   1  0  0   1 -1  0
                       0  1  0   1  0  0   0  0  1       0 -1  0  -1  0  0   0  0 -1
                       0  0 -1   0  1 -1   1  0 -1       0  0  1   0 -1  1  -1  0  1
                       1 -1  0   0 -1  1   0 -1  0      -1  1  0   0  1 -1   0  1  0
                       0  0  1   1  0  0   0  1  0       0  0 -1  -1  0  0   0 -1  0
                      -1  1  0  -1  0  0  -1  0  1       1 -1  0   1  0  0   1  0 -1
                       0  0  1   0  1  0   1  0  0       0  0 -1   0 -1  0  -1  0  0
                       1 -1  0   0 -1  0   0 -1  1      -1  1  0   0  1  0   0  1 -1
                       0  0 -1   1  0 -1   0  1 -1       0  0  1  -1  0  1   0 -1  1
                      -1  1  0  -1  0  1  -1  0  0       1 -1  0   1  0 -1   1  0  0
            tnons      0.0000000  0.0000000  0.0000000     0.2500000  0.2500000  0.2500000
                       0.0000000  0.0000000  0.0000000     0.2500000  0.2500000  0.2500000
                       0.0000000  0.0000000  0.0000000     0.2500000  0.2500000  0.2500000
                       0.0000000  0.0000000  0.0000000     0.2500000  0.2500000  0.2500000
                       0.0000000  0.0000000  0.0000000     0.2500000  0.2500000  0.2500000
                       0.0000000  0.0000000  0.0000000     0.2500000  0.2500000  0.2500000
                       0.0000000  0.0000000  0.0000000     0.2500000  0.2500000  0.2500000
                       0.0000000  0.0000000  0.0000000     0.2500000  0.2500000  0.2500000
                       0.0000000  0.0000000  0.0000000     0.2500000  0.2500000  0.2500000
                       0.0000000  0.0000000  0.0000000     0.2500000  0.2500000  0.2500000
                       0.0000000  0.0000000  0.0000000     0.2500000  0.2500000  0.2500000
                       0.0000000  0.0000000  0.0000000     0.2500000  0.2500000  0.2500000
                       0.0000000  0.0000000  0.0000000     0.2500000  0.2500000  0.2500000
                       0.0000000  0.0000000  0.0000000     0.2500000  0.2500000  0.2500000
                       0.0000000  0.0000000  0.0000000     0.2500000  0.2500000  0.2500000
                       0.0000000  0.0000000  0.0000000     0.2500000  0.2500000  0.2500000
                       0.0000000  0.0000000  0.0000000     0.2500000  0.2500000  0.2500000
                       0.0000000  0.0000000  0.0000000     0.2500000  0.2500000  0.2500000
                       0.0000000  0.0000000  0.0000000     0.2500000  0.2500000  0.2500000
                       0.0000000  0.0000000  0.0000000     0.2500000  0.2500000  0.2500000
                       0.0000000  0.0000000  0.0000000     0.2500000  0.2500000  0.2500000
                       0.0000000  0.0000000  0.0000000     0.2500000  0.2500000  0.2500000
                       0.0000000  0.0000000  0.0000000     0.2500000  0.2500000  0.2500000
                       0.0000000  0.0000000  0.0000000     0.2500000  0.2500000  0.2500000
           toldfe1     1.00000000E-06 Hartree
           toldfe2     0.00000000E+00 Hartree
           toldfe3     0.00000000E+00 Hartree
           toldfe4     0.00000000E+00 Hartree
           toldfe5     0.00000000E+00 Hartree
           toldfe6     0.00000000E+00 Hartree
           toldfe7     0.00000000E+00 Hartree
           toldfe8     0.00000000E+00 Hartree
           tolwfr1     0.00000000E+00
           tolwfr2     1.00000000E-08
           tolwfr3     0.00000000E+00
           tolwfr4     1.00000000E-08
           tolwfr5     0.00000000E+00
           tolwfr6     0.00000000E+00
           tolwfr7     0.00000000E+00
           tolwfr8     0.00000000E+00
            typat      1  1
              wtk1       0.12500    0.12500    0.12500    0.12500    0.12500    0.12500
                         0.12500    0.12500
              wtk2       0.12500    0.12500    0.12500    0.12500    0.12500    0.12500
                         0.12500    0.12500
              wtk3       0.12500    0.12500    0.12500    0.12500    0.12500    0.12500
                         0.12500    0.12500
              wtk4       0.01563    0.01563    0.01563    0.01563    0.01563    0.01563
                         0.01563    0.01563    0.01563    0.01563    0.01563    0.01563
                         0.01563    0.01563    0.01563    0.01563    0.01563    0.01563
                         0.01563    0.01563    0.01563    0.01563    0.01563    0.01563
                         0.01563    0.01563    0.01563    0.01563    0.01563    0.01563
                         0.01563    0.01563    0.01563    0.01563    0.01563    0.01563
                         0.01563    0.01563    0.01563    0.01563    0.01563    0.01563
                         0.01563    0.01563    0.01563    0.01563    0.01563    0.01563
                         0.01563    0.01563
              wtk5       0.12500    0.12500    0.12500    0.12500    0.12500    0.12500
                         0.12500    0.12500
              wtk6       0.01563    0.01563    0.01563    0.01563    0.01563    0.01563
                         0.01563    0.01563    0.01563    0.01563    0.01563    0.01563
                         0.01563    0.01563    0.01563    0.01563    0.01563    0.01563
                         0.01563    0.01563    0.01563    0.01563    0.01563    0.01563
                         0.01563    0.01563    0.01563    0.01563    0.01563    0.01563
                         0.01563    0.01563    0.01563    0.01563    0.01563    0.01563
                         0.01563    0.01563    0.01563    0.01563    0.01563    0.01563
                         0.01563    0.01563    0.01563    0.01563    0.01563    0.01563
                         0.01563    0.01563
              wtk7       0.12500    0.12500    0.12500    0.12500    0.12500    0.12500
                         0.12500    0.12500
              wtk8       0.12500    0.12500    0.12500    0.12500    0.12500    0.12500
                         0.12500    0.12500
                       outvars : Printing only first  50 k-points.
           xangst      0.0000000000E+00  0.0000000000E+00  0.0000000000E+00
                       1.3516508850E+00  1.3516508850E+00  1.3516508850E+00
            xcart      0.0000000000E+00  0.0000000000E+00  0.0000000000E+00
                       2.5542500000E+00  2.5542500000E+00  2.5542500000E+00
             xred      0.0000000000E+00  0.0000000000E+00  0.0000000000E+00
                       2.5000000000E-01  2.5000000000E-01  2.5000000000E-01
            znucl       14.00000

================================================================================

 chkinp: Checking input parameters for consistency, jdtset=   1.

 chkinp: Checking input parameters for consistency, jdtset=   2.

 chkinp: Checking input parameters for consistency, jdtset=   3.

 chkinp: Checking input parameters for consistency, jdtset=   4.

 chkinp: Checking input parameters for consistency, jdtset=   5.

 chkinp: Checking input parameters for consistency, jdtset=   6.

 chkinp: Checking input parameters for consistency, jdtset=   7.

 chkinp: Checking input parameters for consistency, jdtset=   8.

================================================================================
== DATASET  1 ==================================================================
-   nproc =    1

 Exchange-correlation functional for the present dataset will be:
  LDA: new Teter (4/93) with spin-polarized option - ixc=1
 Citation for XC functional:
  S. Goedecker, M. Teter, J. Huetter, PRB 54, 1703 (1996)

 Real(R)+Recip(G) space primitive vectors, cartesian coordinates (Bohr,Bohr^-1):
 R(1)=  0.0000000  5.1085000  5.1085000  G(1)= -0.0978761  0.0978761  0.0978761
 R(2)=  5.1085000  0.0000000  5.1085000  G(2)=  0.0978761 -0.0978761  0.0978761
 R(3)=  5.1085000  5.1085000  0.0000000  G(3)=  0.0978761  0.0978761 -0.0978761
 Unit cell volume ucvol=  2.6663072E+02 bohr^3
 Angles (23,13,12)=  6.00000000E+01  6.00000000E+01  6.00000000E+01 degrees

 getcut: wavevector=  0.0000  0.0000  0.0000  ngfft=  16  16  16
         ecut(hartree)=      6.000   => boxcut(ratio)=   2.00850

--- Pseudopotential description ------------------------------------------------
- pspini: atom type   1  psp file is /home/gmatteo/archives/790/gmatteo-private/tests/Psps_for_tests/14si.pspnc
- pspatm: opening atomic psp file    /home/gmatteo/archives/790/gmatteo-private/tests/Psps_for_tests/14si.pspnc
-  Troullier-Martins psp for element  Si        Thu Oct 27 17:31:21 EDT 1994
- 14.00000   4.00000    940714                znucl, zion, pspdat
    1    1    2    2      2001   0.00000      pspcod,pspxc,lmax,lloc,mmax,r2well
    0   5.907  14.692    1   2.0872718        l,e99.0,e99.9,nproj,rcpsp
   0.00000000   0.00000000   0.00000000   0.00000000     rms, ekb1, ekb2, epsatm
    1   2.617   4.181    1   2.0872718        l,e99.0,e99.9,nproj,rcpsp
   0.00000000   0.00000000   0.00000000   0.00000000     rms, ekb1, ekb2, epsatm
    2   0.000   0.000    0   2.0872718        l,e99.0,e99.9,nproj,rcpsp
   0.00000000   0.00000000   0.00000000   0.00000000     rms, ekb1, ekb2, epsatm
    1.80626423934776    0.22824404341771    1.17378968127746   rchrg,fchrg,qchrg
 pspatm: epsatm=    1.43386982
         --- l  ekb(1:nproj) -->
             0    3.287949
             1    1.849886
 pspatm: atomic psp has been read  and splines computed

   2.29419171E+01                                ecore*ucvol(ha*bohr**3)
--------------------------------------------------------------------------------

P newkpt: treating      5 bands with npw=     172 for ikpt=   1 by node    0
P newkpt: treating      5 bands with npw=     180 for ikpt=   2 by node    0
P newkpt: treating      5 bands with npw=     180 for ikpt=   3 by node    0
P newkpt: treating      5 bands with npw=     190 for ikpt=   4 by node    0
P newkpt: treating      5 bands with npw=     180 for ikpt=   5 by node    0
P newkpt: treating      5 bands with npw=     190 for ikpt=   6 by node    0
P newkpt: treating      5 bands with npw=     190 for ikpt=   7 by node    0
P newkpt: treating      5 bands with npw=     183 for ikpt=   8 by node    0

_setup2: Arith. and geom. avg. npw (full set) are     183.125     183.024

================================================================================

     iter   Etot(hartree)      deltaE(h)  residm     vres2
 ETOT  1  -8.7784860380561    -8.778E+00 4.684E-03 4.424E+00
 ETOT  2  -8.7861512961301    -7.665E-03 1.476E-05 1.293E-01
 ETOT  3  -8.7862679203125    -1.166E-04 2.195E-05 2.759E-03
 ETOT  4  -8.7862694743835    -1.554E-06 2.380E-05 7.407E-06
 ETOT  5  -8.7862694793882    -5.005E-09 4.254E-05 1.059E-08
 ETOT  6  -8.7862694793967    -8.493E-12 3.187E-05 7.947E-11

 At SCF step    6, etot is converged : 
  for the second time, diff in etot=  8.493E-12 < toldfe=  1.000E-06

 Cartesian components of stress tensor (hartree/bohr^3)
  sigma(1 1)= -1.52074048E-04  sigma(3 2)=  0.00000000E+00
  sigma(2 2)= -1.52074048E-04  sigma(3 1)=  0.00000000E+00
  sigma(3 3)= -1.52074048E-04  sigma(2 1)=  0.00000000E+00

================================================================================

 ----iterations are completed or convergence reached----

 Mean square residual over all n,k,spin=   7.9669E-07; max=  3.1866E-05
   0.0550  0.0600  0.0650    1  3.18662E-05 kpt; spin; max resid(k); each band:
  2.09E-15 6.20E-15 1.38E-14 5.47E-15 3.19E-05
  -0.4450  0.0600  0.0650    1  7.28163E-13 kpt; spin; max resid(k); each band:
  3.61E-15 2.16E-13 3.87E-14 6.98E-16 7.28E-13
   0.0550 -0.4400  0.0650    1  5.70585E-13 kpt; spin; max resid(k); each band:
  5.94E-15 2.15E-13 3.77E-14 7.82E-16 5.71E-13
  -0.4450 -0.4400  0.0650    1  6.33776E-10 kpt; spin; max resid(k); each band:
  7.75E-14 3.17E-14 1.05E-14 4.56E-15 6.34E-10
   0.0550  0.0600 -0.4350    1  6.97552E-13 kpt; spin; max resid(k); each band:
  9.02E-15 2.14E-13 3.60E-14 7.62E-16 6.98E-13
  -0.4450  0.0600 -0.4350    1  4.44309E-10 kpt; spin; max resid(k); each band:
  8.65E-14 2.37E-14 1.11E-14 2.23E-15 4.44E-10
   0.0550 -0.4400 -0.4350    1  4.43585E-10 kpt; spin; max resid(k); each band:
  9.42E-14 1.73E-14 1.13E-14 1.26E-15 4.44E-10
  -0.4450 -0.4400 -0.4350    1  3.03805E-13 kpt; spin; max resid(k); each band:
  2.97E-14 2.03E-13 1.49E-15 1.24E-15 3.04E-13
 reduced coordinates (array xred) for    2 atoms
       0.000000000000      0.000000000000      0.000000000000
       0.250000000000      0.250000000000      0.250000000000
 rms dE/dt=  0.0000E+00; max dE/dt=  0.0000E+00; dE/dt below (all hartree)
    1       0.000000000000      0.000000000000      0.000000000000
    2       0.000000000000      0.000000000000      0.000000000000

 cartesian coordinates (angstrom) at end:
    1      0.00000000000000     0.00000000000000     0.00000000000000
    2      1.35165088504101     1.35165088504101     1.35165088504101

 cartesian forces (hartree/bohr) at end:
    1     -0.00000000000000    -0.00000000000000    -0.00000000000000
    2     -0.00000000000000    -0.00000000000000    -0.00000000000000
 frms,max,avg= 0.0000000E+00 0.0000000E+00   0.000E+00  0.000E+00  0.000E+00 h/b

 cartesian forces (eV/Angstrom) at end:
    1     -0.00000000000000    -0.00000000000000    -0.00000000000000
    2     -0.00000000000000    -0.00000000000000    -0.00000000000000
 frms,max,avg= 0.0000000E+00 0.0000000E+00   0.000E+00  0.000E+00  0.000E+00 e/A
 length scales= 10.217000000000 10.217000000000 10.217000000000 bohr
              =  5.406603540164  5.406603540164  5.406603540164 angstroms
 prteigrs : about to open file t15o_DS1_EIG
 Fermi (or HOMO) energy (hartree) =   0.22452   Average Vxc (hartree)=  -0.35174
 Eigenvalues (hartree) for nkpt=   8  k points:
 kpt#   1, nband=  5, wtk=  0.12500, kpt=  0.0550  0.0600  0.0650 (reduced coord)
  -0.21791   0.20784   0.22274   0.22452   0.32075
 kpt#   2, nband=  5, wtk=  0.12500, kpt= -0.4450  0.0600  0.0650 (reduced coord)
  -0.12955  -0.03545   0.16607   0.17655   0.29083
 kpt#   3, nband=  5, wtk=  0.12500, kpt=  0.0550 -0.4400  0.0650 (reduced coord)
  -0.13016  -0.03480   0.16718   0.17659   0.29028
 kpt#   4, nband=  5, wtk=  0.12500, kpt= -0.4450 -0.4400  0.0650 (reduced coord)
  -0.07806  -0.04938   0.10781   0.11806   0.24475
 kpt#   5, nband=  5, wtk=  0.12500, kpt=  0.0550  0.0600 -0.4350 (reduced coord)
  -0.13100  -0.03392   0.16873   0.17667   0.28942
 kpt#   6, nband=  5, wtk=  0.12500, kpt= -0.4450  0.0600 -0.4350 (reduced coord)
  -0.08089  -0.04647   0.10925   0.11788   0.24461
 kpt#   7, nband=  5, wtk=  0.12500, kpt=  0.0550 -0.4400 -0.4350 (reduced coord)
  -0.08373  -0.04353   0.11061   0.11810   0.24388
 kpt#   8, nband=  5, wtk=  0.12500, kpt= -0.4450 -0.4400 -0.4350 (reduced coord)
  -0.13825  -0.02637   0.18073   0.18158   0.27920
 Total charge density [el/Bohr^3]
,     Maximum=    9.3410E-02  at reduced coord.    0.1250    0.1250    0.6250
,Next maximum=    9.3410E-02  at reduced coord.    0.1250    0.6250    0.1250
,     Minimum=    2.4438E-03  at reduced coord.    0.5000    0.5000    0.5000
,Next minimum=    2.4438E-03  at reduced coord.    0.7500    0.7500    0.7500
,  Integrated=    8.0000E+00

--------------------------------------------------------------------------------
 Components of total free energy (in Hartree) :

    Kinetic energy  =  3.17419994991121E+00
    Hartree energy  =  5.94658928795672E-01
    XC energy       = -3.56344675711880E+00
    Ewald energy    = -8.43581958561899E+00
    PspCore energy  =  8.60437873148613E-02
    Loc. psp. energy= -2.54194380616894E+00
    NL   psp  energy=  1.90003800348825E+00
    >>>>>>>>> Etotal= -8.78626947939674E+00

 Other information on the energy :
    Total energy(eV)= -2.39086551501267E+02 ; Band energy (Ha)=   3.6785346795E-01
--------------------------------------------------------------------------------

 Cartesian components of stress tensor (hartree/bohr^3)
  sigma(1 1)= -1.52074048E-04  sigma(3 2)=  0.00000000E+00
  sigma(2 2)= -1.52074048E-04  sigma(3 1)=  0.00000000E+00
  sigma(3 3)= -1.52074048E-04  sigma(2 1)=  0.00000000E+00

-Cartesian components of stress tensor (GPa)         [Pressure=  4.4742E+00 GPa]
- sigma(1 1)= -4.47417222E+00  sigma(3 2)=  0.00000000E+00
- sigma(2 2)= -4.47417222E+00  sigma(3 1)=  0.00000000E+00
- sigma(3 3)= -4.47417222E+00  sigma(2 1)=  0.00000000E+00

================================================================================
== DATASET  2 ==================================================================
-   nproc =    1

 mkfilename : getden/=0, take file _DEN from output of DATASET   1.

 Exchange-correlation functional for the present dataset will be:
  LDA: new Teter (4/93) with spin-polarized option - ixc=1
 Citation for XC functional:
  S. Goedecker, M. Teter, J. Huetter, PRB 54, 1703 (1996)

 Real(R)+Recip(G) space primitive vectors, cartesian coordinates (Bohr,Bohr^-1):
 R(1)=  0.0000000  5.1085000  5.1085000  G(1)= -0.0978761  0.0978761  0.0978761
 R(2)=  5.1085000  0.0000000  5.1085000  G(2)=  0.0978761 -0.0978761  0.0978761
 R(3)=  5.1085000  5.1085000  0.0000000  G(3)=  0.0978761  0.0978761 -0.0978761
 Unit cell volume ucvol=  2.6663072E+02 bohr^3
 Angles (23,13,12)=  6.00000000E+01  6.00000000E+01  6.00000000E+01 degrees

 getcut: wavevector=  0.0000  0.0000  0.0000  ngfft=  16  16  16
         ecut(hartree)=      6.000   => boxcut(ratio)=   2.00850
--------------------------------------------------------------------------------

P newkpt: treating     35 bands with npw=     172 for ikpt=   1 by node    0
P newkpt: treating     35 bands with npw=     180 for ikpt=   2 by node    0
P newkpt: treating     35 bands with npw=     180 for ikpt=   3 by node    0
P newkpt: treating     35 bands with npw=     190 for ikpt=   4 by node    0
P newkpt: treating     35 bands with npw=     180 for ikpt=   5 by node    0
P newkpt: treating     35 bands with npw=     190 for ikpt=   6 by node    0
P newkpt: treating     35 bands with npw=     190 for ikpt=   7 by node    0
P newkpt: treating     35 bands with npw=     183 for ikpt=   8 by node    0


================================================================================
 prteigrs : about to open file t15o_DS2_EIG
 Non-SCF case, kpt    1 (  0.05500  0.06000  0.06500), residuals and eigenvalues=
  1.19E-09  2.64E-09  1.42E-09  3.05E-09  8.23E-10  2.54E-09  2.41E-10  1.60E-10
  4.91E-10  2.49E-10  1.90E-10  1.40E-09  5.44E-10  7.01E-10  2.18E-10  5.74E-09
  2.37E-09  1.79E-09  3.82E-09  1.12E-09  4.35E-09  1.78E-09  3.98E-10  6.95E-09
  3.91E-09  1.56E-09  2.30E-09  3.63E-09  9.85E-09  7.76E-09  6.62E-09  8.61E-09
  5.77E-09  7.45E-09  2.98E-05
 -2.1791E-01  2.0784E-01  2.2274E-01  2.2452E-01  3.1889E-01  3.2022E-01
  3.2203E-01  3.5946E-01  5.0888E-01  5.1001E-01  5.1212E-01  6.2425E-01
  6.4271E-01  6.4620E-01  7.8476E-01  1.0732E+00  1.0774E+00  1.0832E+00
  1.1396E+00  1.1434E+00  1.1847E+00  1.1867E+00  1.1956E+00  1.3164E+00
  1.3389E+00  1.3435E+00  1.5190E+00  1.5559E+00  1.5622E+00  1.5666E+00
  1.6690E+00  1.6758E+00  1.7113E+00  1.7192E+00  1.7557E+00
  prteigrs : nnsclo,ikpt=   50    1 max resid (incl. the buffer)=  2.97738E-05
 Non-SCF case, kpt    2 ( -0.44500  0.06000  0.06500), residuals and eigenvalues=
  1.50E-10  1.24E-10  1.55E-09  1.14E-10  7.84E-10  1.31E-10  2.13E-10  9.51E-11
  2.03E-10  5.03E-09  1.96E-10  2.04E-10  4.79E-09  2.25E-10  2.16E-10  6.82E-09
  5.29E-09  1.03E-09  5.04E-10  1.60E-09  3.12E-09  3.14E-09  8.15E-09  5.06E-09
  1.04E-09  3.36E-09  1.15E-09  2.71E-09  4.03E-09  8.00E-09  3.99E-09  4.21E-09
  4.59E-09  7.39E-09  2.49E-06
 -1.2955E-01 -3.5447E-02  1.6607E-01  1.7655E-01  2.9083E-01  3.4233E-01
  3.5260E-01  5.0395E-01  5.7786E-01  6.1659E-01  6.3895E-01  6.5175E-01
  6.7318E-01  7.1373E-01  9.3377E-01  9.6324E-01  1.0037E+00  1.0302E+00
  1.0466E+00  1.0670E+00  1.1781E+00  1.1909E+00  1.1923E+00  1.2606E+00
  1.2650E+00  1.2736E+00  1.3761E+00  1.3825E+00  1.4121E+00  1.4514E+00
  1.4653E+00  1.4765E+00  1.5781E+00  1.5961E+00  1.6812E+00
  prteigrs : nnsclo,ikpt=   50    2 max resid (incl. the buffer)=  2.48543E-06
 Non-SCF case, kpt    3 (  0.05500 -0.44000  0.06500), residuals and eigenvalues=
  7.29E-09  1.28E-09  3.10E-10  1.26E-10  5.06E-10  1.29E-10  8.24E-10  1.92E-09
  1.17E-10  2.18E-10  6.08E-10  5.33E-09  3.05E-09  1.47E-10  1.49E-10  4.46E-10
  3.50E-10  7.03E-09  1.90E-09  7.62E-10  1.44E-09  1.39E-09  1.79E-09  4.38E-09
  9.75E-09  3.96E-09  9.25E-09  3.25E-09  9.05E-09  7.48E-09  4.35E-09  9.07E-09
  4.65E-09  4.95E-09  2.00E-06
 -1.3016E-01 -3.4803E-02  1.6718E-01  1.7659E-01  2.9028E-01  3.4219E-01
  3.5253E-01  5.0344E-01  5.7570E-01  6.2027E-01  6.4147E-01  6.4684E-01
  6.7176E-01  7.1592E-01  9.2662E-01  9.7108E-01  9.9741E-01  1.0307E+00
  1.0471E+00  1.0721E+00  1.1761E+00  1.1887E+00  1.1961E+00  1.2590E+00
  1.2686E+00  1.2731E+00  1.3778E+00  1.3856E+00  1.4101E+00  1.4506E+00
  1.4636E+00  1.4782E+00  1.5763E+00  1.5955E+00  1.6838E+00
  prteigrs : nnsclo,ikpt=   50    3 max resid (incl. the buffer)=  2.00372E-06
 Non-SCF case, kpt    4 ( -0.44500 -0.44000  0.06500), residuals and eigenvalues=
  8.19E-10  5.93E-10  2.23E-09  4.01E-09  3.09E-09  2.35E-09  4.66E-10  7.99E-10
  5.26E-09  4.51E-09  1.97E-09  2.39E-09  2.72E-09  8.12E-10  2.76E-09  3.89E-09
  2.16E-09  5.46E-10  1.87E-09  2.40E-09  1.32E-09  5.54E-10  4.24E-09  1.77E-09
  9.93E-09  9.82E-09  6.60E-09  8.74E-09  9.46E-09  3.32E-09  8.93E-09  5.30E-09
  8.03E-09  3.83E-08  5.51E-05
 -7.8058E-02 -4.9383E-02  1.0781E-01  1.1806E-01  2.4475E-01  2.5852E-01
  5.7416E-01  5.7802E-01  6.2547E-01  6.3121E-01  6.9099E-01  6.9620E-01
  7.2591E-01  7.3011E-01  8.7812E-01  9.2722E-01  9.3035E-01  9.3890E-01
  9.8750E-01  9.9304E-01  1.0106E+00  1.0394E+00  1.1741E+00  1.2100E+00
  1.3230E+00  1.3493E+00  1.4211E+00  1.4708E+00  1.4797E+00  1.5254E+00
  1.5378E+00  1.5677E+00  1.6037E+00  1.6178E+00  1.6724E+00
  prteigrs : nnsclo,ikpt=   50    4 max resid (incl. the buffer)=  5.51191E-05
 Non-SCF case, kpt    5 (  0.05500  0.06000 -0.43500), residuals and eigenvalues=
  4.04E-10  3.27E-10  3.34E-09  1.42E-09  2.63E-09  3.27E-09  2.97E-09  6.53E-10
  5.38E-09  9.62E-10  4.28E-10  3.00E-09  1.40E-10  2.63E-09  5.56E-10  2.93E-10
  5.64E-09  5.10E-09  2.82E-09  2.91E-09  1.69E-09  9.36E-09  7.20E-09  3.96E-10
  7.46E-09  3.34E-09  9.06E-10  8.80E-09  1.58E-09  5.02E-09  5.82E-09  3.62E-09
  8.63E-09  9.91E-09  1.71E-05
 -1.3100E-01 -3.3915E-02  1.6873E-01  1.7667E-01  2.8942E-01  3.4222E-01
  3.5227E-01  5.0276E-01  5.7349E-01  6.2474E-01  6.4137E-01  6.4363E-01
  6.7033E-01  7.1824E-01  9.1963E-01  9.7909E-01  9.9124E-01  1.0260E+00
  1.0528E+00  1.0771E+00  1.1725E+00  1.1883E+00  1.1998E+00  1.2583E+00
  1.2695E+00  1.2742E+00  1.3828E+00  1.3868E+00  1.4074E+00  1.4499E+00
  1.4665E+00  1.4752E+00  1.5748E+00  1.5942E+00  1.6864E+00
  prteigrs : nnsclo,ikpt=   50    5 max resid (incl. the buffer)=  1.70984E-05
 Non-SCF case, kpt    6 ( -0.44500  0.06000 -0.43500), residuals and eigenvalues=
  8.64E-10  3.38E-10  1.03E-09  7.54E-10  6.81E-10  1.62E-09  5.29E-10  4.01E-10
  2.04E-10  6.78E-09  5.25E-09  5.15E-09  6.24E-09  3.68E-10  4.65E-09  5.72E-10
  6.58E-10  1.40E-09  6.18E-10  2.24E-09  6.13E-10  1.62E-09  3.38E-09  1.39E-09
  6.00E-09  2.59E-09  6.61E-09  7.66E-09  2.33E-09  5.76E-09  6.16E-09  5.24E-09
  9.35E-09  6.43E-09  3.45E-06
 -8.0888E-02 -4.6471E-02  1.0925E-01  1.1788E-01  2.4461E-01  2.5734E-01
  5.7196E-01  5.7751E-01  6.2945E-01  6.3660E-01  6.8472E-01  6.9334E-01
  7.2459E-01  7.3314E-01  8.7555E-01  9.2259E-01  9.3159E-01  9.3750E-01
  9.8424E-01  9.9710E-01  1.0150E+00  1.0424E+00  1.1752E+00  1.2125E+00
  1.3231E+00  1.3453E+00  1.4240E+00  1.4644E+00  1.4805E+00  1.5309E+00
  1.5380E+00  1.5673E+00  1.6042E+00  1.6199E+00  1.6783E+00
  prteigrs : nnsclo,ikpt=   50    6 max resid (incl. the buffer)=  3.44515E-06
 Non-SCF case, kpt    7 (  0.05500 -0.44000 -0.43500), residuals and eigenvalues=
  6.09E-10  1.52E-09  4.12E-09  2.97E-09  2.47E-09  1.98E-09  4.42E-09  3.07E-09
  2.48E-10  4.23E-10  3.47E-10  3.01E-10  2.86E-10  3.51E-10  4.47E-09  3.95E-10
  1.38E-09  1.93E-09  7.91E-10  8.04E-10  9.75E-10  4.79E-09  1.28E-09  6.78E-09
  6.28E-09  8.19E-09  2.84E-09  2.41E-09  7.91E-09  7.94E-09  9.03E-09  9.85E-09
  8.16E-09  3.32E-08  1.01E-05
 -8.3730E-02 -4.3531E-02  1.1061E-01  1.1810E-01  2.4388E-01  2.5638E-01
  5.7196E-01  5.7502E-01  6.3548E-01  6.4050E-01  6.8092E-01  6.8739E-01
  7.2585E-01  7.3331E-01  8.7326E-01  9.1867E-01  9.2744E-01  9.3844E-01
  9.8299E-01  1.0033E+00  1.0175E+00  1.0456E+00  1.1760E+00  1.2164E+00
  1.3220E+00  1.3415E+00  1.4254E+00  1.4621E+00  1.4800E+00  1.5361E+00
  1.5365E+00  1.5693E+00  1.6030E+00  1.6243E+00  1.6840E+00
  prteigrs : nnsclo,ikpt=   50    7 max resid (incl. the buffer)=  1.00976E-05
 Non-SCF case, kpt    8 ( -0.44500 -0.44000 -0.43500), residuals and eigenvalues=
  2.07E-09  3.90E-10  1.93E-09  4.38E-09  1.50E-09  3.72E-10  2.22E-10  3.92E-09
  7.32E-10  8.16E-10  2.12E-09  3.99E-10  2.31E-09  4.35E-10  3.90E-10  6.33E-09
  8.17E-10  2.19E-09  1.77E-09  2.72E-09  7.80E-09  1.00E-08  7.79E-09  3.08E-09
  2.85E-09  6.45E-09  5.36E-09  9.08E-09  1.29E-09  3.17E-09  2.71E-09  2.50E-09
  5.12E-09  2.54E-08  1.92E-04
 -1.3825E-01 -2.6368E-02  1.8073E-01  1.8158E-01  2.7920E-01  3.4593E-01
  3.4677E-01  4.9782E-01  5.8324E-01  5.9011E-01  6.1414E-01  6.7972E-01
  6.8677E-01  7.1357E-01  8.8448E-01  9.7284E-01  9.7916E-01  1.0235E+00
  1.0966E+00  1.1002E+00  1.1357E+00  1.2188E+00  1.2281E+00  1.2446E+00
  1.2508E+00  1.2900E+00  1.3811E+00  1.4215E+00  1.4270E+00  1.4458E+00
  1.4583E+00  1.4636E+00  1.5539E+00  1.5789E+00  1.7472E+00
  prteigrs : nnsclo,ikpt=   50    8 max resid (incl. the buffer)=  1.91676E-04
================================================================================

 ----iterations are completed or convergence reached----

 Mean square residual over all n,k,spin=   1.1166E-06; max=  5.5119E-05
   0.0550  0.0600  0.0650    1  2.97738E-05 kpt; spin; max resid(k); each band:
  1.19E-09 2.64E-09 1.42E-09 3.05E-09 8.23E-10 2.54E-09 2.41E-10 1.60E-10
  4.91E-10 2.49E-10 1.90E-10 1.40E-09 5.44E-10 7.01E-10 2.18E-10 5.74E-09
  2.37E-09 1.79E-09 3.82E-09 1.12E-09 4.35E-09 1.78E-09 3.98E-10 6.95E-09
  3.91E-09 1.56E-09 2.30E-09 3.63E-09 9.85E-09 7.76E-09 6.62E-09 8.61E-09
  5.77E-09 7.45E-09 2.98E-05
  -0.4450  0.0600  0.0650    1  2.48543E-06 kpt; spin; max resid(k); each band:
  1.50E-10 1.24E-10 1.55E-09 1.14E-10 7.84E-10 1.31E-10 2.13E-10 9.51E-11
  2.03E-10 5.03E-09 1.96E-10 2.04E-10 4.79E-09 2.25E-10 2.16E-10 6.82E-09
  5.29E-09 1.03E-09 5.04E-10 1.60E-09 3.12E-09 3.14E-09 8.15E-09 5.06E-09
  1.04E-09 3.36E-09 1.15E-09 2.71E-09 4.03E-09 8.00E-09 3.99E-09 4.21E-09
  4.59E-09 7.39E-09 2.49E-06
   0.0550 -0.4400  0.0650    1  2.00372E-06 kpt; spin; max resid(k); each band:
  7.29E-09 1.28E-09 3.10E-10 1.26E-10 5.06E-10 1.29E-10 8.24E-10 1.92E-09
  1.17E-10 2.18E-10 6.08E-10 5.33E-09 3.05E-09 1.47E-10 1.49E-10 4.46E-10
  3.50E-10 7.03E-09 1.90E-09 7.62E-10 1.44E-09 1.39E-09 1.79E-09 4.38E-09
  9.75E-09 3.96E-09 9.25E-09 3.25E-09 9.05E-09 7.48E-09 4.35E-09 9.07E-09
  4.65E-09 4.95E-09 2.00E-06
  -0.4450 -0.4400  0.0650    1  5.51191E-05 kpt; spin; max resid(k); each band:
  8.19E-10 5.93E-10 2.23E-09 4.01E-09 3.09E-09 2.35E-09 4.66E-10 7.99E-10
  5.26E-09 4.51E-09 1.97E-09 2.39E-09 2.72E-09 8.12E-10 2.76E-09 3.89E-09
  2.16E-09 5.46E-10 1.87E-09 2.40E-09 1.32E-09 5.54E-10 4.24E-09 1.77E-09
  9.93E-09 9.82E-09 6.60E-09 8.74E-09 9.46E-09 3.32E-09 8.93E-09 5.30E-09
  8.03E-09 3.83E-08 5.51E-05
   0.0550  0.0600 -0.4350    1  1.70984E-05 kpt; spin; max resid(k); each band:
  4.04E-10 3.27E-10 3.34E-09 1.42E-09 2.63E-09 3.27E-09 2.97E-09 6.53E-10
  5.38E-09 9.62E-10 4.28E-10 3.00E-09 1.40E-10 2.63E-09 5.56E-10 2.93E-10
  5.64E-09 5.10E-09 2.82E-09 2.91E-09 1.69E-09 9.36E-09 7.20E-09 3.96E-10
  7.46E-09 3.34E-09 9.06E-10 8.80E-09 1.58E-09 5.02E-09 5.82E-09 3.62E-09
  8.63E-09 9.91E-09 1.71E-05
  -0.4450  0.0600 -0.4350    1  3.44515E-06 kpt; spin; max resid(k); each band:
  8.64E-10 3.38E-10 1.03E-09 7.54E-10 6.81E-10 1.62E-09 5.29E-10 4.01E-10
  2.04E-10 6.78E-09 5.25E-09 5.15E-09 6.24E-09 3.68E-10 4.65E-09 5.72E-10
  6.58E-10 1.40E-09 6.18E-10 2.24E-09 6.13E-10 1.62E-09 3.38E-09 1.39E-09
  6.00E-09 2.59E-09 6.61E-09 7.66E-09 2.33E-09 5.76E-09 6.16E-09 5.24E-09
  9.35E-09 6.43E-09 3.45E-06
   0.0550 -0.4400 -0.4350    1  1.00976E-05 kpt; spin; max resid(k); each band:
  6.09E-10 1.52E-09 4.12E-09 2.97E-09 2.47E-09 1.98E-09 4.42E-09 3.07E-09
  2.48E-10 4.23E-10 3.47E-10 3.01E-10 2.86E-10 3.51E-10 4.47E-09 3.95E-10
  1.38E-09 1.93E-09 7.91E-10 8.04E-10 9.75E-10 4.79E-09 1.28E-09 6.78E-09
  6.28E-09 8.19E-09 2.84E-09 2.41E-09 7.91E-09 7.94E-09 9.03E-09 9.85E-09
  8.16E-09 3.32E-08 1.01E-05
  -0.4450 -0.4400 -0.4350    1  1.91676E-04 kpt; spin; max resid(k); each band:
  2.07E-09 3.90E-10 1.93E-09 4.38E-09 1.50E-09 3.72E-10 2.22E-10 3.92E-09
  7.32E-10 8.16E-10 2.12E-09 3.99E-10 2.31E-09 4.35E-10 3.90E-10 6.33E-09
  8.17E-10 2.19E-09 1.77E-09 2.72E-09 7.80E-09 1.00E-08 7.79E-09 3.08E-09
  2.85E-09 6.45E-09 5.36E-09 9.08E-09 1.29E-09 3.17E-09 2.71E-09 2.50E-09
  5.12E-09 2.54E-08 1.92E-04
 reduced coordinates (array xred) for    2 atoms
       0.000000000000      0.000000000000      0.000000000000
       0.250000000000      0.250000000000      0.250000000000

 cartesian coordinates (angstrom) at end:
    1      0.00000000000000     0.00000000000000     0.00000000000000
    2      1.35165088504101     1.35165088504101     1.35165088504101
 length scales= 10.217000000000 10.217000000000 10.217000000000 bohr
              =  5.406603540164  5.406603540164  5.406603540164 angstroms
 prteigrs : about to open file t15o_DS2_EIG
 Eigenvalues (hartree) for nkpt=   8  k points:
 kpt#   1, nband= 35, wtk=  0.12500, kpt=  0.0550  0.0600  0.0650 (reduced coord)
  -0.21791   0.20784   0.22274   0.22452   0.31889   0.32022   0.32203   0.35946
   0.50888   0.51001   0.51212   0.62425   0.64271   0.64620   0.78476   1.07322
   1.07741   1.08323   1.13957   1.14337   1.18467   1.18671   1.19561   1.31638
   1.33890   1.34350   1.51897   1.55585   1.56223   1.56663   1.66901   1.67576
   1.71134   1.71918   1.75569
 kpt#   2, nband= 35, wtk=  0.12500, kpt= -0.4450  0.0600  0.0650 (reduced coord)
  -0.12955  -0.03545   0.16607   0.17655   0.29083   0.34233   0.35260   0.50395
   0.57786   0.61659   0.63895   0.65175   0.67318   0.71373   0.93377   0.96324
   1.00374   1.03020   1.04659   1.06697   1.17811   1.19092   1.19232   1.26065
   1.26499   1.27355   1.37610   1.38246   1.41209   1.45141   1.46528   1.47648
   1.57810   1.59606   1.68117
 kpt#   3, nband= 35, wtk=  0.12500, kpt=  0.0550 -0.4400  0.0650 (reduced coord)
  -0.13016  -0.03480   0.16718   0.17659   0.29028   0.34219   0.35253   0.50344
   0.57570   0.62027   0.64147   0.64684   0.67176   0.71592   0.92662   0.97108
   0.99741   1.03069   1.04714   1.07208   1.17607   1.18869   1.19612   1.25895
   1.26860   1.27307   1.37778   1.38560   1.41011   1.45064   1.46364   1.47816
   1.57632   1.59554   1.68382
 kpt#   4, nband= 35, wtk=  0.12500, kpt= -0.4450 -0.4400  0.0650 (reduced coord)
  -0.07806  -0.04938   0.10781   0.11806   0.24475   0.25852   0.57416   0.57802
   0.62547   0.63121   0.69099   0.69620   0.72591   0.73011   0.87812   0.92722
   0.93035   0.93890   0.98750   0.99304   1.01058   1.03938   1.17414   1.20998
   1.32300   1.34931   1.42113   1.47080   1.47973   1.52538   1.53775   1.56766
   1.60373   1.61778   1.67237
 kpt#   5, nband= 35, wtk=  0.12500, kpt=  0.0550  0.0600 -0.4350 (reduced coord)
  -0.13100  -0.03392   0.16873   0.17667   0.28942   0.34222   0.35227   0.50276
   0.57349   0.62474   0.64137   0.64363   0.67033   0.71824   0.91963   0.97909
   0.99124   1.02603   1.05285   1.07707   1.17245   1.18835   1.19983   1.25834
   1.26952   1.27423   1.38279   1.38675   1.40744   1.44989   1.46653   1.47521
   1.57476   1.59417   1.68643
 kpt#   6, nband= 35, wtk=  0.12500, kpt= -0.4450  0.0600 -0.4350 (reduced coord)
  -0.08089  -0.04647   0.10925   0.11788   0.24461   0.25734   0.57196   0.57751
   0.62945   0.63660   0.68472   0.69334   0.72459   0.73314   0.87555   0.92259
   0.93159   0.93750   0.98424   0.99710   1.01503   1.04244   1.17515   1.21251
   1.32312   1.34532   1.42404   1.46437   1.48052   1.53090   1.53798   1.56726
   1.60421   1.61987   1.67828
 kpt#   7, nband= 35, wtk=  0.12500, kpt=  0.0550 -0.4400 -0.4350 (reduced coord)
  -0.08373  -0.04353   0.11061   0.11810   0.24388   0.25638   0.57196   0.57502
   0.63548   0.64050   0.68092   0.68739   0.72585   0.73331   0.87326   0.91867
   0.92744   0.93844   0.98299   1.00326   1.01749   1.04558   1.17597   1.21644
   1.32203   1.34150   1.42539   1.46207   1.47999   1.53614   1.53652   1.56934
   1.60297   1.62433   1.68403
 kpt#   8, nband= 35, wtk=  0.12500, kpt= -0.4450 -0.4400 -0.4350 (reduced coord)
  -0.13825  -0.02637   0.18073   0.18158   0.27920   0.34593   0.34677   0.49782
   0.58324   0.59011   0.61414   0.67972   0.68677   0.71357   0.88448   0.97284
   0.97916   1.02352   1.09659   1.10016   1.13574   1.21882   1.22813   1.24458
   1.25081   1.28999   1.38113   1.42145   1.42697   1.44577   1.45826   1.46358
   1.55392   1.57893   1.74724
 Total charge density [el/Bohr^3]
,     Maximum=    9.3410E-02  at reduced coord.    0.1250    0.1250    0.6250
,Next maximum=    9.3410E-02  at reduced coord.    0.1250    0.6250    0.1250
,     Minimum=    2.4438E-03  at reduced coord.    0.5000    0.5000    0.5000
,Next minimum=    2.4438E-03  at reduced coord.    0.7500    0.7500    0.7500
,  Integrated=    8.0000E+00

================================================================================
== DATASET  3 ==================================================================
-   nproc =    1

 mkfilename : getkss/=0, take file _KSS from output of DATASET   2.

 Exchange-correlation functional for the present dataset will be:
  LDA: new Teter (4/93) with spin-polarized option - ixc=1
 Citation for XC functional:
  S. Goedecker, M. Teter, J. Huetter, PRB 54, 1703 (1996)

 Exciton: Calculation of dielectric properties by solving the Bethe-Salpeter equation 
 in frequency domain and reciprocal space on a transitions basis set. 
 Based on a program developed by L. Reining, V. Olevano, F. Sottile, 
 S. Albrecht, and G. Onida. Incorporated in ABINIT by M. Giantomassi. 

.Using double precision arithmetic ; gwpc =  8

 Real(R)+Recip(G) space primitive vectors, cartesian coordinates (Bohr,Bohr^-1):
 R(1)=  0.0000000  5.1085000  5.1085000  G(1)= -0.0978761  0.0978761  0.0978761
 R(2)=  5.1085000  0.0000000  5.1085000  G(2)=  0.0978761 -0.0978761  0.0978761
 R(3)=  5.1085000  5.1085000  0.0000000  G(3)=  0.0978761  0.0978761 -0.0978761
 Unit cell volume ucvol=  2.6663072E+02 bohr^3
 Angles (23,13,12)=  6.00000000E+01  6.00000000E+01  6.00000000E+01 degrees

--- Pseudopotential description ------------------------------------------------
- pspini: atom type   1  psp file is /home/gmatteo/archives/790/gmatteo-private/tests/Psps_for_tests/14si.pspnc
- pspatm: opening atomic psp file    /home/gmatteo/archives/790/gmatteo-private/tests/Psps_for_tests/14si.pspnc
-  Troullier-Martins psp for element  Si        Thu Oct 27 17:31:21 EDT 1994
- 14.00000   4.00000    940714                znucl, zion, pspdat
    1    1    2    2      2001   0.00000      pspcod,pspxc,lmax,lloc,mmax,r2well
    0   5.907  14.692    1   2.0872718        l,e99.0,e99.9,nproj,rcpsp
   0.00000000   0.00000000   0.00000000   0.00000000     rms, ekb1, ekb2, epsatm
    1   2.617   4.181    1   2.0872718        l,e99.0,e99.9,nproj,rcpsp
   0.00000000   0.00000000   0.00000000   0.00000000     rms, ekb1, ekb2, epsatm
    2   0.000   0.000    0   2.0872718        l,e99.0,e99.9,nproj,rcpsp
   0.00000000   0.00000000   0.00000000   0.00000000     rms, ekb1, ekb2, epsatm
    1.80626423934776    0.22824404341771    1.17378968127746   rchrg,fchrg,qchrg
 pspatm: epsatm=    1.43386982
         --- l  ekb(1:nproj) -->
             0    3.287949
             1    1.849886
 pspatm: atomic psp has been read  and splines computed

--------------------------------------------------------------------------------

 ==== K-mesh for the wavefunctions ====
 Number of points in the irreducible wedge :     8
 Reduced coordinates and weights : 

     1)     5.50000000E-02  6.00000000E-02  6.50000000E-02       0.12500
     2)    -4.45000000E-01  6.00000000E-02  6.50000000E-02       0.12500
     3)     5.50000000E-02 -4.40000000E-01  6.50000000E-02       0.12500
     4)    -4.45000000E-01 -4.40000000E-01  6.50000000E-02       0.12500
     5)     5.50000000E-02  6.00000000E-02 -4.35000000E-01       0.12500
     6)    -4.45000000E-01  6.00000000E-02 -4.35000000E-01       0.12500
     7)     5.50000000E-02 -4.40000000E-01 -4.35000000E-01       0.12500
     8)    -4.45000000E-01 -4.40000000E-01 -4.35000000E-01       0.12500

 Together with 48 symmetry operations and time-reversal symmetry 
 yields     8 points in the full Brillouin Zone.


 ==== Q-mesh for the screening function ====
 Number of points in the irreducible wedge :     3
 Reduced coordinates and weights : 

     1)     0.00000000E+00  0.00000000E+00  0.00000000E+00       0.12500
     2)     5.00000000E-01  0.00000000E+00  0.00000000E+00       0.50000
     3)     5.00000000E-01  5.00000000E-01  0.00000000E+00       0.37500

 Together with 48 symmetry operations and time-reversal symmetry 
 yields     8 points in the full Brillouin Zone.


 setmesh: FFT mesh size selected  =  12x 12x 12
          total number of points  =     1728

 ==== Fundamental parameters for the solution of the Bethe-Salpeter equation: ====
 Algorithm: Haydock technique.
 Dimension of the v, W matrices,  npweps  = 51
 Cutoff for the wavefunctions,    npwwfn  = 137
 Number of k-points in the IBZ,   nkibz   = 8
 Highest empty band included,     nband   = 8
 === Spin UP ===
 Number of resonant transitions          96
 Lowest occupied state                   2
 Highest occupied state                  4
 Lowest unoccupied state                 5
 Highest unoccupied state                8
 Minimum frequency [eV]           Emin    =   0.00
 Maximum frequency [eV]           Emax    =  10.00
 Frequency step [eV]              dE      =   0.10
 Lorentzian broadening [eV]       eta     =   0.10
 RPA L0 with KS energies and KS wavefunctions
 Scissors operator energy [eV] =          0.80
 Local fields effects (v term) included
 Excitonic effects (W term) included
 Full W_GG' included
 W is approximated with the model dielectric function
 Resonant-only calculation (Hermitian case)


 Calculating epsilon_Macro(q-->0,w), along the following directions:
 q = (  0.938821  0.000000  0.000000) [r.l.u.]
 q = (  0.000000  0.938821  0.000000) [r.l.u.]
 q = (  0.000000  0.000000  0.938821) [r.l.u.]
 q = (  0.000000  0.813043  0.813043) [r.l.u.]
 q = (  0.813043  0.000000  0.813043) [r.l.u.]
 q = (  0.813043  0.813043  0.000000) [r.l.u.]

 k       eigenvalues [eV]
  1         -5.93   5.66   6.06   6.11   8.68   8.71   8.76   9.78
  2         -3.53  -0.96   4.52   4.80   7.91   9.32   9.59  13.71
  3         -3.54  -0.95   4.55   4.81   7.90   9.31   9.59  13.70
  4         -2.12  -1.34   2.93   3.21   6.66   7.03  15.62  15.73
  5         -3.56  -0.92   4.59   4.81   7.88   9.31   9.59  13.68
  6         -2.20  -1.26   2.97   3.21   6.66   7.00  15.56  15.71
  7         -2.28  -1.18   3.01   3.21   6.64   6.98  15.56  15.65
  8         -3.76  -0.72   4.92   4.94   7.60   9.41   9.44  13.55
 Number of electrons calculated from density =    7.9986; Expected =    8.0000
 average of density, n =  0.029999
 r_s =    1.9965
 omega_plasma =   16.7073 [eV]

. Writing resonant excitonic Hamiltonian on file t15o_DS3_BSR; file size=   0.00 [Gb].
 Writing KS-RPA macroscopic dielectric function without local fields to file: t15o_DS3_RPA_NLF_MDF
 Writing GW-RPA macroscopic dielectric function without local fields to file: t15o_DS3_GW_NLF_MDF
 >>> Haydock algorithm converged twice within haydock_tol=   2.00E-02 after 35 iterations.
 >>> Haydock algorithm converged twice within haydock_tol=   2.00E-02 after 39 iterations.
 >>> Haydock algorithm converged twice within haydock_tol=   2.00E-02 after 38 iterations.
 >>> Haydock algorithm converged twice within haydock_tol=   2.00E-02 after 40 iterations.
 >>> Haydock algorithm converged twice within haydock_tol=   2.00E-02 after 47 iterations.
 >>> Haydock algorithm converged twice within haydock_tol=   2.00E-02 after 40 iterations.
 Writing EXC Macroscopic dielectric function to file: t15o_DS3_EXC_MDF
  
 Macroscopic dielectric function:
 omega [eV] <KS_RPA_nlf>  <GW_RPA_nlf>  <BSE> 
   0.0000  43.4539   0.0000  34.8670   0.0000  42.4650   0.0000
   0.1000  43.4984   0.0897  34.8889   0.0439  42.5057   0.0819
   0.2000  43.6328   0.1806  34.9547   0.0883  42.6285   0.1649
   0.3000  43.8588   0.2742  35.0651   0.1333  42.8348   0.2500
   0.4000  44.1798   0.3717  35.2210   0.1795  43.1274   0.3384
   0.5000  44.6004   0.4748  35.4237   0.2273  43.5101   0.4313
   0.6000  45.1269   0.5853  35.6750   0.2771  43.9880   0.5302
   0.7000  45.7676   0.7052  35.9771   0.3294  44.5678   0.6366
   0.8000  46.5332   0.8372  36.3328   0.3848  45.2580   0.7527
   0.9000  47.4370   0.9845  36.7455   0.4440  46.0691   0.8806
  

================================================================================
== DATASET  4 ==================================================================
-   nproc =    1

 mkfilename : getden/=0, take file _DEN from output of DATASET   1.

 Exchange-correlation functional for the present dataset will be:
  LDA: new Teter (4/93) with spin-polarized option - ixc=1
 Citation for XC functional:
  S. Goedecker, M. Teter, J. Huetter, PRB 54, 1703 (1996)

 Real(R)+Recip(G) space primitive vectors, cartesian coordinates (Bohr,Bohr^-1):
 R(1)=  0.0000000  5.1085000  5.1085000  G(1)= -0.0978761  0.0978761  0.0978761
 R(2)=  5.1085000  0.0000000  5.1085000  G(2)=  0.0978761 -0.0978761  0.0978761
 R(3)=  5.1085000  5.1085000  0.0000000  G(3)=  0.0978761  0.0978761 -0.0978761
 Unit cell volume ucvol=  2.6663072E+02 bohr^3
 Angles (23,13,12)=  6.00000000E+01  6.00000000E+01  6.00000000E+01 degrees

 getcut: wavevector=  0.0000  0.0000  0.0000  ngfft=  16  16  16
         ecut(hartree)=      6.000   => boxcut(ratio)=   2.00850

--- Pseudopotential description ------------------------------------------------
- pspini: atom type   1  psp file is /home/gmatteo/archives/790/gmatteo-private/tests/Psps_for_tests/14si.pspnc
- pspatm: opening atomic psp file    /home/gmatteo/archives/790/gmatteo-private/tests/Psps_for_tests/14si.pspnc
-  Troullier-Martins psp for element  Si        Thu Oct 27 17:31:21 EDT 1994
- 14.00000   4.00000    940714                znucl, zion, pspdat
    1    1    2    2      2001   0.00000      pspcod,pspxc,lmax,lloc,mmax,r2well
    0   5.907  14.692    1   2.0872718        l,e99.0,e99.9,nproj,rcpsp
   0.00000000   0.00000000   0.00000000   0.00000000     rms, ekb1, ekb2, epsatm
    1   2.617   4.181    1   2.0872718        l,e99.0,e99.9,nproj,rcpsp
   0.00000000   0.00000000   0.00000000   0.00000000     rms, ekb1, ekb2, epsatm
    2   0.000   0.000    0   2.0872718        l,e99.0,e99.9,nproj,rcpsp
   0.00000000   0.00000000   0.00000000   0.00000000     rms, ekb1, ekb2, epsatm
    1.80626423934776    0.22824404341771    1.17378968127746   rchrg,fchrg,qchrg
 pspatm: epsatm=    1.43386982
         --- l  ekb(1:nproj) -->
             0    3.287949
             1    1.849886
 pspatm: atomic psp has been read  and splines computed

--------------------------------------------------------------------------------

P newkpt: treating     35 bands with npw=     172 for ikpt=   1 by node    0
P newkpt: treating     35 bands with npw=     185 for ikpt=   2 by node    0
P newkpt: treating     35 bands with npw=     180 for ikpt=   3 by node    0
P newkpt: treating     35 bands with npw=     185 for ikpt=   4 by node    0
P newkpt: treating     35 bands with npw=     186 for ikpt=   5 by node    0
P newkpt: treating     35 bands with npw=     187 for ikpt=   6 by node    0
P newkpt: treating     35 bands with npw=     187 for ikpt=   7 by node    0
P newkpt: treating     35 bands with npw=     188 for ikpt=   8 by node    0
P newkpt: treating     35 bands with npw=     180 for ikpt=   9 by node    0
P newkpt: treating     35 bands with npw=     186 for ikpt=  10 by node    0
P newkpt: treating     35 bands with npw=     190 for ikpt=  11 by node    0
P newkpt: treating     35 bands with npw=     189 for ikpt=  12 by node    0
P newkpt: treating     35 bands with npw=     185 for ikpt=  13 by node    0
P newkpt: treating     35 bands with npw=     187 for ikpt=  14 by node    0
P newkpt: treating     35 bands with npw=     189 for ikpt=  15 by node    0
P newkpt: treating     35 bands with npw=     182 for ikpt=  16 by node    0
P newkpt: treating     35 bands with npw=     186 for ikpt=  17 by node    0
P newkpt: treating     35 bands with npw=     187 for ikpt=  18 by node    0
P newkpt: treating     35 bands with npw=     185 for ikpt=  19 by node    0
P newkpt: treating     35 bands with npw=     187 for ikpt=  20 by node    0
P newkpt: treating     35 bands with npw=     187 for ikpt=  21 by node    0
P newkpt: treating     35 bands with npw=     186 for ikpt=  22 by node    0
P newkpt: treating     35 bands with npw=     187 for ikpt=  23 by node    0
P newkpt: treating     35 bands with npw=     191 for ikpt=  24 by node    0
P newkpt: treating     35 bands with npw=     186 for ikpt=  25 by node    0
P newkpt: treating     35 bands with npw=     188 for ikpt=  26 by node    0
P newkpt: treating     35 bands with npw=     183 for ikpt=  27 by node    0
P newkpt: treating     35 bands with npw=     191 for ikpt=  28 by node    0
P newkpt: treating     35 bands with npw=     188 for ikpt=  29 by node    0
P newkpt: treating     35 bands with npw=     191 for ikpt=  30 by node    0
P newkpt: treating     35 bands with npw=     192 for ikpt=  31 by node    0
P newkpt: treating     35 bands with npw=     186 for ikpt=  32 by node    0
P newkpt: treating     35 bands with npw=     180 for ikpt=  33 by node    0
P newkpt: treating     35 bands with npw=     185 for ikpt=  34 by node    0
P newkpt: treating     35 bands with npw=     190 for ikpt=  35 by node    0
P newkpt: treating     35 bands with npw=     190 for ikpt=  36 by node    0
P newkpt: treating     35 bands with npw=     185 for ikpt=  37 by node    0
P newkpt: treating     35 bands with npw=     190 for ikpt=  38 by node    0
P newkpt: treating     35 bands with npw=     184 for ikpt=  39 by node    0
P newkpt: treating     35 bands with npw=     193 for ikpt=  40 by node    0
P newkpt: treating     35 bands with npw=     190 for ikpt=  41 by node    0
P newkpt: treating     35 bands with npw=     184 for ikpt=  42 by node    0
P newkpt: treating     35 bands with npw=     183 for ikpt=  43 by node    0
P newkpt: treating     35 bands with npw=     191 for ikpt=  44 by node    0
P newkpt: treating     35 bands with npw=     190 for ikpt=  45 by node    0
P newkpt: treating     35 bands with npw=     193 for ikpt=  46 by node    0
P newkpt: treating     35 bands with npw=     191 for ikpt=  47 by node    0
[...]
                       3.05000000E-01  6.00000000E-02 -4.35000000E-01
                      -4.45000000E-01  6.00000000E-02 -4.35000000E-01
                      -1.95000000E-01  6.00000000E-02 -4.35000000E-01
                       5.50000000E-02  3.10000000E-01 -4.35000000E-01
                       3.05000000E-01  3.10000000E-01 -4.35000000E-01
                      -4.45000000E-01  3.10000000E-01 -4.35000000E-01
                      -1.95000000E-01  3.10000000E-01 -4.35000000E-01
                       5.50000000E-02 -4.40000000E-01 -4.35000000E-01
                       3.05000000E-01 -4.40000000E-01 -4.35000000E-01
                      -4.45000000E-01 -4.40000000E-01 -4.35000000E-01
                      -1.95000000E-01 -4.40000000E-01 -4.35000000E-01
                       5.50000000E-02 -1.90000000E-01 -4.35000000E-01
                       3.05000000E-01 -1.90000000E-01 -4.35000000E-01
                      -4.45000000E-01 -1.90000000E-01 -4.35000000E-01
                      -1.95000000E-01 -1.90000000E-01 -4.35000000E-01
                       5.50000000E-02  6.00000000E-02 -1.85000000E-01
                       3.05000000E-01  6.00000000E-02 -1.85000000E-01
              kpt7     5.50000000E-02  6.00000000E-02  6.50000000E-02
                      -4.45000000E-01  6.00000000E-02  6.50000000E-02
                       5.50000000E-02 -4.40000000E-01  6.50000000E-02
                      -4.45000000E-01 -4.40000000E-01  6.50000000E-02
                       5.50000000E-02  6.00000000E-02 -4.35000000E-01
                      -4.45000000E-01  6.00000000E-02 -4.35000000E-01
                       5.50000000E-02 -4.40000000E-01 -4.35000000E-01
                      -4.45000000E-01 -4.40000000E-01 -4.35000000E-01
              kpt8     5.50000000E-02  6.00000000E-02  6.50000000E-02
                      -4.45000000E-01  6.00000000E-02  6.50000000E-02
                       5.50000000E-02 -4.40000000E-01  6.50000000E-02
                      -4.45000000E-01 -4.40000000E-01  6.50000000E-02
                       5.50000000E-02  6.00000000E-02 -4.35000000E-01
                      -4.45000000E-01  6.00000000E-02 -4.35000000E-01
                       5.50000000E-02 -4.40000000E-01 -4.35000000E-01
                      -4.45000000E-01 -4.40000000E-01 -4.35000000E-01
                       outvar_i_n : Printing only first  50 k-points.
         kptrlatt1       2    0    0      0    2    0      0    0    2
         kptrlatt2       2    0    0      0    2    0      0    0    2
         kptrlatt3       2    0    0      0    2    0      0    0    2
         kptrlatt4       4    0    0      0    4    0      0    0    4
         kptrlatt5       2    0    0      0    2    0      0    0    2
         kptrlatt6       4    0    0      0    4    0      0    0    4
         kptrlatt7       2    0    0      0    2    0      0    0    2
         kptrlatt8       2    0    0      0    2    0      0    0    2
          kptrlen1     1.44490200E+01
          kptrlen2     1.44490200E+01
          kptrlen3     1.44490200E+01
          kptrlen4     2.88980399E+01
          kptrlen5     1.44490200E+01
          kptrlen6     2.88980399E+01
          kptrlen7     1.44490200E+01
          kptrlen8     1.44490200E+01
       mdf_epsinf1     0.00000000E+00
       mdf_epsinf2     0.00000000E+00
       mdf_epsinf3     1.20000000E+01
       mdf_epsinf4     0.00000000E+00
       mdf_epsinf5     1.20000000E+01
       mdf_epsinf6     1.20000000E+01
       mdf_epsinf7     1.20000000E+01
       mdf_epsinf8     1.20000000E+01
P           mkmem1          8
P           mkmem2          8
P           mkmem3          8
P           mkmem4         64
P           mkmem5          8
P           mkmem6         64
P           mkmem7          8
P           mkmem8          8
            natom           2
            nband1          5
            nband2         35
            nband3          8
            nband4         35
            nband5          8
            nband6          8
            nband7          8
            nband8          8
           nbdbuf1          0
           nbdbuf2          2
           nbdbuf3          0
           nbdbuf4          2
           nbdbuf5          0
           nbdbuf6          0
           nbdbuf7          0
           nbdbuf8          0
           ndtset           8
            ngfft          16      16      16
             nkpt1          8
             nkpt2          8
             nkpt3          8
             nkpt4         64
             nkpt5          8
             nkpt6         64
             nkpt7          8
             nkpt8          8
           npweps1          0
           npweps2          0
           npweps3         51
           npweps4          0
           npweps5         51
           npweps6         51
           npweps7         51
           npweps8         51
           npwwfn1          0
           npwwfn2          0
           npwwfn3        169
           npwwfn4          0
           npwwfn5        169
           npwwfn6        169
           npwwfn7        169
           npwwfn8        169
           nsheps1          0
           nsheps2          0
           nsheps3          5
           nsheps4          0
           nsheps5          5
           nsheps6          5
           nsheps7          5
           nsheps8          5
            nstep          50
             nsym          48
           ntypat           1
              occ1     2.000000  2.000000  2.000000  2.000000  0.000000
              occ3     2.000000  2.000000  2.000000  2.000000  0.000000  0.000000
                       0.000000  0.000000
              occ5     2.000000  2.000000  2.000000  2.000000  0.000000  0.000000
                       0.000000  0.000000
              occ6     2.000000  2.000000  2.000000  2.000000  0.000000  0.000000
                       0.000000  0.000000
              occ7     2.000000  2.000000  2.000000  2.000000  0.000000  0.000000
                       0.000000  0.000000
              occ8     2.000000  2.000000  2.000000  2.000000  0.000000  0.000000
                       0.000000  0.000000
        optdriver1          0
        optdriver2          0
        optdriver3         99
        optdriver4          0
        optdriver5         99
        optdriver6         99
        optdriver7         99
        optdriver8         99
            rprim      0.0000000000E+00  5.0000000000E-01  5.0000000000E-01
                       5.0000000000E-01  0.0000000000E+00  5.0000000000E-01
                       5.0000000000E-01  5.0000000000E-01  0.0000000000E+00
           shiftk1     1.10000000E-01  1.20000000E-01  1.30000000E-01
           shiftk2     1.10000000E-01  1.20000000E-01  1.30000000E-01
           shiftk3     1.10000000E-01  1.20000000E-01  1.30000000E-01
           shiftk4     2.20000000E-01  2.40000000E-01  2.60000000E-01
           shiftk5     1.10000000E-01  1.20000000E-01  1.30000000E-01
           shiftk6     2.20000000E-01  2.40000000E-01  2.60000000E-01
           shiftk7     1.10000000E-01  1.20000000E-01  1.30000000E-01
           shiftk8     1.10000000E-01  1.20000000E-01  1.30000000E-01
         soenergy1     0.00000000E+00 Hartree
         soenergy2     0.00000000E+00 Hartree
         soenergy3     2.93994603E-02 Hartree
         soenergy4     0.00000000E+00 Hartree
         soenergy5     2.93994603E-02 Hartree
         soenergy6     2.93994603E-02 Hartree
         soenergy7     2.93994603E-02 Hartree
         soenergy8     2.93994603E-02 Hartree
          spgroup         227
           strten1    -1.5207404843E-04 -1.5207404843E-04 -1.5207404843E-04
                       0.0000000000E+00  0.0000000000E+00  0.0000000000E+00
           strten3     0.0000000000E+00  0.0000000000E+00  0.0000000000E+00
                       0.0000000000E+00  0.0000000000E+00  0.0000000000E+00
           strten5     0.0000000000E+00  0.0000000000E+00  0.0000000000E+00
                       0.0000000000E+00  0.0000000000E+00  0.0000000000E+00
           strten6     0.0000000000E+00  0.0000000000E+00  0.0000000000E+00
                       0.0000000000E+00  0.0000000000E+00  0.0000000000E+00
           strten7     0.0000000000E+00  0.0000000000E+00  0.0000000000E+00
                       0.0000000000E+00  0.0000000000E+00  0.0000000000E+00
           strten8     0.0000000000E+00  0.0000000000E+00  0.0000000000E+00
                       0.0000000000E+00  0.0000000000E+00  0.0000000000E+00
           symrel      1  0  0   0  1  0   0  0  1      -1  0  0   0 -1  0   0  0 -1
                       0 -1  1   0 -1  0   1 -1  0       0  1 -1   0  1  0  -1  1  0
                      -1  0  0  -1  0  1  -1  1  0       1  0  0   1  0 -1   1 -1  0
                       0  1 -1   1  0 -1   0  0 -1       0 -1  1  -1  0  1   0  0  1
                      -1  0  0  -1  1  0  -1  0  1       1  0  0   1 -1  0   1  0 -1
                       0 -1  1   1 -1  0   0 -1  0       0  1 -1  -1  1  0   0  1  0
                       1  0  0   0  0  1   0  1  0      -1  0  0   0  0 -1   0 -1  0
                       0  1 -1   0  0 -1   1  0 -1       0 -1  1   0  0  1  -1  0  1
                      -1  0  1  -1  1  0  -1  0  0       1  0 -1   1 -1  0   1  0  0
                       0 -1  0   1 -1  0   0 -1  1       0  1  0  -1  1  0   0  1 -1
                       1  0 -1   0  0 -1   0  1 -1      -1  0  1   0  0  1   0 -1  1
                       0  1  0   0  0  1   1  0  0       0 -1  0   0  0 -1  -1  0  0
                       1  0 -1   0  1 -1   0  0 -1      -1  0  1   0 -1  1   0  0  1
                       0 -1  0   0 -1  1   1 -1  0       0  1  0   0  1 -1  -1  1  0
                      -1  0  1  -1  0  0  -1  1  0       1  0 -1   1  0  0   1 -1  0
                       0  1  0   1  0  0   0  0  1       0 -1  0  -1  0  0   0  0 -1
                       0  0 -1   0  1 -1   1  0 -1       0  0  1   0 -1  1  -1  0  1
                       1 -1  0   0 -1  1   0 -1  0      -1  1  0   0  1 -1   0  1  0
                       0  0  1   1  0  0   0  1  0       0  0 -1  -1  0  0   0 -1  0
                      -1  1  0  -1  0  0  -1  0  1       1 -1  0   1  0  0   1  0 -1
                       0  0  1   0  1  0   1  0  0       0  0 -1   0 -1  0  -1  0  0
                       1 -1  0   0 -1  0   0 -1  1      -1  1  0   0  1  0   0  1 -1
                       0  0 -1   1  0 -1   0  1 -1       0  0  1  -1  0  1   0 -1  1
                      -1  1  0  -1  0  1  -1  0  0       1 -1  0   1  0 -1   1  0  0
            tnons      0.0000000  0.0000000  0.0000000     0.2500000  0.2500000  0.2500000
                       0.0000000  0.0000000  0.0000000     0.2500000  0.2500000  0.2500000
                       0.0000000  0.0000000  0.0000000     0.2500000  0.2500000  0.2500000
                       0.0000000  0.0000000  0.0000000     0.2500000  0.2500000  0.2500000
                       0.0000000  0.0000000  0.0000000     0.2500000  0.2500000  0.2500000
                       0.0000000  0.0000000  0.0000000     0.2500000  0.2500000  0.2500000
                       0.0000000  0.0000000  0.0000000     0.2500000  0.2500000  0.2500000
                       0.0000000  0.0000000  0.0000000     0.2500000  0.2500000  0.2500000
                       0.0000000  0.0000000  0.0000000     0.2500000  0.2500000  0.2500000
                       0.0000000  0.0000000  0.0000000     0.2500000  0.2500000  0.2500000
                       0.0000000  0.0000000  0.0000000     0.2500000  0.2500000  0.2500000
                       0.0000000  0.0000000  0.0000000     0.2500000  0.2500000  0.2500000
                       0.0000000  0.0000000  0.0000000     0.2500000  0.2500000  0.2500000
                       0.0000000  0.0000000  0.0000000     0.2500000  0.2500000  0.2500000
                       0.0000000  0.0000000  0.0000000     0.2500000  0.2500000  0.2500000
                       0.0000000  0.0000000  0.0000000     0.2500000  0.2500000  0.2500000
                       0.0000000  0.0000000  0.0000000     0.2500000  0.2500000  0.2500000
                       0.0000000  0.0000000  0.0000000     0.2500000  0.2500000  0.2500000
                       0.0000000  0.0000000  0.0000000     0.2500000  0.2500000  0.2500000
                       0.0000000  0.0000000  0.0000000     0.2500000  0.2500000  0.2500000
                       0.0000000  0.0000000  0.0000000     0.2500000  0.2500000  0.2500000
                       0.0000000  0.0000000  0.0000000     0.2500000  0.2500000  0.2500000
                       0.0000000  0.0000000  0.0000000     0.2500000  0.2500000  0.2500000
                       0.0000000  0.0000000  0.0000000     0.2500000  0.2500000  0.2500000
           toldfe1     1.00000000E-06 Hartree
           toldfe2     0.00000000E+00 Hartree
           toldfe3     0.00000000E+00 Hartree
           toldfe4     0.00000000E+00 Hartree
           toldfe5     0.00000000E+00 Hartree
           toldfe6     0.00000000E+00 Hartree
           toldfe7     0.00000000E+00 Hartree
           toldfe8     0.00000000E+00 Hartree
           tolwfr1     0.00000000E+00
           tolwfr2     1.00000000E-08
           tolwfr3     0.00000000E+00
           tolwfr4     1.00000000E-08
           tolwfr5     0.00000000E+00
           tolwfr6     0.00000000E+00
           tolwfr7     0.00000000E+00
           tolwfr8     0.00000000E+00
            typat      1  1
              wtk1       0.12500    0.12500    0.12500    0.12500    0.12500    0.12500
                         0.12500    0.12500
              wtk2       0.12500    0.12500    0.12500    0.12500    0.12500    0.12500
                         0.12500    0.12500
              wtk3       0.12500    0.12500    0.12500    0.12500    0.12500    0.12500
                         0.12500    0.12500
              wtk4       0.01563    0.01563    0.01563    0.01563    0.01563    0.01563
                         0.01563    0.01563    0.01563    0.01563    0.01563    0.01563
                         0.01563    0.01563    0.01563    0.01563    0.01563    0.01563
                         0.01563    0.01563    0.01563    0.01563    0.01563    0.01563
                         0.01563    0.01563    0.01563    0.01563    0.01563    0.01563
                         0.01563    0.01563    0.01563    0.01563    0.01563    0.01563
                         0.01563    0.01563    0.01563    0.01563    0.01563    0.01563
                         0.01563    0.01563    0.01563    0.01563    0.01563    0.01563
                         0.01563    0.01563
              wtk5       0.12500    0.12500    0.12500    0.12500    0.12500    0.12500
                         0.12500    0.12500
              wtk6       0.01563    0.01563    0.01563    0.01563    0.01563    0.01563
                         0.01563    0.01563    0.01563    0.01563    0.01563    0.01563
                         0.01563    0.01563    0.01563    0.01563    0.01563    0.01563
                         0.01563    0.01563    0.01563    0.01563    0.01563    0.01563
                         0.01563    0.01563    0.01563    0.01563    0.01563    0.01563
                         0.01563    0.01563    0.01563    0.01563    0.01563    0.01563
                         0.01563    0.01563    0.01563    0.01563    0.01563    0.01563
                         0.01563    0.01563    0.01563    0.01563    0.01563    0.01563
                         0.01563    0.01563
              wtk7       0.12500    0.12500    0.12500    0.12500    0.12500    0.12500
                         0.12500    0.12500
              wtk8       0.12500    0.12500    0.12500    0.12500    0.12500    0.12500
                         0.12500    0.12500
                       outvars : Printing only first  50 k-points.
           xangst      0.0000000000E+00  0.0000000000E+00  0.0000000000E+00
                       1.3516508850E+00  1.3516508850E+00  1.3516508850E+00
            xcart      0.0000000000E+00  0.0000000000E+00  0.0000000000E+00
                       2.5542500000E+00  2.5542500000E+00  2.5542500000E+00
             xred      0.0000000000E+00  0.0000000000E+00  0.0000000000E+00
                       2.5000000000E-01  2.5000000000E-01  2.5000000000E-01
            znucl       14.00000

================================================================================


- Timing analysis has been suppressed with timopt=0



================================================================================

 Suggested references for the acknowledgment of ABINIT usage.

 The users of ABINIT have little formal obligations with respect to the ABINIT group
 (those specified in the GNU General Public License, http://www.gnu.org/copyleft/gpl.txt).
 However, it is common practice in the scientific literature,
 to acknowledge the efforts of people that have made the research possible.
 In this spirit, please find below suggested citations of work written by ABINIT developers,
 corresponding to implementations inside of ABINIT that you have used in the present run.
 Note also that it will be of great value to readers of publications presenting these results,
 to read papers enabling them to understand the theoretical formalism and details
 of the ABINIT implementation.
 For information on why they are suggested, see also http://www.abinit.org/about/?text=acknowledgments.

 [1] ABINIT : First-principles approach of materials and nanosystem properties.
 X. Gonze, B. Amadon, P.-M. Anglade, J.-M. Beuken, F. Bottin, P. Boulanger, F. Bruneval,
 D. Caliste, R. Caracas, M. Cote, T. Deutsch, L. Genovese, Ph. Ghosez, M. Giantomassi
 S. Goedecker, D.R. Hamann, P. Hermet, F. Jollet, G. Jomard, S. Leroux, M. Mancini, S. Mazevet,
 M.J.T. Oliveira, G. Onida, Y. Pouillon, T. Rangel, G.-M. Rignanese, D. Sangalli, R. Shaltaf,
 M. Torrent, M.J. Verstraete, G. Zerah, J.W. Zwanziger
 Computer Phys. Comm. 180, 2582-2615 (2009).
 Comment : the third generic paper describing the ABINIT project.
 Note that a version of this paper, that is not formatted for Computer Phys. Comm. 
 is available at http://www.abinit.org/about/ABINIT_CPC_v10.pdf .
 The licence allows the authors to put it on the Web.

 [2] A brief introduction to the ABINIT software package.
 X. Gonze, G.-M. Rignanese, M. Verstraete, J.-M. Beuken, Y. Pouillon, R. Caracas, F. Jollet,
 M. Torrent, G. Zerah, M. Mikami, Ph. Ghosez, M. Veithen, J.-Y. Raty, V. Olevano, F. Bruneval,
 L. Reining, R. Godby, G. Onida, D.R. Hamann, and D.C. Allan.
 Z. Kristallogr. 220, 558-562 (2005).
 Comment : the second generic paper describing the ABINIT project. Note that this paper
 should be cited especially if you are using the GW part of ABINIT, as several authors
 of this part are not in the list of authors of the first or third paper.
 The .pdf of the latter paper is available at http://www.abinit.org/about/zfk_0505-06_558-562.pdf.
 Note that it should not redistributed (Copyright by Oldenburg Wissenshaftverlag,
 the licence allows the authors to put it on the Web).


 And optionally :

 [3] First-principles computation of material properties : the ABINIT software project. 
 X. Gonze, J.-M. Beuken, R. Caracas, F. Detraux, M. Fuchs, G.-M. Rignanese, L. Sindic,
 M. Verstraete, G. Zerah, F. Jollet, M. Torrent, A. Roy, M. Mikami, Ph. Ghosez, J.-Y. Raty, D.C. Allan.
 Computational Materials Science 25, 478-492 (2002). http://dx.doi.org/10.1016/S0927-0256(02)00325-7
 Comment : the original paper describing the ABINIT project.

 [4] Fast radix 2, 3, 4 and 5 kernels for Fast Fourier Transformations
 on computers with overlapping multiply-add instructions.
 S. Goedecker, SIAM J. on Scientific Computing 18, 1605 (1997).
-
- Proc.   0 individual time (sec): cpu=         64.4  wall=         64.4

================================================================================

 Calculation completed.
.Delivered   48 WARNINGs and  23 COMMENTs to log file.
+Overall time at end (sec) : cpu=         64.4  wall=         64.4
