
.Version 7.9.3 of ABINIT 
.(MPI version, prepared for a x86_64_linux_gnu4.7 computer) 

.Copyright (C) 1998-2014 ABINIT group . 
 ABINIT comes with ABSOLUTELY NO WARRANTY.
 It is free software, and you are welcome to redistribute it
 under certain conditions (GNU General Public License,
 see ~abinit/COPYING or http://www.gnu.org/copyleft/gpl.txt).

 ABINIT is a project of the Universite Catholique de Louvain,
 Corning Inc. and other collaborators, see ~abinit/doc/developers/contributors.txt .
 Please read ~abinit/doc/users/acknowledgments.html for suggested
 acknowledgments of the ABINIT effort.
 For more information, see http://www.abinit.org .

.Starting date : Sat 30 Aug 2014.
- ( at 22h44 )
  
- input  file    -> t28.in
- output file    -> t28.out
- root for input  files -> t28i
- root for output files -> t28o


 DATASET    1 : space group Fm -3 m (#225); Bravais cF (face-center cubic)
================================================================================
 Values of the parameters that define the memory need for DATASET  1.
   intxc =         0  ionmov =         0    iscf =         7 xclevel =         1
  lmnmax =         2   lnmax =         2   mband =        17  mffmem =         1
P  mgfft =         8   mkmem =         2 mpssoang=         3     mpw =        22
  mqgrid =      3001   natom =         1    nfft =       512    nkpt =         2
  nloalg =         4  nspden =         1 nspinor =         1  nsppol =         1
    nsym =        48  n1xccc =      2501  ntypat =         1  occopt =         4
================================================================================
P This job should need less than                       1.488 Mbytes of memory.
  Rough estimation (10% accuracy) of disk space for files :
_ WF disk file :      0.013 Mbytes ; DEN or POT disk file :      0.006 Mbytes.
================================================================================


 DATASET    2 : space group Fm -3 m (#225); Bravais cF (face-center cubic)
================================================================================
 Values of the parameters that define the memory need for DATASET  2.
   intxc =         0  ionmov =         0    iscf =         7 xclevel =         1
  lmnmax =         2   lnmax =         2   mband =        10  mffmem =         1
P  mgfft =        16   mkmem =         2 mpssoang=         3     mpw =       188
  mqgrid =      3001   natom =         1    nfft =      4096    nkpt =         2
  nloalg =         4  nspden =         1 nspinor =         1  nsppol =         1
    nsym =        48  n1xccc =      2501  ntypat =         1  occopt =         4
================================================================================
P This job should need less than                       2.536 Mbytes of memory.
  Rough estimation (10% accuracy) of disk space for files :
_ WF disk file :      0.059 Mbytes ; DEN or POT disk file :      0.033 Mbytes.
================================================================================


 DATASET    3 : space group Fm -3 m (#225); Bravais cF (face-center cubic)
================================================================================
 Values of the parameters that define the memory need for DATASET  3.
   intxc =         0  ionmov =         0    iscf =         7 xclevel =         1
  lmnmax =         2   lnmax =         2   mband =         5  mffmem =         1
P  mgfft =        16   mkmem =         2 mpssoang=         3     mpw =       188
  mqgrid =      3001   natom =         1    nfft =      4096    nkpt =         2
  nloalg =         4  nspden =         1 nspinor =         1  nsppol =         1
    nsym =        48  n1xccc =      2501  ntypat =         1  occopt =         4
================================================================================
P This job should need less than                       2.503 Mbytes of memory.
  Rough estimation (10% accuracy) of disk space for files :
_ WF disk file :      0.031 Mbytes ; DEN or POT disk file :      0.033 Mbytes.
================================================================================


 DATASET    4 : space group Fm -3 m (#225); Bravais cF (face-center cubic)
================================================================================
 Values of the parameters that define the memory need for DATASET  4.
   intxc =         0  ionmov =         0    iscf =         7 xclevel =         1
  lmnmax =         2   lnmax =         2   mband =        17  mffmem =         1
P  mgfft =         8   mkmem =         2 mpssoang=         3     mpw =        22
  mqgrid =      3001   natom =         1    nfft =       512    nkpt =         2
  nloalg =         4  nspden =         1 nspinor =         1  nsppol =         1
    nsym =        48  n1xccc =      2501  ntypat =         1  occopt =         4
================================================================================
P This job should need less than                       1.488 Mbytes of memory.
  Rough estimation (10% accuracy) of disk space for files :
_ WF disk file :      0.013 Mbytes ; DEN or POT disk file :      0.006 Mbytes.
================================================================================


 DATASET    5 : space group Fm -3 m (#225); Bravais cF (face-center cubic)
================================================================================
 Values of the parameters that define the memory need for DATASET  5.
   intxc =         0  ionmov =         0    iscf =         7 xclevel =         1
  lmnmax =         2   lnmax =         2   mband =        10  mffmem =         1
P  mgfft =        16   mkmem =         2 mpssoang=         3     mpw =       188
  mqgrid =      3001   natom =         1    nfft =      4096    nkpt =         2
  nloalg =         4  nspden =         1 nspinor =         1  nsppol =         1
    nsym =        48  n1xccc =      2501  ntypat =         1  occopt =         4
================================================================================
P This job should need less than                       2.536 Mbytes of memory.
  Rough estimation (10% accuracy) of disk space for files :
_ WF disk file :      0.059 Mbytes ; DEN or POT disk file :      0.033 Mbytes.
================================================================================


 DATASET    6 : space group Fm -3 m (#225); Bravais cF (face-center cubic)
================================================================================
 Values of the parameters that define the memory need for DATASET  6.
   intxc =         0  ionmov =         0    iscf =         7 xclevel =         1
  lmnmax =         2   lnmax =         2   mband =         7  mffmem =         1
P  mgfft =        16   mkmem =         2 mpssoang=         3     mpw =       188
  mqgrid =      3001   natom =         1    nfft =      4096    nkpt =         2
  nloalg =         4  nspden =         1 nspinor =         1  nsppol =         1
    nsym =        48  n1xccc =      2501  ntypat =         1  occopt =         4
================================================================================
P This job should need less than                       2.516 Mbytes of memory.
  Rough estimation (10% accuracy) of disk space for files :
_ WF disk file :      0.042 Mbytes ; DEN or POT disk file :      0.033 Mbytes.
================================================================================

--------------------------------------------------------------------------------
------------- Echo of variables that govern the present computation ------------
--------------------------------------------------------------------------------
-
- outvars: echo of selected default values                                      
-   accesswff0 =  0 , fftalg0 =112 , wfoptalg0 =  0
-
- outvars: echo of global parameters not present in the input file              
-  max_nthreads =    0
-
 -outvars: echo values of preprocessed input variables --------
            acell      7.6000000000E+00  7.6000000000E+00  7.6000000000E+00 Bohr
              amu      2.69815390E+01
             bdgw3          2       3
             bdgw6          2       3
             ecut1     2.50000000E+00 Hartree
             ecut2     1.09358498E+01 Hartree
             ecut3     1.09358498E+01 Hartree
             ecut4     2.50000000E+00 Hartree
             ecut5     1.09358498E+01 Hartree
             ecut6     1.09358498E+01 Hartree
          ecuteps1     0.00000000E+00 Hartree
          ecuteps2     1.02523591E+00 Hartree
          ecuteps3     0.00000000E+00 Hartree
          ecuteps4     0.00000000E+00 Hartree
          ecuteps5     1.02523591E+00 Hartree
          ecuteps6     0.00000000E+00 Hartree
         ecutsigx1     0.00000000E+00 Hartree
         ecutsigx2     0.00000000E+00 Hartree
         ecutsigx3     2.73396244E+00 Hartree
         ecutsigx4     0.00000000E+00 Hartree
         ecutsigx5     0.00000000E+00 Hartree
         ecutsigx6     2.73396244E+00 Hartree
          ecutwfn1     1.09358498E+01 Hartree
          ecutwfn2     1.09358498E+01 Hartree
          ecutwfn3     1.09358498E+01 Hartree
          ecutwfn4     1.09358498E+01 Hartree
          ecutwfn5     1.09358498E+01 Hartree
          ecutwfn6     1.09358498E+01 Hartree
-          fftalg         112
           getkss1          0
           getkss2         -1
           getkss3         -2
           getkss4          0
           getkss5         -1
           getkss6         -2
           getscr1          0
           getscr2          0
           getscr3         -1
           getscr4          0
           getscr5          0
           getscr6         -1
           gw_eet1         -1
           gw_eet2          2
           gw_eet3          2
           gw_eet4         -1
           gw_eet5          1
           gw_eet6          1
   gw_eet_inclvkb1          0
   gw_eet_inclvkb2          0
   gw_eet_inclvkb3          0
   gw_eet_inclvkb4          0
   gw_eet_inclvkb5          1
   gw_eet_inclvkb6          1
     gw_eet_nband1         -1
     gw_eet_nband2         -1
     gw_eet_nband3         -1
     gw_eet_nband4         -1
     gw_eet_nband5          8
     gw_eet_nband6          6
         icutcoul1          6
         icutcoul2          6
         icutcoul3          3
         icutcoul4          6
         icutcoul5          6
         icutcoul6          3
          inclvkb1          1
          inclvkb2          2
          inclvkb3          1
          inclvkb4          1
          inclvkb5          0
          inclvkb6          1
           jdtset        1    2    3    4    5    6
              kpt     -2.50000000E-01  5.00000000E-01  0.00000000E+00
                      -2.50000000E-01  0.00000000E+00  0.00000000E+00
            kptgw3     2.50000000E-01  7.50000000E-01  2.50000000E-01
            kptgw6     2.50000000E-01  7.50000000E-01  2.50000000E-01
         kptrlatt        2   -2    2     -2    2    2     -2   -2    2
          kptrlen      1.52000000E+01
          kssform1          3
          kssform2          1
          kssform3          1
          kssform4          3
          kssform5          1
          kssform6          1
P           mkmem           2
            natom           1
            nband1         17
            nband2         10
            nband3          5
            nband4         17
            nband5         10
            nband6          7
         nbandkss1         12
         nbandkss2          0
         nbandkss3          0
         nbandkss4         12
         nbandkss5          0
         nbandkss6          0
           nbdbuf1          5
           nbdbuf2          0
           nbdbuf3          0
           nbdbuf4          5
           nbdbuf5          0
           nbdbuf6          0
           ndtset           6
            ngfft1          8       8       8
            ngfft2         16      16      16
            ngfft3         16      16      16
            ngfft4          8       8       8
            ngfft5         16      16      16
            ngfft6         16      16      16
             nkpt           2
           nkptgw1          0
           nkptgw2          0
           nkptgw3          1
           nkptgw4          0
           nkptgw5          0
           nkptgw6          1
           npweps1          0
           npweps2          9
           npweps3          0
           npweps4          0
           npweps5          9
           npweps6          0
          npwsigx1          0
          npwsigx2          0
          npwsigx3         27
          npwsigx4          0
          npwsigx5          0
          npwsigx6         27
           npwwfn1          0
           npwwfn2        181
           npwwfn3        181
           npwwfn4          0
           npwwfn5        181
           npwwfn6        181
           nsheps1          0
           nsheps2          2
           nsheps3          0
           nsheps4          0
           nsheps5          2
           nsheps6          0
          nshsigx1          0
          nshsigx2          0
          nshsigx3          4
          nshsigx4          0
          nshsigx5          0
          nshsigx6          4
            nstep1         20
            nstep2         30
            nstep3         30
            nstep4         20
            nstep5         30
            nstep6         30
             nsym          48
           ntypat           1
              occ1     2.000000  1.000000  0.000000  0.000000  0.000000  0.000000
                       0.000000  0.000000  0.000000  0.000000  0.000000  0.000000
                       0.000000  0.000000  0.000000  0.000000  0.000000
                       2.000000  1.000000  0.000000  0.000000  0.000000  0.000000
                       0.000000  0.000000  0.000000  0.000000  0.000000  0.000000
                       0.000000  0.000000  0.000000  0.000000  0.000000
              occ2     2.000000  1.000000  0.000000  0.000000  0.000000  0.000000
                       0.000000  0.000000  0.000000  0.000000
                       2.000000  1.000000  0.000000  0.000000  0.000000  0.000000
                       0.000000  0.000000  0.000000  0.000000
              occ3     2.000000  1.000000  0.000000  0.000000  0.000000
                       2.000000  1.000000  0.000000  0.000000  0.000000
              occ4     2.000000  1.000000  0.000000  0.000000  0.000000  0.000000
                       0.000000  0.000000  0.000000  0.000000  0.000000  0.000000
                       0.000000  0.000000  0.000000  0.000000  0.000000
                       2.000000  1.000000  0.000000  0.000000  0.000000  0.000000
                       0.000000  0.000000  0.000000  0.000000  0.000000  0.000000
                       0.000000  0.000000  0.000000  0.000000  0.000000
              occ5     2.000000  1.000000  0.000000  0.000000  0.000000  0.000000
                       0.000000  0.000000  0.000000  0.000000
                       2.000000  1.000000  0.000000  0.000000  0.000000  0.000000
                       0.000000  0.000000  0.000000  0.000000
              occ6     2.000000  1.000000  0.000000  0.000000  0.000000  0.000000
                       0.000000
                       2.000000  1.000000  0.000000  0.000000  0.000000  0.000000
                       0.000000
           occopt           4
        optdriver1          0
        optdriver2          3
        optdriver3          4
        optdriver4          0
        optdriver5          3
        optdriver6          4
            rprim      0.0000000000E+00  5.0000000000E-01  5.0000000000E-01
                       5.0000000000E-01  0.0000000000E+00  5.0000000000E-01
                       5.0000000000E-01  5.0000000000E-01  0.0000000000E+00
           shiftk      5.00000000E-01  5.00000000E-01  5.00000000E-01
          spgroup         225
        symmorphi1          0
        symmorphi2          0
        symmorphi3          0
        symmorphi4          1
        symmorphi5          1
        symmorphi6          1
           symrel      1  0  0   0  1  0   0  0  1      -1  0  0   0 -1  0   0  0 -1
                       0 -1  1   0 -1  0   1 -1  0       0  1 -1   0  1  0  -1  1  0
                      -1  0  0  -1  0  1  -1  1  0       1  0  0   1  0 -1   1 -1  0
                       0  1 -1   1  0 -1   0  0 -1       0 -1  1  -1  0  1   0  0  1
                      -1  0  0  -1  1  0  -1  0  1       1  0  0   1 -1  0   1  0 -1
                       0 -1  1   1 -1  0   0 -1  0       0  1 -1  -1  1  0   0  1  0
                       1  0  0   0  0  1   0  1  0      -1  0  0   0  0 -1   0 -1  0
                       0  1 -1   0  0 -1   1  0 -1       0 -1  1   0  0  1  -1  0  1
                      -1  0  1  -1  1  0  -1  0  0       1  0 -1   1 -1  0   1  0  0
                       0 -1  0   1 -1  0   0 -1  1       0  1  0  -1  1  0   0  1 -1
                       1  0 -1   0  0 -1   0  1 -1      -1  0  1   0  0  1   0 -1  1
                       0  1  0   0  0  1   1  0  0       0 -1  0   0  0 -1  -1  0  0
                       1  0 -1   0  1 -1   0  0 -1      -1  0  1   0 -1  1   0  0  1
                       0 -1  0   0 -1  1   1 -1  0       0  1  0   0  1 -1  -1  1  0
                      -1  0  1  -1  0  0  -1  1  0       1  0 -1   1  0  0   1 -1  0
                       0  1  0   1  0  0   0  0  1       0 -1  0  -1  0  0   0  0 -1
                       0  0 -1   0  1 -1   1  0 -1       0  0  1   0 -1  1  -1  0  1
                       1 -1  0   0 -1  1   0 -1  0      -1  1  0   0  1 -1   0  1  0
                       0  0  1   1  0  0   0  1  0       0  0 -1  -1  0  0   0 -1  0
                      -1  1  0  -1  0  0  -1  0  1       1 -1  0   1  0  0   1  0 -1
                       0  0  1   0  1  0   1  0  0       0  0 -1   0 -1  0  -1  0  0
                       1 -1  0   0 -1  0   0 -1  1      -1  1  0   0  1  0   0  1 -1
                       0  0 -1   1  0 -1   0  1 -1       0  0  1  -1  0  1   0 -1  1
                      -1  1  0  -1  0  1  -1  0  0       1 -1  0   1  0 -1   1  0  0
           tolwfr      1.00000000E-16
            typat      1
              wtk        0.75000    0.25000
            znucl       13.00000

================================================================================

 chkinp: Checking input parameters for consistency, jdtset=   1.

 chkinp: Checking input parameters for consistency, jdtset=   2.

 chkinp: Checking input parameters for consistency, jdtset=   3.

 chkinp: Checking input parameters for consistency, jdtset=   4.

 chkinp: Checking input parameters for consistency, jdtset=   5.

 chkinp: Checking input parameters for consistency, jdtset=   6.

================================================================================
== DATASET  1 ==================================================================
-   nproc =    1

 Exchange-correlation functional for the present dataset will be:
  LDA: new Teter (4/93) with spin-polarized option - ixc=1
 Citation for XC functional:
  S. Goedecker, M. Teter, J. Huetter, PRB 54, 1703 (1996)

 Real(R)+Recip(G) space primitive vectors, cartesian coordinates (Bohr,Bohr^-1):
 R(1)=  0.0000000  3.8000000  3.8000000  G(1)= -0.1315789  0.1315789  0.1315789
 R(2)=  3.8000000  0.0000000  3.8000000  G(2)=  0.1315789 -0.1315789  0.1315789
 R(3)=  3.8000000  3.8000000  0.0000000  G(3)=  0.1315789  0.1315789 -0.1315789
 Unit cell volume ucvol=  1.0974400E+02 bohr^3
 Angles (23,13,12)=  6.00000000E+01  6.00000000E+01  6.00000000E+01 degrees

 getcut: wavevector=  0.0000  0.0000  0.0000  ngfft=   8   8   8
         ecut(hartree)=      2.500   => boxcut(ratio)=   2.09149

--- Pseudopotential description ------------------------------------------------
- pspini: atom type   1  psp file is /home/gonze/ABINIT/ABINITv7.9.3/trunk/7.9.3-private/tests/Psps_for_tests/13al.pspnc
- pspatm: opening atomic psp file    /home/gonze/ABINIT/ABINITv7.9.3/trunk/7.9.3-private/tests/Psps_for_tests/13al.pspnc
-  Troullier-Martins psp for element  Al        Thu Oct 27 17:31:05 EDT 1994
- 13.00000   3.00000    940714                znucl, zion, pspdat
    1    1    2    2      2001   0.00000      pspcod,pspxc,lmax,lloc,mmax,r2well
    0   4.657  11.889    1   2.2761078        l,e99.0,e99.9,nproj,rcpsp
   0.00000000   0.00000000   0.00000000   0.00000000     rms, ekb1, ekb2, epsatm
    1   1.829   2.761    1   2.2761078        l,e99.0,e99.9,nproj,rcpsp
   0.00000000   0.00000000   0.00000000   0.00000000     rms, ekb1, ekb2, epsatm
    2   0.000   0.000    0   2.2761078        l,e99.0,e99.9,nproj,rcpsp
   0.00000000   0.00000000   0.00000000   0.00000000     rms, ekb1, ekb2, epsatm
    2.09673076353074    0.12648111154518    1.01742091001718   rchrg,fchrg,qchrg
 pspatm: epsatm=    0.22155260
         --- l  ekb(1:nproj) -->
             0    2.540658
             1    1.353815
 pspatm: atomic psp has been read  and splines computed

   6.64657794E-01                                ecore*ucvol(ha*bohr**3)
--------------------------------------------------------------------------------

P newkpt: treating     17 bands with npw=      22 for ikpt=   1 by node    0
P newkpt: treating     17 bands with npw=      18 for ikpt=   2 by node    0

_setup2: Arith. and geom. avg. npw (full set) are      21.000      20.924

================================================================================

     iter   Etot(hartree)      deltaE(h)  residm     vres2
 ETOT  1  -2.4097739360496    -2.410E+00 1.689E-01 1.714E-01
 ETOT  2  -2.4103359126309    -5.620E-04 1.004E-09 6.987E-03
 ETOT  3  -2.4103612712379    -2.536E-05 1.106E-05 1.012E-05
 ETOT  4  -2.4103612987638    -2.753E-08 1.093E-08 5.540E-08
 ETOT  5  -2.4103612989783    -2.146E-10 9.574E-11 1.832E-10
 ETOT  6  -2.4103612989791    -7.434E-13 3.543E-13 1.351E-12
 ETOT  7  -2.4103612989791    -1.776E-15 2.631E-15 5.734E-15
 ETOT  8  -2.4103612989791    -2.709E-14 1.225E-17 1.211E-17

 At SCF step    8   max residual=  1.23E-17 < tolwfr=  1.00E-16 =>converged.

 Cartesian components of stress tensor (hartree/bohr^3)
  sigma(1 1)=  1.50605555E-04  sigma(3 2)=  0.00000000E+00
  sigma(2 2)=  1.50605555E-04  sigma(3 1)=  0.00000000E+00
  sigma(3 3)=  1.50605555E-04  sigma(2 1)=  0.00000000E+00


======================================================================
 Calculating and writing out Kohn-Sham electronic Structure file
 Using conjugate gradient wavefunctions and energies (kssform=3)
 number of Gamma centered plane waves     59
 number of Gamma centered shells      6
 number of bands     12
 maximum angular momentum components      3
 Conjugate gradient eigenvalues
   k    eigenvalues [Hartree]
   1      0.1076  0.2681  0.4347  0.5523  0.6333  0.9008  1.0214  1.1138  1.2393
          1.3154  1.4546  1.5186
   2     -0.0521  0.4279  0.7067  0.7067  0.8344  0.8688  0.8688  0.9896  1.0308
          1.0308  1.2044  1.4309
 Test on the normalization of the wavefunctions
  min sum_G |a(n,k,G)| =  1.000000
  max sum_G |a(n,k,G)| =  1.000000
 Test on the orthogonalization of the wavefunctions
  min sum_G a(n,k,G)a(n',k,G) =  0.000000
  max sum_G a(n,k,G)a(n',k,G) =  0.000000

================================================================================

 ----iterations are completed or convergence reached----

 Mean square residual over all n,k,spin=   4.6765E-18; max=  9.5165E-18
  -0.2500  0.5000  0.0000    1  9.51647E-18 kpt; spin; max resid(k); each band:
  6.68E-18 5.49E-18 7.25E-18 4.03E-18 7.50E-18 5.62E-18 1.50E-18 7.36E-18
  1.81E-18 7.84E-19 8.04E-18 2.51E-18 9.46E-18 1.61E-18 9.52E-18 2.12E-18
  2.07E-18
  -0.2500  0.0000  0.0000    1  1.22527E-17 kpt; spin; max resid(k); each band:
  7.79E-18 5.16E-18 2.80E-18 2.80E-18 8.03E-18 1.47E-18 1.47E-18 5.24E-18
  1.46E-18 1.46E-18 1.16E-17 1.23E-17 1.04E-18 1.04E-18 9.40E-18 1.31E-18
  1.31E-18
 reduced coordinates (array xred) for    1 atoms
       0.000000000000      0.000000000000      0.000000000000
 rms dE/dt=  0.0000E+00; max dE/dt=  0.0000E+00; dE/dt below (all hartree)
    1       0.000000000000      0.000000000000      0.000000000000

 cartesian coordinates (angstrom) at end:
    1      0.00000000000000     0.00000000000000     0.00000000000000

 cartesian forces (hartree/bohr) at end:
    1     -0.00000000000000    -0.00000000000000    -0.00000000000000
 frms,max,avg= 0.0000000E+00 0.0000000E+00   0.000E+00  0.000E+00  0.000E+00 h/b

 cartesian forces (eV/Angstrom) at end:
    1     -0.00000000000000    -0.00000000000000    -0.00000000000000
 frms,max,avg= 0.0000000E+00 0.0000000E+00   0.000E+00  0.000E+00  0.000E+00 e/A
 length scales=  7.600000000000  7.600000000000  7.600000000000 bohr
              =  4.021746785284  4.021746785284  4.021746785284 angstroms
 prteigrs : about to open file t28o_DS1_EIG
 Fermi (or HOMO) energy (hartree) =   0.27940   Average Vxc (hartree)=  -0.37378
 Eigenvalues (hartree) for nkpt=   2  k points:
 kpt#   1, nband= 17, wtk=  0.75000, kpt= -0.2500  0.5000  0.0000 (reduced coord)
   0.10762   0.26812   0.43466   0.55231   0.63329   0.90077   1.02139   1.11379
   1.23926   1.31543   1.45462   1.51860   1.61351   1.71639   1.74243   1.86984
   1.92913
      occupation numbers for kpt#   1
   2.00000   1.33333   0.00000   0.00000   0.00000   0.00000   0.00000   0.00000
   0.00000   0.00000   0.00000   0.00000   0.00000   0.00000   0.00000   0.00000
   0.00000
 kpt#   2, nband= 17, wtk=  0.25000, kpt= -0.2500  0.0000  0.0000 (reduced coord)
  -0.05206   0.42790   0.70670   0.70670   0.83441   0.86881   0.86881   0.98957
   1.03083   1.03083   1.20443   1.43087   1.53141   1.53141   1.67214   1.85857
   1.85857
      occupation numbers for kpt#   2
   2.00000   0.00000   0.00000   0.00000   0.00000   0.00000   0.00000   0.00000
   0.00000   0.00000   0.00000   0.00000   0.00000   0.00000   0.00000   0.00000
   0.00000
 Total charge density [el/Bohr^3]
,     Maximum=    3.2142E-02  at reduced coord.    0.0000    0.5000    0.5000
,Next maximum=    3.2142E-02  at reduced coord.    0.5000    0.0000    0.5000
,     Minimum=    1.1233E-02  at reduced coord.    0.0000    0.0000    0.0000
,Next minimum=    1.5930E-02  at reduced coord.    0.1250    0.0000    0.0000
,  Integrated=    3.0000E+00

--------------------------------------------------------------------------------
 Components of total free energy (in Hartree) :

    Kinetic energy  =  8.26628391197228E-01
    Hartree energy  =  3.10783389773016E-03
    XC energy       = -1.21052573647119E+00
    Ewald energy    = -2.71472096493581E+00
    PspCore energy  =  6.05643856608109E-03
    Loc. psp. energy=  1.38759182724465E-01
    NL   psp  energy=  5.46710173468049E-01
    >>>>> Internal E= -2.40398468155345E+00

    -kT*entropy     = -6.37661742565965E-03
    >>>>>>>>> Etotal= -2.41036129897911E+00

 Other information on the energy :
    Total energy(eV)= -6.55892665478087E+01 ; Band energy (Ha)=   4.0352250082E-01
--------------------------------------------------------------------------------

 Cartesian components of stress tensor (hartree/bohr^3)
  sigma(1 1)=  1.50605555E-04  sigma(3 2)=  0.00000000E+00
  sigma(2 2)=  1.50605555E-04  sigma(3 1)=  0.00000000E+00
  sigma(3 3)=  1.50605555E-04  sigma(2 1)=  0.00000000E+00

-Cartesian components of stress tensor (GPa)         [Pressure= -4.4310E+00 GPa]
- sigma(1 1)=  4.43096766E+00  sigma(3 2)=  0.00000000E+00
- sigma(2 2)=  4.43096766E+00  sigma(3 1)=  0.00000000E+00
- sigma(3 3)=  4.43096766E+00  sigma(2 1)=  0.00000000E+00

================================================================================
== DATASET  2 ==================================================================
-   nproc =    1

 mkfilename : getkss/=0, take file _KSS from output of DATASET   1.

 Exchange-correlation functional for the present dataset will be:
  LDA: new Teter (4/93) with spin-polarized option - ixc=1
 Citation for XC functional:
  S. Goedecker, M. Teter, J. Huetter, PRB 54, 1703 (1996)

 SCREENING: Calculation of the susceptibility and dielectric matrices 

 Based on a program developped by R.W. Godby, V. Olevano, G. Onida, and L. Reining.
 Incorporated in ABINIT by V. Olevano, G.-M. Rignanese, and M. Torrent.
.Using double precision arithmetic ; gwpc =  8

 Real(R)+Recip(G) space primitive vectors, cartesian coordinates (Bohr,Bohr^-1):
 R(1)=  0.0000000  3.8000000  3.8000000  G(1)= -0.1315789  0.1315789  0.1315789
 R(2)=  3.8000000  0.0000000  3.8000000  G(2)=  0.1315789 -0.1315789  0.1315789
 R(3)=  3.8000000  3.8000000  0.0000000  G(3)=  0.1315789  0.1315789 -0.1315789
 Unit cell volume ucvol=  1.0974400E+02 bohr^3
 Angles (23,13,12)=  6.00000000E+01  6.00000000E+01  6.00000000E+01 degrees

--- Pseudopotential description ------------------------------------------------
- pspini: atom type   1  psp file is /home/gonze/ABINIT/ABINITv7.9.3/trunk/7.9.3-private/tests/Psps_for_tests/13al.pspnc
- pspatm: opening atomic psp file    /home/gonze/ABINIT/ABINITv7.9.3/trunk/7.9.3-private/tests/Psps_for_tests/13al.pspnc
-  Troullier-Martins psp for element  Al        Thu Oct 27 17:31:05 EDT 1994
- 13.00000   3.00000    940714                znucl, zion, pspdat
    1    1    2    2      2001   0.00000      pspcod,pspxc,lmax,lloc,mmax,r2well
    0   4.657  11.889    1   2.2761078        l,e99.0,e99.9,nproj,rcpsp
   0.00000000   0.00000000   0.00000000   0.00000000     rms, ekb1, ekb2, epsatm
    1   1.829   2.761    1   2.2761078        l,e99.0,e99.9,nproj,rcpsp
   0.00000000   0.00000000   0.00000000   0.00000000     rms, ekb1, ekb2, epsatm
    2   0.000   0.000    0   2.2761078        l,e99.0,e99.9,nproj,rcpsp
   0.00000000   0.00000000   0.00000000   0.00000000     rms, ekb1, ekb2, epsatm
    2.09673076353074    0.12648111154518    1.01742091001718   rchrg,fchrg,qchrg
 pspatm: epsatm=    0.22155260
         --- l  ekb(1:nproj) -->
             0    2.540658
             1    1.353815
 pspatm: atomic psp has been read  and splines computed

--------------------------------------------------------------------------------

 ==== K-mesh for the wavefunctions ====
 Number of points in the irreducible wedge :     2
 Reduced coordinates and weights : 

     1)    -2.50000000E-01  5.00000000E-01  0.00000000E+00       0.75000
     2)    -2.50000000E-01  0.00000000E+00  0.00000000E+00       0.25000

 Together with 24 symmetry operations and time-reversal symmetry 
 yields    32 points in the full Brillouin Zone.


 ==== Q-mesh for the screening function ====
 Number of points in the irreducible wedge :     6
 Reduced coordinates and weights : 

     1)     0.00000000E+00  0.00000000E+00  0.00000000E+00       0.03125
     2)    -2.50000000E-01  0.00000000E+00  2.50000000E-01       0.37500
     3)     0.00000000E+00 -2.50000000E-01 -2.50000000E-01       0.18750
     4)    -2.50000000E-01  5.00000000E-01  2.50000000E-01       0.18750
     5)     5.00000000E-01  5.00000000E-01  5.00000000E-01       0.12500
     6)     5.00000000E-01  0.00000000E+00  5.00000000E-01       0.09375

 Together with 24 symmetry operations and time-reversal symmetry 
 yields    32 points in the full Brillouin Zone.


 setmesh: FFT mesh size selected  =   8x  8x  8
          total number of points  =      512


 screening : taking advantage of time-reversal symmetry 
 Maximum band index for partially occupied states nbvw =     3
 Remaining bands to be divided among processors   nbcw =     7
P Number of bands treated by each node ~    7

 k       eigenvalues [eV]
  1          2.93   7.30  11.83  15.03  17.23  24.51  27.79  30.31  33.72  35.79

  2         -1.42  11.64  19.23  19.23  22.71  23.64  23.64  26.93  28.05  28.05

 Number of electrons calculated from density =    3.0000; Expected =    3.0000
 average of density, n =  0.027336
 r_s =    2.0593
 omega_plasma =   15.9487 [eV]


 calculating chi0 at frequencies [eV] :
  1    0.000000E+00    0.000000E+00
  2    0.000000E+00    1.594872E+01


--------------------------------------------------------------------------------
  q-point number  1        q = ( 0.000000, 0.000000, 0.000000) [r.l.u.]
--------------------------------------------------------------------------------
  chi0(G,G') at the    1 th omega   0.0000   0.0000 [eV]
       1       2       3       4       5       6       7       8       9
    1  -0.000   0.000  -0.000  -0.000   0.000   0.000  -0.000  -0.000   0.000
       -0.000  -0.000   0.000   0.000  -0.000  -0.000   0.000   0.000  -0.000

    2   0.000  -6.497   0.037   0.186   0.249   0.186   0.249   0.186   0.249
        0.000   0.000  -0.000  -0.000  -0.000  -0.000  -0.000  -0.000  -0.000

  chi0(G,G') at the    2 th omega   0.0000  15.9487 [eV]
       1       2       3       4       5       6       7       8       9
    1  -0.000   0.000  -0.000  -0.000   0.000   0.000  -0.000  -0.000   0.000
        0.000  -0.000   0.000   0.000  -0.000  -0.000   0.000   0.000  -0.000

    2   0.000  -3.574  -0.000   0.083   0.185   0.083   0.185   0.083   0.185
        0.000   0.000  -0.000  -0.000  -0.000  -0.000  -0.000  -0.000  -0.000

 For q-point:  0.000010 0.000020 0.000030
  dielectric constant =   1.2809
  dielectric constant without local fields =   1.2988

  Average fulfillment of the sum rule on Im[epsilon] for q-point    1 :     39.99  [%]
  Heads and wings of the symmetrical epsilon^-1(G,G') 

   Upper and lower wings at the    1 th omega   0.0000   0.0000 [eV]
       1       2       3       4       5       6       7       8       9
      0.781   0.014  -0.014  -0.042   0.042   0.042  -0.042  -0.014   0.014
     -0.000  -0.000   0.000   0.000  -0.000  -0.000   0.000   0.000  -0.000
       1       2       3       4       5       6       7       8       9
      0.781   0.014  -0.014  -0.042   0.042   0.042  -0.042  -0.014   0.014
     -0.000   0.000  -0.000  -0.000   0.000   0.000  -0.000  -0.000   0.000


   Upper and lower wings at the    2 th omega   0.0000  15.9487 [eV]
       1       2       3       4       5       6       7       8       9
      0.953   0.003  -0.003  -0.008   0.008   0.008  -0.008  -0.003   0.003
      0.000  -0.000   0.000   0.000  -0.000  -0.000   0.000   0.000  -0.000
       1       2       3       4       5       6       7       8       9
      0.953   0.003  -0.003  -0.008   0.008   0.008  -0.008  -0.003   0.003
      0.000   0.000  -0.000  -0.000   0.000   0.000  -0.000  -0.000   0.000




--------------------------------------------------------------------------------
  q-point number  2        q = (-0.250000, 0.000000, 0.250000) [r.l.u.]
--------------------------------------------------------------------------------
  chi0(G,G') at the    1 th omega   0.0000   0.0000 [eV]
       1       2       3       4       5       6       7       8       9
    1  -7.657   0.018  -0.221  -0.221   0.018  -0.013  -0.013  -0.013  -0.013
        0.000   0.000  -0.000  -0.000   0.000   0.000   0.000   0.000   0.000

    2   0.018  -3.823   0.012   0.166   0.229   0.112   0.205   0.112   0.205
       -0.000   0.000   0.000   0.000  -0.000   0.000   0.000   0.000  -0.000

  chi0(G,G') at the    2 th omega   0.0000  15.9487 [eV]
       1       2       3       4       5       6       7       8       9
    1  -1.626   0.038  -0.058  -0.058   0.038  -0.002  -0.002  -0.002  -0.002
       -0.005  -0.004  -0.000  -0.000  -0.004   0.001   0.001   0.001   0.001

    2   0.038  -2.800   0.097   0.029   0.261   0.045   0.241   0.045   0.241
        0.004  -0.063  -0.000   0.006   0.010   0.004   0.009   0.004   0.009

  Average fulfillment of the sum rule on Im[epsilon] for q-point    2 :     -0.00  [%]


--------------------------------------------------------------------------------
  q-point number  3        q = ( 0.000000,-0.250000,-0.250000) [r.l.u.]
--------------------------------------------------------------------------------
  chi0(G,G') at the    1 th omega   0.0000   0.0000 [eV]
       1       2       3       4       5       6       7       8       9
    1  -6.564  -0.119   0.003   0.003  -0.119  -0.119   0.003   0.003  -0.119
        0.000  -0.000   0.000   0.000  -0.000  -0.000   0.000   0.000  -0.000

    2  -0.119  -6.846   0.025   0.111   0.201   0.091   0.260   0.111   0.201
        0.000   0.000  -0.000  -0.000   0.000   0.000  -0.000  -0.000  -0.000

  chi0(G,G') at the    2 th omega   0.0000  15.9487 [eV]
       1       2       3       4       5       6       7       8       9
    1  -1.060  -0.037   0.021   0.021  -0.037  -0.037   0.021   0.021  -0.037
       -0.262  -0.001  -0.007  -0.007  -0.001  -0.001  -0.007  -0.007  -0.001

    2  -0.037  -3.385   0.010   0.031   0.120  -0.021   0.275   0.031   0.120
        0.001  -0.000  -0.000  -0.000   0.000   0.000   0.000  -0.000   0.000

  Average fulfillment of the sum rule on Im[epsilon] for q-point    3 :     -0.00  [%]


--------------------------------------------------------------------------------
  q-point number  4        q = (-0.250000, 0.500000, 0.250000) [r.l.u.]
--------------------------------------------------------------------------------
  chi0(G,G') at the    1 th omega   0.0000   0.0000 [eV]
       1       2       3       4       5       6       7       8       9
    1  -6.782   0.049  -0.107  -0.035   0.015   0.015  -0.035  -0.107   0.049
        0.000  -0.000  -0.000   0.000  -0.000  -0.000   0.000  -0.000  -0.000

    2   0.049  -2.699  -0.009   0.096   0.142   0.070   0.220   0.051   0.155
        0.000   0.000  -0.000  -0.000  -0.000  -0.000  -0.000   0.000  -0.000

  chi0(G,G') at the    2 th omega   0.0000  15.9487 [eV]
       1       2       3       4       5       6       7       8       9
    1  -2.651   0.027  -0.033   0.018   0.014   0.014   0.018  -0.033   0.027
       -0.004   0.000   0.002  -0.005  -0.000  -0.000  -0.005   0.002   0.000

    2   0.027  -2.237   0.009   0.064   0.141   0.055   0.173   0.039   0.142
       -0.000  -0.001  -0.001   0.004  -0.001  -0.000   0.009  -0.002  -0.001

  Average fulfillment of the sum rule on Im[epsilon] for q-point    4 :     -0.00  [%]


--------------------------------------------------------------------------------
  q-point number  5        q = ( 0.500000, 0.500000, 0.500000) [r.l.u.]
--------------------------------------------------------------------------------
  chi0(G,G') at the    1 th omega   0.0000   0.0000 [eV]
       1       2       3       4       5       6       7       8       9
    1  -8.331  -0.113   0.063  -0.113   0.063   0.040  -0.245  -0.113   0.063
        0.000   0.000   0.000   0.000   0.000   0.000  -0.000   0.000   0.000

    2  -0.113  -6.063   0.011   0.075   0.246   0.061   0.109   0.075   0.246
       -0.000   0.000   0.000  -0.000  -0.000  -0.000  -0.000  -0.000  -0.000

  chi0(G,G') at the    2 th omega   0.0000  15.9487 [eV]
       1       2       3       4       5       6       7       8       9
    1  -2.252  -0.037   0.023  -0.037   0.023   0.048  -0.071  -0.037   0.023
       -0.002  -0.001   0.002  -0.001   0.002  -0.001  -0.002  -0.001   0.002

    2  -0.037  -3.241   0.001  -0.019   0.241   0.047  -0.014  -0.019   0.241
        0.001  -0.003  -0.002  -0.001   0.009  -0.001  -0.002  -0.001   0.009

  Average fulfillment of the sum rule on Im[epsilon] for q-point    5 :     -0.00  [%]


--------------------------------------------------------------------------------
  q-point number  6        q = ( 0.500000, 0.000000, 0.500000) [r.l.u.]
--------------------------------------------------------------------------------
  chi0(G,G') at the    1 th omega   0.0000   0.0000 [eV]
       1       2       3       4       5       6       7       8       9
    1  -7.468  -0.102   0.007  -0.102   0.007   0.007  -0.102   0.007  -0.102
        0.000  -0.000   0.000   0.000   0.000   0.000  -0.000   0.000   0.000

    2  -0.102  -6.239   0.007  -0.058   0.285   0.099   0.062   0.099   0.062
        0.000   0.000  -0.000  -0.000   0.000  -0.000  -0.000  -0.000  -0.000

  chi0(G,G') at the    2 th omega   0.0000  15.9487 [eV]
       1       2       3       4       5       6       7       8       9
    1  -2.404  -0.030   0.028  -0.030   0.028   0.028  -0.030   0.028  -0.030
       -0.261  -0.008  -0.001  -0.008  -0.001  -0.001  -0.008  -0.001  -0.008

    2  -0.030  -3.139   0.016  -0.106   0.204   0.040   0.337   0.040   0.337
        0.008  -0.001   0.000  -0.001   0.000  -0.000  -0.000  -0.000  -0.000

  Average fulfillment of the sum rule on Im[epsilon] for q-point    6 :     -0.00  [%]

================================================================================
== DATASET  3 ==================================================================
-   nproc =    1

 mkfilename : getscr/=0, take file _SCR from output of DATASET   2.

 mkfilename : getkss/=0, take file _KSS from output of DATASET   1.

 Exchange-correlation functional for the present dataset will be:
  LDA: new Teter (4/93) with spin-polarized option - ixc=1
 Citation for XC functional:
  S. Goedecker, M. Teter, J. Huetter, PRB 54, 1703 (1996)

 SIGMA: Calculation of the GW corrections 

 Based on a program developped by R.W. Godby, V. Olevano, G. Onida, and L. Reining.
 Incorporated in ABINIT by V. Olevano, G.-M. Rignanese, and M. Torrent.
.Using double precision arithmetic ; gwpc =  8

 Real(R)+Recip(G) space primitive vectors, cartesian coordinates (Bohr,Bohr^-1):
 R(1)=  0.0000000  3.8000000  3.8000000  G(1)= -0.1315789  0.1315789  0.1315789
 R(2)=  3.8000000  0.0000000  3.8000000  G(2)=  0.1315789 -0.1315789  0.1315789
 R(3)=  3.8000000  3.8000000  0.0000000  G(3)=  0.1315789  0.1315789 -0.1315789
 Unit cell volume ucvol=  1.0974400E+02 bohr^3
 Angles (23,13,12)=  6.00000000E+01  6.00000000E+01  6.00000000E+01 degrees
--------------------------------------------------------------------------------

 ==== K-mesh for the wavefunctions ====
 Number of points in the irreducible wedge :     2
 Reduced coordinates and weights : 

     1)    -2.50000000E-01  5.00000000E-01  0.00000000E+00       0.75000
     2)    -2.50000000E-01  0.00000000E+00  0.00000000E+00       0.25000

 Together with 24 symmetry operations and time-reversal symmetry 
 yields    32 points in the full Brillouin Zone.


 ==== Q-mesh for screening function ====
 Number of points in the irreducible wedge :     6
 Reduced coordinates and weights : 

     1)     0.00000000E+00  0.00000000E+00  0.00000000E+00       0.03125
     2)    -2.50000000E-01  0.00000000E+00  2.50000000E-01       0.37500
     3)     0.00000000E+00 -2.50000000E-01 -2.50000000E-01       0.18750
     4)    -2.50000000E-01  5.00000000E-01  2.50000000E-01       0.18750
     5)     5.00000000E-01  5.00000000E-01  5.00000000E-01       0.12500
     6)     5.00000000E-01  0.00000000E+00  5.00000000E-01       0.09375

 Together with 24 symmetry operations and time-reversal symmetry 
 yields    32 points in the full Brillouin Zone.


 setmesh: FFT mesh size selected  =   9x  9x  9
          total number of points  =      729


 k       eigenvalues [eV]
  1          2.93   7.30  11.83  15.03  17.23
  2         -1.42  11.64  19.23  19.23  22.71
 Number of electrons calculated from density =    3.0000; Expected =    3.0000
 average of density, n =  0.027336
 r_s =    2.0593
 omega_plasma =   15.9487 [eV]

 SIGMA fundamental parameters:
 PLASMON POLE MODEL  1
 number of plane-waves for SigmaX                   27
 number of plane-waves for SigmaC and W              9
 number of plane-waves for wavefunctions            59
 number of bands                                     5
 number of independent spin polarizations            1
 number of spinorial components                      1
 number of k-points in IBZ                           2
 number of q-points in IBZ                           6
 number of symmetry operations                      24
 number of k-points in BZ                           32
 number of q-points in BZ                           32
 number of frequencies for dSigma/dE                 9
 frequency step for dSigma/dE [eV]                0.25
 number of omega for Sigma on real axis              0
 max omega for Sigma on real axis  [eV]           0.00
 zcut for avoiding poles [eV]                     0.10

 EPSILON^-1 parameters (SCR file):
 dimension of the eps^-1 matrix on file              9
 dimension of the eps^-1 matrix used                 9
 number of plane-waves for wavefunctions            59
 number of bands                                    10
 number of q-points in IBZ                           6
 number of frequencies                               2
 number of real frequencies                          1
 number of imag frequencies                          1

 matrix elements of self-energy operator (all in [eV])

 Perturbative Calculation

 k =    0.250   0.750   0.250
 Band     E0 <VxcLDA>   SigX SigC(E0)      Z dSigC/dE  Sig(E)    E-E0       E
    2   7.296  -9.493  -8.818  -0.573   0.832  -0.202  -9.408   0.085   7.381
    3  11.828  -9.441  -4.499  -2.469   0.832  -0.202  -7.384   2.057  13.885

 E^0_gap          4.532
 E^GW_gap         6.504
 DeltaE^GW_gap    1.972


================================================================================
== DATASET  4 ==================================================================
-   nproc =    1

 Exchange-correlation functional for the present dataset will be:
  LDA: new Teter (4/93) with spin-polarized option - ixc=1
 Citation for XC functional:
  S. Goedecker, M. Teter, J. Huetter, PRB 54, 1703 (1996)

 Real(R)+Recip(G) space primitive vectors, cartesian coordinates (Bohr,Bohr^-1):
 R(1)=  0.0000000  3.8000000  3.8000000  G(1)= -0.1315789  0.1315789  0.1315789
 R(2)=  3.8000000  0.0000000  3.8000000  G(2)=  0.1315789 -0.1315789  0.1315789
 R(3)=  3.8000000  3.8000000  0.0000000  G(3)=  0.1315789  0.1315789 -0.1315789
 Unit cell volume ucvol=  1.0974400E+02 bohr^3
 Angles (23,13,12)=  6.00000000E+01  6.00000000E+01  6.00000000E+01 degrees

 getcut: wavevector=  0.0000  0.0000  0.0000  ngfft=   8   8   8
         ecut(hartree)=      2.500   => boxcut(ratio)=   2.09149

--- Pseudopotential description ------------------------------------------------
- pspini: atom type   1  psp file is /home/gonze/ABINIT/ABINITv7.9.3/trunk/7.9.3-private/tests/Psps_for_tests/13al.pspnc
- pspatm: opening atomic psp file    /home/gonze/ABINIT/ABINITv7.9.3/trunk/7.9.3-private/tests/Psps_for_tests/13al.pspnc
-  Troullier-Martins psp for element  Al        Thu Oct 27 17:31:05 EDT 1994
- 13.00000   3.00000    940714                znucl, zion, pspdat
    1    1    2    2      2001   0.00000      pspcod,pspxc,lmax,lloc,mmax,r2well
    0   4.657  11.889    1   2.2761078        l,e99.0,e99.9,nproj,rcpsp
   0.00000000   0.00000000   0.00000000   0.00000000     rms, ekb1, ekb2, epsatm
    1   1.829   2.761    1   2.2761078        l,e99.0,e99.9,nproj,rcpsp
   0.00000000   0.00000000   0.00000000   0.00000000     rms, ekb1, ekb2, epsatm
    2   0.000   0.000    0   2.2761078        l,e99.0,e99.9,nproj,rcpsp
   0.00000000   0.00000000   0.00000000   0.00000000     rms, ekb1, ekb2, epsatm
    2.09673076353074    0.12648111154518    1.01742091001718   rchrg,fchrg,qchrg
 pspatm: epsatm=    0.22155260
         --- l  ekb(1:nproj) -->
             0    2.540658
             1    1.353815
 pspatm: atomic psp has been read  and splines computed

--------------------------------------------------------------------------------

P newkpt: treating     17 bands with npw=      22 for ikpt=   1 by node    0
P newkpt: treating     17 bands with npw=      18 for ikpt=   2 by node    0

_setup2: Arith. and geom. avg. npw (full set) are      21.000      20.924

================================================================================

     iter   Etot(hartree)      deltaE(h)  residm     vres2
 ETOT  1  -2.4097739360496    -2.410E+00 1.689E-01 1.714E-01
 ETOT  2  -2.4103359126309    -5.620E-04 1.004E-09 6.987E-03
 ETOT  3  -2.4103612712379    -2.536E-05 1.106E-05 1.012E-05
 ETOT  4  -2.4103612987638    -2.753E-08 1.093E-08 5.540E-08
 ETOT  5  -2.4103612989783    -2.146E-10 9.574E-11 1.832E-10
 ETOT  6  -2.4103612989791    -7.434E-13 3.543E-13 1.351E-12
 ETOT  7  -2.4103612989791    -1.776E-15 2.631E-15 5.734E-15
 ETOT  8  -2.4103612989791    -2.709E-14 1.225E-17 1.211E-17

 At SCF step    8   max residual=  1.23E-17 < tolwfr=  1.00E-16 =>converged.

 Cartesian components of stress tensor (hartree/bohr^3)
  sigma(1 1)=  1.50605555E-04  sigma(3 2)=  0.00000000E+00
  sigma(2 2)=  1.50605555E-04  sigma(3 1)=  0.00000000E+00
  sigma(3 3)=  1.50605555E-04  sigma(2 1)=  0.00000000E+00


======================================================================
 Calculating and writing out Kohn-Sham electronic Structure file
 Using conjugate gradient wavefunctions and energies (kssform=3)
 number of Gamma centered plane waves     59
 number of Gamma centered shells      6
 number of bands     12
 maximum angular momentum components      3
 Conjugate gradient eigenvalues
   k    eigenvalues [Hartree]
   1      0.1076  0.2681  0.4347  0.5523  0.6333  0.9008  1.0214  1.1138  1.2393
          1.3154  1.4546  1.5186
   2     -0.0521  0.4279  0.7067  0.7067  0.8344  0.8688  0.8688  0.9896  1.0308
          1.0308  1.2044  1.4309
 Test on the normalization of the wavefunctions
  min sum_G |a(n,k,G)| =  1.000000
  max sum_G |a(n,k,G)| =  1.000000
 Test on the orthogonalization of the wavefunctions
  min sum_G a(n,k,G)a(n',k,G) =  0.000000
  max sum_G a(n,k,G)a(n',k,G) =  0.000000

================================================================================

 ----iterations are completed or convergence reached----

 Mean square residual over all n,k,spin=   4.6765E-18; max=  9.5165E-18
  -0.2500  0.5000  0.0000    1  9.51647E-18 kpt; spin; max resid(k); each band:
  6.68E-18 5.49E-18 7.25E-18 4.03E-18 7.50E-18 5.62E-18 1.50E-18 7.36E-18
  1.81E-18 7.84E-19 8.04E-18 2.51E-18 9.46E-18 1.61E-18 9.52E-18 2.12E-18
  2.07E-18
  -0.2500  0.0000  0.0000    1  1.22527E-17 kpt; spin; max resid(k); each band:
  7.79E-18 5.16E-18 2.80E-18 2.80E-18 8.03E-18 1.47E-18 1.47E-18 5.24E-18
  1.46E-18 1.46E-18 1.16E-17 1.23E-17 1.04E-18 1.04E-18 9.40E-18 1.31E-18
  1.31E-18
 reduced coordinates (array xred) for    1 atoms
       0.000000000000      0.000000000000      0.000000000000
 rms dE/dt=  0.0000E+00; max dE/dt=  0.0000E+00; dE/dt below (all hartree)
    1       0.000000000000      0.000000000000      0.000000000000

 cartesian coordinates (angstrom) at end:
    1      0.00000000000000     0.00000000000000     0.00000000000000

 cartesian forces (hartree/bohr) at end:
    1     -0.00000000000000    -0.00000000000000    -0.00000000000000
 frms,max,avg= 0.0000000E+00 0.0000000E+00   0.000E+00  0.000E+00  0.000E+00 h/b

 cartesian forces (eV/Angstrom) at end:
    1     -0.00000000000000    -0.00000000000000    -0.00000000000000
 frms,max,avg= 0.0000000E+00 0.0000000E+00   0.000E+00  0.000E+00  0.000E+00 e/A
 length scales=  7.600000000000  7.600000000000  7.600000000000 bohr
              =  4.021746785284  4.021746785284  4.021746785284 angstroms
 prteigrs : about to open file t28o_DS4_EIG
 Fermi (or HOMO) energy (hartree) =   0.27940   Average Vxc (hartree)=  -0.37378
 Eigenvalues (hartree) for nkpt=   2  k points:
 kpt#   1, nband= 17, wtk=  0.75000, kpt= -0.2500  0.5000  0.0000 (reduced coord)
   0.10762   0.26812   0.43466   0.55231   0.63329   0.90077   1.02139   1.11379
   1.23926   1.31543   1.45462   1.51860   1.61351   1.71639   1.74243   1.86984
   1.92913
      occupation numbers for kpt#   1
   2.00000   1.33333   0.00000   0.00000   0.00000   0.00000   0.00000   0.00000
   0.00000   0.00000   0.00000   0.00000   0.00000   0.00000   0.00000   0.00000
   0.00000
 kpt#   2, nband= 17, wtk=  0.25000, kpt= -0.2500  0.0000  0.0000 (reduced coord)
  -0.05206   0.42790   0.70670   0.70670   0.83441   0.86881   0.86881   0.98957
   1.03083   1.03083   1.20443   1.43087   1.53141   1.53141   1.67214   1.85857
   1.85857
      occupation numbers for kpt#   2
   2.00000   0.00000   0.00000   0.00000   0.00000   0.00000   0.00000   0.00000
   0.00000   0.00000   0.00000   0.00000   0.00000   0.00000   0.00000   0.00000
   0.00000
 Total charge density [el/Bohr^3]
,     Maximum=    3.2142E-02  at reduced coord.    0.0000    0.5000    0.5000
,Next maximum=    3.2142E-02  at reduced coord.    0.5000    0.0000    0.5000
,     Minimum=    1.1233E-02  at reduced coord.    0.0000    0.0000    0.0000
,Next minimum=    1.5930E-02  at reduced coord.    0.1250    0.0000    0.0000
,  Integrated=    3.0000E+00

--------------------------------------------------------------------------------
 Components of total free energy (in Hartree) :

    Kinetic energy  =  8.26628391197228E-01
    Hartree energy  =  3.10783389773016E-03
    XC energy       = -1.21052573647119E+00
    Ewald energy    = -2.71472096493581E+00
    PspCore energy  =  6.05643856608109E-03
    Loc. psp. energy=  1.38759182724465E-01
    NL   psp  energy=  5.46710173468049E-01
    >>>>> Internal E= -2.40398468155345E+00

    -kT*entropy     = -6.37661742565965E-03
    >>>>>>>>> Etotal= -2.41036129897911E+00

 Other information on the energy :
    Total energy(eV)= -6.55892665478087E+01 ; Band energy (Ha)=   4.0352250082E-01
--------------------------------------------------------------------------------

 Cartesian components of stress tensor (hartree/bohr^3)
  sigma(1 1)=  1.50605555E-04  sigma(3 2)=  0.00000000E+00
  sigma(2 2)=  1.50605555E-04  sigma(3 1)=  0.00000000E+00
  sigma(3 3)=  1.50605555E-04  sigma(2 1)=  0.00000000E+00

-Cartesian components of stress tensor (GPa)         [Pressure= -4.4310E+00 GPa]
- sigma(1 1)=  4.43096766E+00  sigma(3 2)=  0.00000000E+00
- sigma(2 2)=  4.43096766E+00  sigma(3 1)=  0.00000000E+00
- sigma(3 3)=  4.43096766E+00  sigma(2 1)=  0.00000000E+00

================================================================================
== DATASET  5 ==================================================================
-   nproc =    1

 mkfilename : getkss/=0, take file _KSS from output of DATASET   4.

 Exchange-correlation functional for the present dataset will be:
  LDA: new Teter (4/93) with spin-polarized option - ixc=1
 Citation for XC functional:
  S. Goedecker, M. Teter, J. Huetter, PRB 54, 1703 (1996)

 SCREENING: Calculation of the susceptibility and dielectric matrices 

 Based on a program developped by R.W. Godby, V. Olevano, G. Onida, and L. Reining.
 Incorporated in ABINIT by V. Olevano, G.-M. Rignanese, and M. Torrent.
.Using double precision arithmetic ; gwpc =  8

 Real(R)+Recip(G) space primitive vectors, cartesian coordinates (Bohr,Bohr^-1):
 R(1)=  0.0000000  3.8000000  3.8000000  G(1)= -0.1315789  0.1315789  0.1315789
 R(2)=  3.8000000  0.0000000  3.8000000  G(2)=  0.1315789 -0.1315789  0.1315789
 R(3)=  3.8000000  3.8000000  0.0000000  G(3)=  0.1315789  0.1315789 -0.1315789
 Unit cell volume ucvol=  1.0974400E+02 bohr^3
 Angles (23,13,12)=  6.00000000E+01  6.00000000E+01  6.00000000E+01 degrees

--- Pseudopotential description ------------------------------------------------
- pspini: atom type   1  psp file is /home/gonze/ABINIT/ABINITv7.9.3/trunk/7.9.3-private/tests/Psps_for_tests/13al.pspnc
- pspatm: opening atomic psp file    /home/gonze/ABINIT/ABINITv7.9.3/trunk/7.9.3-private/tests/Psps_for_tests/13al.pspnc
-  Troullier-Martins psp for element  Al        Thu Oct 27 17:31:05 EDT 1994
- 13.00000   3.00000    940714                znucl, zion, pspdat
    1    1    2    2      2001   0.00000      pspcod,pspxc,lmax,lloc,mmax,r2well
    0   4.657  11.889    1   2.2761078        l,e99.0,e99.9,nproj,rcpsp
   0.00000000   0.00000000   0.00000000   0.00000000     rms, ekb1, ekb2, epsatm
    1   1.829   2.761    1   2.2761078        l,e99.0,e99.9,nproj,rcpsp
   0.00000000   0.00000000   0.00000000   0.00000000     rms, ekb1, ekb2, epsatm
    2   0.000   0.000    0   2.2761078        l,e99.0,e99.9,nproj,rcpsp
   0.00000000   0.00000000   0.00000000   0.00000000     rms, ekb1, ekb2, epsatm
    2.09673076353074    0.12648111154518    1.01742091001718   rchrg,fchrg,qchrg
 pspatm: epsatm=    0.22155260
         --- l  ekb(1:nproj) -->
             0    2.540658
             1    1.353815
 pspatm: atomic psp has been read  and splines computed

--------------------------------------------------------------------------------

 ==== K-mesh for the wavefunctions ====
 Number of points in the irreducible wedge :     2
 Reduced coordinates and weights : 

     1)    -2.50000000E-01  5.00000000E-01  0.00000000E+00       0.75000
     2)    -2.50000000E-01  0.00000000E+00  0.00000000E+00       0.25000

 Together with 48 symmetry operations and time-reversal symmetry 
 yields    32 points in the full Brillouin Zone.


 ==== Q-mesh for the screening function ====
 Number of points in the irreducible wedge :     6
 Reduced coordinates and weights : 

     1)     0.00000000E+00  0.00000000E+00  0.00000000E+00       0.03125
     2)     5.00000000E-01  0.00000000E+00  0.00000000E+00       0.12500
     3)    -2.50000000E-01  0.00000000E+00  2.50000000E-01       0.37500
     4)    -2.50000000E-01  0.00000000E+00 -2.50000000E-01       0.18750
     5)    -2.50000000E-01  5.00000000E-01  2.50000000E-01       0.18750
     6)     0.00000000E+00  5.00000000E-01  5.00000000E-01       0.09375

 Together with 48 symmetry operations and time-reversal symmetry 
 yields    32 points in the full Brillouin Zone.


 setmesh: FFT mesh size selected  =   8x  8x  8
          total number of points  =      512


 screening : taking advantage of time-reversal symmetry 
 Maximum band index for partially occupied states nbvw =     3
 Remaining bands to be divided among processors   nbcw =     7
P Number of bands treated by each node ~    7

 k       eigenvalues [eV]
  1          2.93   7.30  11.83  15.03  17.23  24.51  27.79  30.31  33.72  35.79

  2         -1.42  11.64  19.23  19.23  22.71  23.64  23.64  26.93  28.05  28.05

 Number of electrons calculated from density =    3.0000; Expected =    3.0000
 average of density, n =  0.027336
 r_s =    2.0593
 omega_plasma =   15.9487 [eV]


 calculating chi0 at frequencies [eV] :
  1    0.000000E+00    0.000000E+00
  2    0.000000E+00    1.594872E+01


--------------------------------------------------------------------------------
  q-point number  1        q = ( 0.000000, 0.000000, 0.000000) [r.l.u.]
--------------------------------------------------------------------------------
  chi0(G,G') at the    1 th omega   0.0000   0.0000 [eV]
       1       2       3       4       5       6       7       8       9
    1  -0.000  -0.000   0.000   0.000  -0.000  -0.000   0.000   0.000  -0.000
        0.000   0.000  -0.000  -0.000   0.000   0.000  -0.000  -0.000   0.000

    2  -0.000  -7.816   0.076   0.496   0.487   0.496   0.487   0.496   0.487
       -0.000   0.000   0.000  -0.000  -0.000   0.000   0.000  -0.000  -0.000

  chi0(G,G') at the    2 th omega   0.0000  15.9487 [eV]
       1       2       3       4       5       6       7       8       9
    1  -0.000  -0.000   0.000   0.000  -0.000  -0.000   0.000   0.000  -0.000
        0.000   0.000  -0.000  -0.000   0.000   0.000  -0.000  -0.000   0.000

    2  -0.000  -3.707   0.058   0.069   0.144   0.069   0.144   0.069   0.144
       -0.000   0.000   0.000  -0.000  -0.000  -0.000   0.000  -0.000  -0.000

 For q-point:  0.000010 0.000020 0.000030
  dielectric constant =   1.3058
  dielectric constant without local fields =   1.3212

  Average fulfillment of the sum rule on Im[epsilon] for q-point    1 :     39.99  [%]
  Heads and wings of the symmetrical epsilon^-1(G,G') 

   Upper and lower wings at the    1 th omega   0.0000   0.0000 [eV]
       1       2       3       4       5       6       7       8       9
      0.766  -0.013   0.013   0.038  -0.038  -0.038   0.038   0.013  -0.013
      0.000   0.000  -0.000  -0.000   0.000   0.000  -0.000  -0.000   0.000
       1       2       3       4       5       6       7       8       9
      0.766  -0.013   0.013   0.038  -0.038  -0.038   0.038   0.013  -0.013
      0.000  -0.000   0.000   0.000  -0.000  -0.000   0.000   0.000  -0.000


   Upper and lower wings at the    2 th omega   0.0000  15.9487 [eV]
       1       2       3       4       5       6       7       8       9
      0.950  -0.002   0.002   0.005  -0.005  -0.005   0.005   0.002  -0.002
      0.000   0.000  -0.000  -0.000   0.000   0.000  -0.000  -0.000   0.000
       1       2       3       4       5       6       7       8       9
      0.950  -0.002   0.002   0.005  -0.005  -0.005   0.005   0.002  -0.002
      0.000  -0.000   0.000   0.000  -0.000  -0.000   0.000   0.000  -0.000




--------------------------------------------------------------------------------
  q-point number  2        q = ( 0.500000, 0.000000, 0.000000) [r.l.u.]
--------------------------------------------------------------------------------
  chi0(G,G') at the    1 th omega   0.0000   0.0000 [eV]
       1       2       3       4       5       6       7       8       9
    1  -9.493   0.024  -0.168  -0.210   0.012  -0.210   0.012  -0.210   0.012
        0.000   0.000  -0.000   0.000   0.000  -0.000  -0.000   0.000  -0.000

    2   0.024  -2.851   0.045   0.158   0.222   0.158   0.222   0.158   0.222
       -0.000   0.000  -0.000  -0.000   0.000   0.000   0.000  -0.000  -0.000

  chi0(G,G') at the    2 th omega   0.0000  15.9487 [eV]
       1       2       3       4       5       6       7       8       9
    1  -2.237   0.068  -0.091  -0.021   0.014  -0.021   0.014  -0.021   0.014
       -0.002  -0.001  -0.002  -0.001   0.002  -0.001   0.002  -0.001   0.002

    2   0.068  -2.494   0.019   0.021   0.148   0.021   0.148   0.021   0.148
        0.001  -0.001  -0.001  -0.001   0.004  -0.001   0.004  -0.001   0.004

  Average fulfillment of the sum rule on Im[epsilon] for q-point    2 :     -0.00  [%]


--------------------------------------------------------------------------------
  q-point number  3        q = (-0.250000, 0.000000, 0.250000) [r.l.u.]
--------------------------------------------------------------------------------
  chi0(G,G') at the    1 th omega   0.0000   0.0000 [eV]
       1       2       3       4       5       6       7       8       9
    1  -7.860  -0.218   0.017   0.017  -0.218  -0.056  -0.056  -0.056  -0.056
        0.000  -0.000  -0.000   0.000   0.000  -0.000   0.000  -0.000   0.000

    2  -0.218  -8.624   0.058   0.350   0.222   0.487   0.315   0.487   0.315
        0.000   0.000  -0.000   0.000  -0.000   0.000   0.000  -0.000   0.000

  chi0(G,G') at the    2 th omega   0.0000  15.9487 [eV]
       1       2       3       4       5       6       7       8       9
    1  -1.609  -0.061   0.043   0.043  -0.061  -0.004  -0.004  -0.004  -0.004
       -0.005  -0.000  -0.004  -0.004  -0.000   0.001   0.001   0.001   0.001

    2  -0.061  -3.052   0.034   0.024  -0.031   0.030   0.090   0.030   0.090
        0.000  -0.001  -0.000   0.006   0.000  -0.001  -0.001  -0.001  -0.001

  Average fulfillment of the sum rule on Im[epsilon] for q-point    3 :     -0.00  [%]


--------------------------------------------------------------------------------
  q-point number  4        q = (-0.250000, 0.000000,-0.250000) [r.l.u.]
--------------------------------------------------------------------------------
  chi0(G,G') at the    1 th omega   0.0000   0.0000 [eV]
       1       2       3       4       5       6       7       8       9
    1  -6.673  -0.097  -0.015  -0.097  -0.015  -0.015  -0.097  -0.015  -0.097
        0.000  -0.000   0.000  -0.000   0.000   0.000  -0.000   0.000  -0.000

    2  -0.097  -8.073   0.060   0.597   0.428   0.396   0.358   0.396   0.358
        0.000   0.000  -0.000  -0.000   0.000   0.000   0.000   0.000   0.000

  chi0(G,G') at the    2 th omega   0.0000  15.9487 [eV]
       1       2       3       4       5       6       7       8       9
    1  -1.047  -0.030   0.018  -0.030   0.018   0.018  -0.030   0.018  -0.030
       -0.262  -0.001  -0.007  -0.001  -0.007  -0.007  -0.001  -0.007  -0.001

    2  -0.030  -3.478   0.047   0.052   0.153   0.054   0.079   0.054   0.079
        0.001  -0.000  -0.000   0.000   0.000  -0.000   0.000  -0.000   0.000

  Average fulfillment of the sum rule on Im[epsilon] for q-point    4 :     -0.00  [%]


--------------------------------------------------------------------------------
  q-point number  5        q = (-0.250000, 0.500000, 0.250000) [r.l.u.]
--------------------------------------------------------------------------------
  chi0(G,G') at the    1 th omega   0.0000   0.0000 [eV]
       1       2       3       4       5       6       7       8       9
    1  -7.583  -0.138   0.000  -0.042  -0.084  -0.084  -0.042   0.000  -0.138
        0.000  -0.000   0.000  -0.000  -0.000  -0.000  -0.000   0.000  -0.000

    2  -0.138  -7.583   0.027   0.326   0.254   0.496   0.352   0.166   0.002
        0.000   0.000   0.000   0.000   0.000  -0.000   0.000  -0.000  -0.000

  chi0(G,G') at the    2 th omega   0.0000  15.9487 [eV]
       1       2       3       4       5       6       7       8       9
    1  -2.666  -0.045   0.050   0.023  -0.016  -0.016   0.023   0.050  -0.045
       -0.004   0.002   0.000  -0.000  -0.005  -0.005  -0.000   0.000   0.002

    2  -0.045  -2.666   0.007   0.038   0.061   0.032   0.132   0.039  -0.111
       -0.002  -0.004  -0.001  -0.000   0.018   0.008  -0.001  -0.002  -0.003

  Average fulfillment of the sum rule on Im[epsilon] for q-point    5 :     -0.00  [%]


--------------------------------------------------------------------------------
  q-point number  6        q = ( 0.000000, 0.500000, 0.500000) [r.l.u.]
--------------------------------------------------------------------------------
  chi0(G,G') at the    1 th omega   0.0000   0.0000 [eV]
       1       2       3       4       5       6       7       8       9
    1  -7.690  -0.122   0.001   0.001  -0.122  -0.122   0.001   0.001  -0.122
        0.000   0.000   0.000   0.000  -0.000  -0.000  -0.000  -0.000   0.000

    2  -0.122  -7.193   0.038   0.245   0.196   0.550   0.361   0.245   0.196
       -0.000   0.000   0.000   0.000  -0.000   0.000  -0.000  -0.000   0.000

  chi0(G,G') at the    2 th omega   0.0000  15.9487 [eV]
       1       2       3       4       5       6       7       8       9
    1  -2.408  -0.041   0.034   0.034  -0.041  -0.041   0.034   0.034  -0.041
       -0.261  -0.008  -0.001  -0.001  -0.008  -0.008  -0.001  -0.001  -0.008

    2  -0.041  -3.219   0.010   0.043   0.037   0.041   0.166   0.043   0.037
        0.008  -0.001   0.000  -0.000  -0.000  -0.001   0.000  -0.000  -0.000

  Average fulfillment of the sum rule on Im[epsilon] for q-point    6 :     -0.00  [%]

================================================================================
== DATASET  6 ==================================================================
-   nproc =    1

 mkfilename : getscr/=0, take file _SCR from output of DATASET   5.

 mkfilename : getkss/=0, take file _KSS from output of DATASET   4.

 Exchange-correlation functional for the present dataset will be:
  LDA: new Teter (4/93) with spin-polarized option - ixc=1
 Citation for XC functional:
  S. Goedecker, M. Teter, J. Huetter, PRB 54, 1703 (1996)

 SIGMA: Calculation of the GW corrections 

 Based on a program developped by R.W. Godby, V. Olevano, G. Onida, and L. Reining.
 Incorporated in ABINIT by V. Olevano, G.-M. Rignanese, and M. Torrent.
.Using double precision arithmetic ; gwpc =  8

 Real(R)+Recip(G) space primitive vectors, cartesian coordinates (Bohr,Bohr^-1):
 R(1)=  0.0000000  3.8000000  3.8000000  G(1)= -0.1315789  0.1315789  0.1315789
 R(2)=  3.8000000  0.0000000  3.8000000  G(2)=  0.1315789 -0.1315789  0.1315789
 R(3)=  3.8000000  3.8000000  0.0000000  G(3)=  0.1315789  0.1315789 -0.1315789
 Unit cell volume ucvol=  1.0974400E+02 bohr^3
 Angles (23,13,12)=  6.00000000E+01  6.00000000E+01  6.00000000E+01 degrees
--------------------------------------------------------------------------------

 ==== K-mesh for the wavefunctions ====
 Number of points in the irreducible wedge :     2
 Reduced coordinates and weights : 

     1)    -2.50000000E-01  5.00000000E-01  0.00000000E+00       0.75000
     2)    -2.50000000E-01  0.00000000E+00  0.00000000E+00       0.25000

 Together with 48 symmetry operations and time-reversal symmetry 
 yields    32 points in the full Brillouin Zone.


 ==== Q-mesh for screening function ====
 Number of points in the irreducible wedge :     6
 Reduced coordinates and weights : 

     1)     0.00000000E+00  0.00000000E+00  0.00000000E+00       0.03125
     2)     5.00000000E-01  0.00000000E+00  0.00000000E+00       0.12500
     3)    -2.50000000E-01  0.00000000E+00  2.50000000E-01       0.37500
     4)    -2.50000000E-01  0.00000000E+00 -2.50000000E-01       0.18750
     5)    -2.50000000E-01  5.00000000E-01  2.50000000E-01       0.18750
     6)     0.00000000E+00  5.00000000E-01  5.00000000E-01       0.09375

 Together with 48 symmetry operations and time-reversal symmetry 
 yields    32 points in the full Brillouin Zone.


 setmesh: FFT mesh size selected  =   9x  9x  9
          total number of points  =      729


 k       eigenvalues [eV]
  1          2.93   7.30  11.83  15.03  17.23  24.51  27.79
  2         -1.42  11.64  19.23  19.23  22.71  23.64  23.64
 Number of electrons calculated from density =    3.0000; Expected =    3.0000
 average of density, n =  0.027336
 r_s =    2.0593
 omega_plasma =   15.9487 [eV]

 SIGMA fundamental parameters:
 PLASMON POLE MODEL  1
 number of plane-waves for SigmaX                   27
 number of plane-waves for SigmaC and W              9
 number of plane-waves for wavefunctions            59
 number of bands                                     7
 number of independent spin polarizations            1
 number of spinorial components                      1
 number of k-points in IBZ                           2
 number of q-points in IBZ                           6
 number of symmetry operations                      48
 number of k-points in BZ                           32
 number of q-points in BZ                           32
 number of frequencies for dSigma/dE                 9
 frequency step for dSigma/dE [eV]                0.25
 number of omega for Sigma on real axis              0
 max omega for Sigma on real axis  [eV]           0.00
 zcut for avoiding poles [eV]                     0.10

 EPSILON^-1 parameters (SCR file):
 dimension of the eps^-1 matrix on file              9
 dimension of the eps^-1 matrix used                 9
 number of plane-waves for wavefunctions            59
 number of bands                                    10
 number of q-points in IBZ                           6
 number of frequencies                               2
 number of real frequencies                          1
 number of imag frequencies                          1

 matrix elements of self-energy operator (all in [eV])

 Perturbative Calculation

 k =    0.250   0.750   0.250
 Band     E0 <VxcLDA>   SigX SigC(E0)      Z dSigC/dE  Sig(E)    E-E0       E
    2   7.296  -9.493  -8.818  -0.613   0.820  -0.219  -9.442   0.051   7.347
    3  11.828  -9.441  -4.517  -2.663   0.814  -0.229  -7.601   1.840  13.667

 E^0_gap          4.532
 E^GW_gap         6.321
 DeltaE^GW_gap    1.789


== END DATASET(S) ==============================================================
================================================================================
  
 -outvars: echo values of variables after computation  --------
            acell      7.6000000000E+00  7.6000000000E+00  7.6000000000E+00 Bohr
              amu      2.69815390E+01
             bdgw3          2       3
             bdgw6          2       3
             ecut1     2.50000000E+00 Hartree
             ecut2     1.09358498E+01 Hartree
             ecut3     1.09358498E+01 Hartree
             ecut4     2.50000000E+00 Hartree
             ecut5     1.09358498E+01 Hartree
             ecut6     1.09358498E+01 Hartree
          ecuteps1     0.00000000E+00 Hartree
          ecuteps2     1.02523591E+00 Hartree
          ecuteps3     0.00000000E+00 Hartree
          ecuteps4     0.00000000E+00 Hartree
          ecuteps5     1.02523591E+00 Hartree
          ecuteps6     0.00000000E+00 Hartree
         ecutsigx1     0.00000000E+00 Hartree
         ecutsigx2     0.00000000E+00 Hartree
         ecutsigx3     2.73396244E+00 Hartree
         ecutsigx4     0.00000000E+00 Hartree
         ecutsigx5     0.00000000E+00 Hartree
         ecutsigx6     2.73396244E+00 Hartree
          ecutwfn1     1.09358498E+01 Hartree
          ecutwfn2     1.09358498E+01 Hartree
          ecutwfn3     1.09358498E+01 Hartree
          ecutwfn4     1.09358498E+01 Hartree
          ecutwfn5     1.09358498E+01 Hartree
          ecutwfn6     1.09358498E+01 Hartree
           etotal1    -2.4103612990E+00
           etotal2     0.0000000000E+00
           etotal3     0.0000000000E+00
           etotal4    -2.4103612990E+00
           etotal5     0.0000000000E+00
           etotal6     0.0000000000E+00
            fcart1    -0.0000000000E+00 -0.0000000000E+00 -0.0000000000E+00
            fcart2     0.0000000000E+00  0.0000000000E+00  0.0000000000E+00
            fcart3     0.0000000000E+00  0.0000000000E+00  0.0000000000E+00
            fcart4    -0.0000000000E+00 -0.0000000000E+00 -0.0000000000E+00
            fcart5     0.0000000000E+00  0.0000000000E+00  0.0000000000E+00
            fcart6     0.0000000000E+00  0.0000000000E+00  0.0000000000E+00
-          fftalg         112
           getkss1          0
           getkss2         -1
           getkss3         -2
           getkss4          0
           getkss5         -1
           getkss6         -2
           getscr1          0
           getscr2          0
           getscr3         -1
           getscr4          0
           getscr5          0
           getscr6         -1
           gw_eet1         -1
           gw_eet2          2
           gw_eet3          2
           gw_eet4         -1
           gw_eet5          1
           gw_eet6          1
   gw_eet_inclvkb1          0
   gw_eet_inclvkb2          0
   gw_eet_inclvkb3          0
   gw_eet_inclvkb4          0
   gw_eet_inclvkb5          1
   gw_eet_inclvkb6          1
     gw_eet_nband1         -1
     gw_eet_nband2         -1
     gw_eet_nband3         -1
     gw_eet_nband4         -1
     gw_eet_nband5          8
     gw_eet_nband6          6
         icutcoul1          6
         icutcoul2          6
         icutcoul3          3
         icutcoul4          6
         icutcoul5          6
         icutcoul6          3
          inclvkb1          1
          inclvkb2          2
          inclvkb3          1
          inclvkb4          1
          inclvkb5          0
          inclvkb6          1
           jdtset        1    2    3    4    5    6
              kpt     -2.50000000E-01  5.00000000E-01  0.00000000E+00
                      -2.50000000E-01  0.00000000E+00  0.00000000E+00
            kptgw3     2.50000000E-01  7.50000000E-01  2.50000000E-01
            kptgw6     2.50000000E-01  7.50000000E-01  2.50000000E-01
         kptrlatt        2   -2    2     -2    2    2     -2   -2    2
          kptrlen      1.52000000E+01
          kssform1          3
          kssform2          1
          kssform3          1
          kssform4          3
          kssform5          1
          kssform6          1
P           mkmem           2
            natom           1
            nband1         17
            nband2         10
            nband3          5
            nband4         17
            nband5         10
            nband6          7
         nbandkss1         12
         nbandkss2          0
         nbandkss3          0
         nbandkss4         12
         nbandkss5          0
         nbandkss6          0
           nbdbuf1          5
           nbdbuf2          0
           nbdbuf3          0
           nbdbuf4          5
           nbdbuf5          0
           nbdbuf6          0
           ndtset           6
            ngfft1          8       8       8
            ngfft2         16      16      16
            ngfft3         16      16      16
            ngfft4          8       8       8
            ngfft5         16      16      16
            ngfft6         16      16      16
             nkpt           2
           nkptgw1          0
           nkptgw2          0
           nkptgw3          1
           nkptgw4          0
           nkptgw5          0
           nkptgw6          1
           npweps1          0
           npweps2          9
           npweps3          0
           npweps4          0
           npweps5          9
           npweps6          0
          npwsigx1          0
          npwsigx2          0
          npwsigx3         27
          npwsigx4          0
          npwsigx5          0
          npwsigx6         27
           npwwfn1          0
           npwwfn2        181
           npwwfn3        181
           npwwfn4          0
           npwwfn5        181
           npwwfn6        181
           nsheps1          0
           nsheps2          2
           nsheps3          0
           nsheps4          0
           nsheps5          2
           nsheps6          0
          nshsigx1          0
          nshsigx2          0
          nshsigx3          4
          nshsigx4          0
          nshsigx5          0
          nshsigx6          4
            nstep1         20
            nstep2         30
            nstep3         30
            nstep4         20
            nstep5         30
            nstep6         30
             nsym          48
           ntypat           1
              occ1     2.000000  1.333332  0.000001  0.000000  0.000000  0.000000
                       0.000000  0.000000  0.000000  0.000000  0.000000  0.000000
                       0.000000  0.000000  0.000000  0.000000  0.000000
                       2.000000  0.000002  0.000000  0.000000  0.000000  0.000000
                       0.000000  0.000000  0.000000  0.000000  0.000000  0.000000
                       0.000000  0.000000  0.000000  0.000000  0.000000
              occ2     2.000000  1.000000  0.000000  0.000000  0.000000  0.000000
                       0.000000  0.000000  0.000000  0.000000
                       2.000000  1.000000  0.000000  0.000000  0.000000  0.000000
                       0.000000  0.000000  0.000000  0.000000
              occ3     2.000000  1.000000  0.000000  0.000000  0.000000
                       2.000000  1.000000  0.000000  0.000000  0.000000
              occ4     2.000000  1.333332  0.000001  0.000000  0.000000  0.000000
                       0.000000  0.000000  0.000000  0.000000  0.000000  0.000000
                       0.000000  0.000000  0.000000  0.000000  0.000000
                       2.000000  0.000002  0.000000  0.000000  0.000000  0.000000
                       0.000000  0.000000  0.000000  0.000000  0.000000  0.000000
                       0.000000  0.000000  0.000000  0.000000  0.000000
              occ5     2.000000  1.000000  0.000000  0.000000  0.000000  0.000000
                       0.000000  0.000000  0.000000  0.000000
                       2.000000  1.000000  0.000000  0.000000  0.000000  0.000000
                       0.000000  0.000000  0.000000  0.000000
              occ6     2.000000  1.000000  0.000000  0.000000  0.000000  0.000000
                       0.000000
                       2.000000  1.000000  0.000000  0.000000  0.000000  0.000000
                       0.000000
           occopt           4
        optdriver1          0
        optdriver2          3
        optdriver3          4
        optdriver4          0
        optdriver5          3
        optdriver6          4
            rprim      0.0000000000E+00  5.0000000000E-01  5.0000000000E-01
                       5.0000000000E-01  0.0000000000E+00  5.0000000000E-01
                       5.0000000000E-01  5.0000000000E-01  0.0000000000E+00
           shiftk      5.00000000E-01  5.00000000E-01  5.00000000E-01
          spgroup         225
           strten1     1.5060555485E-04  1.5060555485E-04  1.5060555485E-04
                       0.0000000000E+00  0.0000000000E+00  0.0000000000E+00
           strten2     0.0000000000E+00  0.0000000000E+00  0.0000000000E+00
                       0.0000000000E+00  0.0000000000E+00  0.0000000000E+00
           strten3     0.0000000000E+00  0.0000000000E+00  0.0000000000E+00
                       0.0000000000E+00  0.0000000000E+00  0.0000000000E+00
           strten4     1.5060555485E-04  1.5060555485E-04  1.5060555485E-04
                       0.0000000000E+00  0.0000000000E+00  0.0000000000E+00
           strten5     0.0000000000E+00  0.0000000000E+00  0.0000000000E+00
                       0.0000000000E+00  0.0000000000E+00  0.0000000000E+00
           strten6     0.0000000000E+00  0.0000000000E+00  0.0000000000E+00
                       0.0000000000E+00  0.0000000000E+00  0.0000000000E+00
        symmorphi1          0
        symmorphi2          0
        symmorphi3          0
        symmorphi4          1
        symmorphi5          1
        symmorphi6          1
           symrel      1  0  0   0  1  0   0  0  1      -1  0  0   0 -1  0   0  0 -1
                       0 -1  1   0 -1  0   1 -1  0       0  1 -1   0  1  0  -1  1  0
                      -1  0  0  -1  0  1  -1  1  0       1  0  0   1  0 -1   1 -1  0
                       0  1 -1   1  0 -1   0  0 -1       0 -1  1  -1  0  1   0  0  1
                      -1  0  0  -1  1  0  -1  0  1       1  0  0   1 -1  0   1  0 -1
                       0 -1  1   1 -1  0   0 -1  0       0  1 -1  -1  1  0   0  1  0
                       1  0  0   0  0  1   0  1  0      -1  0  0   0  0 -1   0 -1  0
                       0  1 -1   0  0 -1   1  0 -1       0 -1  1   0  0  1  -1  0  1
                      -1  0  1  -1  1  0  -1  0  0       1  0 -1   1 -1  0   1  0  0
                       0 -1  0   1 -1  0   0 -1  1       0  1  0  -1  1  0   0  1 -1
                       1  0 -1   0  0 -1   0  1 -1      -1  0  1   0  0  1   0 -1  1
                       0  1  0   0  0  1   1  0  0       0 -1  0   0  0 -1  -1  0  0
                       1  0 -1   0  1 -1   0  0 -1      -1  0  1   0 -1  1   0  0  1
                       0 -1  0   0 -1  1   1 -1  0       0  1  0   0  1 -1  -1  1  0
                      -1  0  1  -1  0  0  -1  1  0       1  0 -1   1  0  0   1 -1  0
                       0  1  0   1  0  0   0  0  1       0 -1  0  -1  0  0   0  0 -1
                       0  0 -1   0  1 -1   1  0 -1       0  0  1   0 -1  1  -1  0  1
                       1 -1  0   0 -1  1   0 -1  0      -1  1  0   0  1 -1   0  1  0
                       0  0  1   1  0  0   0  1  0       0  0 -1  -1  0  0   0 -1  0
                      -1  1  0  -1  0  0  -1  0  1       1 -1  0   1  0  0   1  0 -1
                       0  0  1   0  1  0   1  0  0       0  0 -1   0 -1  0  -1  0  0
                       1 -1  0   0 -1  0   0 -1  1      -1  1  0   0  1  0   0  1 -1
                       0  0 -1   1  0 -1   0  1 -1       0  0  1  -1  0  1   0 -1  1
                      -1  1  0  -1  0  1  -1  0  0       1 -1  0   1  0 -1   1  0  0
           tolwfr      1.00000000E-16
            typat      1
              wtk        0.75000    0.25000
            znucl       13.00000

================================================================================


- Timing analysis has been suppressed with timopt=0



================================================================================

 Suggested references for the acknowledgment of ABINIT usage.

 The users of ABINIT have little formal obligations with respect to the ABINIT group
 (those specified in the GNU General Public License, http://www.gnu.org/copyleft/gpl.txt).
 However, it is common practice in the scientific literature,
 to acknowledge the efforts of people that have made the research possible.
 In this spirit, please find below suggested citations of work written by ABINIT developers,
 corresponding to implementations inside of ABINIT that you have used in the present run.
 Note also that it will be of great value to readers of publications presenting these results,
 to read papers enabling them to understand the theoretical formalism and details
 of the ABINIT implementation.
 For information on why they are suggested, see also http://www.abinit.org/about/?text=acknowledgments.

 [1] ABINIT : First-principles approach of materials and nanosystem properties.
 X. Gonze, B. Amadon, P.-M. Anglade, J.-M. Beuken, F. Bottin, P. Boulanger, F. Bruneval,
 D. Caliste, R. Caracas, M. Cote, T. Deutsch, L. Genovese, Ph. Ghosez, M. Giantomassi
 S. Goedecker, D.R. Hamann, P. Hermet, F. Jollet, G. Jomard, S. Leroux, M. Mancini, S. Mazevet,
 M.J.T. Oliveira, G. Onida, Y. Pouillon, T. Rangel, G.-M. Rignanese, D. Sangalli, R. Shaltaf,
 M. Torrent, M.J. Verstraete, G. Zerah, J.W. Zwanziger
 Computer Phys. Comm. 180, 2582-2615 (2009).
 Comment : the third generic paper describing the ABINIT project.
 Note that a version of this paper, that is not formatted for Computer Phys. Comm. 
 is available at http://www.abinit.org/about/ABINIT_CPC_v10.pdf .
 The licence allows the authors to put it on the Web.

 [2] A brief introduction to the ABINIT software package.
 X. Gonze, G.-M. Rignanese, M. Verstraete, J.-M. Beuken, Y. Pouillon, R. Caracas, F. Jollet,
 M. Torrent, G. Zerah, M. Mikami, Ph. Ghosez, M. Veithen, J.-Y. Raty, V. Olevano, F. Bruneval,
 L. Reining, R. Godby, G. Onida, D.R. Hamann, and D.C. Allan.
 Z. Kristallogr. 220, 558-562 (2005).
 Comment : the second generic paper describing the ABINIT project. Note that this paper
 should be cited especially if you are using the GW part of ABINIT, as several authors
 of this part are not in the list of authors of the first or third paper.
 The .pdf of the latter paper is available at http://www.abinit.org/about/zfk_0505-06_558-562.pdf.
 Note that it should not redistributed (Copyright by Oldenburg Wissenshaftverlag,
 the licence allows the authors to put it on the Web).


 And optionally :

 [3] First-principles computation of material properties : the ABINIT software project. 
 X. Gonze, J.-M. Beuken, R. Caracas, F. Detraux, M. Fuchs, G.-M. Rignanese, L. Sindic,
 M. Verstraete, G. Zerah, F. Jollet, M. Torrent, A. Roy, M. Mikami, Ph. Ghosez, J.-Y. Raty, D.C. Allan.
 Computational Materials Science 25, 478-492 (2002). http://dx.doi.org/10.1016/S0927-0256(02)00325-7
 Comment : the original paper describing the ABINIT project.

 [4] Fast radix 2, 3, 4 and 5 kernels for Fast Fourier Transformations
 on computers with overlapping multiply-add instructions.
 S. Goedecker, SIAM J. on Scientific Computing 18, 1605 (1997).
-
- Proc.   0 individual time (sec): cpu=          3.1  wall=          3.1

================================================================================

 Calculation completed.
.Delivered   30 WARNINGs and  10 COMMENTs to log file.
+Overall time at end (sec) : cpu=          3.1  wall=          3.1
