
.Version 7.9.3 of ABINIT 
.(MPI version, prepared for a x86_64_linux_gnu4.7 computer) 

.Copyright (C) 1998-2014 ABINIT group . 
 ABINIT comes with ABSOLUTELY NO WARRANTY.
 It is free software, and you are welcome to redistribute it
 under certain conditions (GNU General Public License,
 see ~abinit/COPYING or http://www.gnu.org/copyleft/gpl.txt).

 ABINIT is a project of the Universite Catholique de Louvain,
 Corning Inc. and other collaborators, see ~abinit/doc/developers/contributors.txt .
 Please read ~abinit/doc/users/acknowledgments.html for suggested
 acknowledgments of the ABINIT effort.
 For more information, see http://www.abinit.org .

.Starting date : Sat 30 Aug 2014.
- ( at 22h31 )
  
- input  file    -> t74.in
- output file    -> t74.out
- root for input  files -> t74i
- root for output files -> t74o


 DATASET    1 : space group Pm m m (# 47); Bravais oP (primitive ortho.)
================================================================================
 Values of the parameters that define the memory need for DATASET  1.
   intxc =         0  ionmov =         2    iscf =         5 xclevel =         1
  lmnmax =         1   lnmax =         1   mband =         1  mffmem =         1
P  mgfft =        16   mkmem =         1 mpssoang=         1     mpw =        95
  mqgrid =      3001   natom =         2    nfft =      2304    nkpt =         1
  nloalg =         4  nspden =         1 nspinor =         1  nsppol =         1
    nsym =         8  n1xccc =         0  ntypat =         1  occopt =         0
================================================================================
P This job should need less than                       0.929 Mbytes of memory.
  Rough estimation (10% accuracy) of disk space for files :
_ WF disk file :      0.003 Mbytes ; DEN or POT disk file :      0.020 Mbytes.
================================================================================


 DATASET    2 : space group Pm m m (# 47); Bravais oP (primitive ortho.)
================================================================================
 Values of the parameters that define the memory need for DATASET  2.
   intxc =         0  ionmov =         2    iscf =         5 xclevel =         1
  lmnmax =         1   lnmax =         1   mband =         1  mffmem =         1
P  mgfft =        16   mkmem =         1 mpssoang=         1     mpw =       122
  mqgrid =      3001   natom =         2    nfft =      2304    nkpt =         1
  nloalg =         4  nspden =         1 nspinor =         1  nsppol =         1
    nsym =         8  n1xccc =         0  ntypat =         1  occopt =         0
================================================================================
P This job should need less than                       0.938 Mbytes of memory.
  Rough estimation (10% accuracy) of disk space for files :
_ WF disk file :      0.004 Mbytes ; DEN or POT disk file :      0.020 Mbytes.
================================================================================


 DATASET    3 : space group Pm m m (# 47); Bravais oP (primitive ortho.)
================================================================================
 Values of the parameters that define the memory need for DATASET  3.
   intxc =         0  ionmov =         2    iscf =         5 xclevel =         1
  lmnmax =         1   lnmax =         1   mband =         1  mffmem =         1
P  mgfft =        18   mkmem =         1 mpssoang=         1     mpw =       162
  mqgrid =      3001   natom =         2    nfft =      4050    nkpt =         1
  nloalg =         4  nspden =         1 nspinor =         1  nsppol =         1
    nsym =         8  n1xccc =         0  ntypat =         1  occopt =         0
================================================================================
P This job should need less than                       1.334 Mbytes of memory.
  Rough estimation (10% accuracy) of disk space for files :
_ WF disk file :      0.004 Mbytes ; DEN or POT disk file :      0.033 Mbytes.
================================================================================


 DATASET    4 : space group Pm m m (# 47); Bravais oP (primitive ortho.)
================================================================================
 Values of the parameters that define the memory need for DATASET  4.
   intxc =         0  ionmov =         2    iscf =         5 xclevel =         1
  lmnmax =         1   lnmax =         1   mband =         1  mffmem =         1
P  mgfft =        20   mkmem =         1 mpssoang=         1     mpw =       217
  mqgrid =      3001   natom =         2    nfft =      4500    nkpt =         1
  nloalg =         4  nspden =         1 nspinor =         1  nsppol =         1
    nsym =         8  n1xccc =         0  ntypat =         1  occopt =         0
================================================================================
P This job should need less than                       1.451 Mbytes of memory.
  Rough estimation (10% accuracy) of disk space for files :
_ WF disk file :      0.005 Mbytes ; DEN or POT disk file :      0.036 Mbytes.
================================================================================


 DATASET    5 : space group Pm m m (# 47); Bravais oP (primitive ortho.)
================================================================================
 Values of the parameters that define the memory need for DATASET  5.
   intxc =         0  ionmov =         2    iscf =         5 xclevel =         1
  lmnmax =         1   lnmax =         1   mband =         1  mffmem =         1
P  mgfft =        24   mkmem =         1 mpssoang=         1     mpw =       279
  mqgrid =      3001   natom =         2    nfft =      6144    nkpt =         1
  nloalg =         4  nspden =         1 nspinor =         1  nsppol =         1
    nsym =         8  n1xccc =         0  ntypat =         1  occopt =         0
================================================================================
P This job should need less than                       1.849 Mbytes of memory.
  Rough estimation (10% accuracy) of disk space for files :
_ WF disk file :      0.006 Mbytes ; DEN or POT disk file :      0.049 Mbytes.
================================================================================


 DATASET    6 : space group Pm m m (# 47); Bravais oP (primitive ortho.)
================================================================================
 Values of the parameters that define the memory need for DATASET  6.
   intxc =         0  ionmov =         2    iscf =         5 xclevel =         1
  lmnmax =         1   lnmax =         1   mband =         1  mffmem =         1
P  mgfft =        24   mkmem =         1 mpssoang=         1     mpw =       368
  mqgrid =      3001   natom =         2    nfft =      6144    nkpt =         1
  nloalg =         4  nspden =         1 nspinor =         1  nsppol =         1
    nsym =         8  n1xccc =         0  ntypat =         1  occopt =         0
================================================================================
P This job should need less than                       1.877 Mbytes of memory.
  Rough estimation (10% accuracy) of disk space for files :
_ WF disk file :      0.008 Mbytes ; DEN or POT disk file :      0.049 Mbytes.
================================================================================


 DATASET    7 : space group Pm m m (# 47); Bravais oP (primitive ortho.)
================================================================================
 Values of the parameters that define the memory need for DATASET  7.
   intxc =         0  ionmov =         2    iscf =         5 xclevel =         1
  lmnmax =         1   lnmax =         1   mband =         1  mffmem =         1
P  mgfft =        27   mkmem =         1 mpssoang=         1     mpw =       476
  mqgrid =      3001   natom =         2    nfft =      8748    nkpt =         1
  nloalg =         4  nspden =         1 nspinor =         1  nsppol =         1
    nsym =         8  n1xccc =         0  ntypat =         1  occopt =         0
================================================================================
P This job should need less than                       2.483 Mbytes of memory.
  Rough estimation (10% accuracy) of disk space for files :
_ WF disk file :      0.009 Mbytes ; DEN or POT disk file :      0.069 Mbytes.
================================================================================


 DATASET    8 : space group Pm m m (# 47); Bravais oP (primitive ortho.)
================================================================================
 Values of the parameters that define the memory need for DATASET  8.
   intxc =         0  ionmov =         2    iscf =         5 xclevel =         1
  lmnmax =         1   lnmax =         1   mband =         1  mffmem =         1
P  mgfft =        30   mkmem =         1 mpssoang=         1     mpw =       635
  mqgrid =      3001   natom =         2    nfft =     12000    nkpt =         1
  nloalg =         4  nspden =         1 nspinor =         1  nsppol =         1
    nsym =         8  n1xccc =         0  ntypat =         1  occopt =         0
================================================================================
P This job should need less than                       3.271 Mbytes of memory.
  Rough estimation (10% accuracy) of disk space for files :
_ WF disk file :      0.012 Mbytes ; DEN or POT disk file :      0.094 Mbytes.
================================================================================


 DATASET    9 : space group Pm m m (# 47); Bravais oP (primitive ortho.)
================================================================================
 Values of the parameters that define the memory need for DATASET  9.
   intxc =         0  ionmov =         2    iscf =         5 xclevel =         1
  lmnmax =         1   lnmax =         1   mband =         1  mffmem =         1
P  mgfft =        30   mkmem =         1 mpssoang=         1     mpw =       833
  mqgrid =      3001   natom =         2    nfft =     17280    nkpt =         1
  nloalg =         4  nspden =         1 nspinor =         1  nsppol =         1
    nsym =         8  n1xccc =         0  ntypat =         1  occopt =         0
================================================================================
P This job should need less than                       4.512 Mbytes of memory.
  Rough estimation (10% accuracy) of disk space for files :
_ WF disk file :      0.015 Mbytes ; DEN or POT disk file :      0.134 Mbytes.
================================================================================


 DATASET   10 : space group Pm m m (# 47); Bravais oP (primitive ortho.)
================================================================================
 Values of the parameters that define the memory need for DATASET 10.
   intxc =         0  ionmov =         2    iscf =         5 xclevel =         1
  lmnmax =         1   lnmax =         1   mband =         1  mffmem =         1
P  mgfft =        36   mkmem =         1 mpssoang=         1     mpw =      1094
  mqgrid =      3001   natom =         2    nfft =     20736    nkpt =         1
  nloalg =         4  nspden =         1 nspinor =         1  nsppol =         1
    nsym =         8  n1xccc =         0  ntypat =         1  occopt =         0
================================================================================
P This job should need less than                       5.365 Mbytes of memory.
  Rough estimation (10% accuracy) of disk space for files :
_ WF disk file :      0.019 Mbytes ; DEN or POT disk file :      0.160 Mbytes.
================================================================================

--------------------------------------------------------------------------------
------------- Echo of variables that govern the present computation ------------
--------------------------------------------------------------------------------
-
- outvars: echo of selected default values                                      
-   accesswff0 =  0 , fftalg0 =112 , wfoptalg0 =  0
-
- outvars: echo of global parameters not present in the input file              
-  max_nthreads =    0
-
 -outvars: echo values of preprocessed input variables --------
            acell      7.0000000000E+00  5.0000000000E+00  5.0000000000E+00 Bohr
              amu      1.00794000E+00
           diemac      1.00000000E+00
           diemix      5.00000000E-01
             ecut1     5.00000000E+00 Hartree
             ecut2     6.00000000E+00 Hartree
             ecut3     7.20000000E+00 Hartree
             ecut4     8.64000000E+00 Hartree
             ecut5     1.03680000E+01 Hartree
             ecut6     1.24416000E+01 Hartree
             ecut7     1.49299200E+01 Hartree
             ecut8     1.79159040E+01 Hartree
             ecut9     2.14990848E+01 Hartree
             ecut10    2.57989018E+01 Hartree
-          fftalg         112
           getwfk          -1
         getxcart          -1
           ionmov           2
           iprcch           1
             iscf           5
           jdtset        1    2    3    4    5    6    7    8    9   10
              kpt      2.50000000E-01  2.50000000E-01  2.50000000E-01
           kptopt           0
P           mkmem           1
            natom           2
            nband           1
           ndtset          10
            ngfft1         16      12      12
            ngfft2         16      12      12
            ngfft3         18      15      15
            ngfft4         20      15      15
            ngfft5         24      16      16
            ngfft6         24      16      16
            ngfft7         27      18      18
            ngfft8         30      20      20
            ngfft9         30      24      24
            ngfft10        36      24      24
             nkpt           1
            nline           3
            nstep           7
             nsym           8
            ntime           5
           ntypat           1
              occ      2.000000
           occopt           0
        optforces           1
          spgroup          47
           symrel      1  0  0   0  1  0   0  0  1      -1  0  0   0  1  0   0  0  1
                       1  0  0   0 -1  0   0  0  1      -1  0  0   0 -1  0   0  0  1
                       1  0  0   0  1  0   0  0 -1      -1  0  0   0  1  0   0  0 -1
                       1  0  0   0 -1  0   0  0 -1      -1  0  0   0 -1  0   0  0 -1
           toldff      5.00000000E-06
            typat      1  1
           xangst     -3.8500000000E-01  0.0000000000E+00  0.0000000000E+00
                       3.8500000000E-01  0.0000000000E+00  0.0000000000E+00
            xcart     -7.2754456116E-01  0.0000000000E+00  0.0000000000E+00
                       7.2754456116E-01  0.0000000000E+00  0.0000000000E+00
             xred     -1.0393493731E-01  0.0000000000E+00  0.0000000000E+00
                       1.0393493731E-01  0.0000000000E+00  0.0000000000E+00
            znucl        1.00000

================================================================================

 chkinp: Checking input parameters for consistency, jdtset=   1.

 chkinp: Checking input parameters for consistency, jdtset=   2.

 chkinp: Checking input parameters for consistency, jdtset=   3.

 chkinp: Checking input parameters for consistency, jdtset=   4.

 chkinp: Checking input parameters for consistency, jdtset=   5.

 chkinp: Checking input parameters for consistency, jdtset=   6.

 chkinp: Checking input parameters for consistency, jdtset=   7.

 chkinp: Checking input parameters for consistency, jdtset=   8.

 chkinp: Checking input parameters for consistency, jdtset=   9.

 chkinp: Checking input parameters for consistency, jdtset=  10.

================================================================================
== DATASET  1 ==================================================================
-   nproc =    1

 Exchange-correlation functional for the present dataset will be:
  LDA: new Teter (4/93) with spin-polarized option - ixc=1
 Citation for XC functional:
  S. Goedecker, M. Teter, J. Huetter, PRB 54, 1703 (1996)

 Real(R)+Recip(G) space primitive vectors, cartesian coordinates (Bohr,Bohr^-1):
 R(1)=  7.0000000  0.0000000  0.0000000  G(1)=  0.1428571  0.0000000  0.0000000
 R(2)=  0.0000000  5.0000000  0.0000000  G(2)=  0.0000000  0.2000000  0.0000000
 R(3)=  0.0000000  0.0000000  5.0000000  G(3)=  0.0000000  0.0000000  0.2000000
 Unit cell volume ucvol=  1.7500000E+02 bohr^3
 Angles (23,13,12)=  9.00000000E+01  9.00000000E+01  9.00000000E+01 degrees

 getcut: wavevector=  0.0000  0.0000  0.0000  ngfft=  16  12  12
         ecut(hartree)=      5.000   => boxcut(ratio)=   2.27076

 getcut : COMMENT -
  Note that boxcut > 2.2 ; recall that boxcut=Gcut(box)/Gcut(sphere) = 2
  is sufficient for exact treatment of convolution.
  Such a large boxcut is a waste : you could raise ecut
  e.g. ecut=    6.445456 Hartrees makes boxcut=2


--- Pseudopotential description ------------------------------------------------
- pspini: atom type   1  psp file is /home/gonze/ABINIT/ABINITv7.9.3/trunk/7.9.3-private/tests/Psps_for_tests/1h.pspnc
- pspatm: opening atomic psp file    /home/gonze/ABINIT/ABINITv7.9.3/trunk/7.9.3-private/tests/Psps_for_tests/1h.pspnc
-  Troullier-Martins psp for element  H         Thu Oct 27 17:28:54 EDT 1994
-  1.00000   1.00000    940714                znucl, zion, pspdat
    1    1    0    0      2001   0.00000      pspcod,pspxc,lmax,lloc,mmax,r2well
    0   7.740  11.990    0   1.5855604        l,e99.0,e99.9,nproj,rcpsp
   0.00000000   0.00000000   0.00000000   0.00000000     rms, ekb1, ekb2, epsatm
    0.00000000000000    0.00000000000000    0.00000000000000   rchrg,fchrg,qchrg
 Note: local psp for atom with Z=  1.0
 pspatm: epsatm=    0.04198703
         --- l  ekb(1:nproj) -->
 pspatm: atomic psp has been read  and splines computed

   1.67948119E-01                                ecore*ucvol(ha*bohr**3)
--------------------------------------------------------------------------------

P newkpt: treating      1 bands with npw=      95 for ikpt=   1 by node    0

_setup2: Arith. and geom. avg. npw (full set) are      95.000      95.000

================================================================================

=== [ionmov= 2] Broyden-Fletcher-Goldfard-Shanno method (forces)            
================================================================================

--- Iteration: (1/5) Internal Cycle: (1/1)
--------------------------------------------------------------------------------

---SELF-CONSISTENT-FIELD CONVERGENCE--------------------------------------------

     iter   Etot(hartree)      deltaE(h)  residm     vres2    diffor    maxfor
 ETOT  1  -1.1071290755068    -1.107E+00 4.725E-06 2.522E+00 9.350E-03 9.350E-03
 ETOT  2  -1.1085017398420    -1.373E-03 9.295E-10 5.483E-01 7.091E-03 2.259E-03
 ETOT  3  -1.1087419267508    -2.402E-04 7.259E-07 7.087E-02 4.850E-03 2.591E-03
 ETOT  4  -1.1087524147014    -1.049E-05 1.164E-08 1.983E-02 1.997E-04 2.391E-03
 ETOT  5  -1.1087559728877    -3.558E-06 1.017E-08 3.453E-05 1.271E-04 2.264E-03
 ETOT  6  -1.1087559817542    -8.866E-09 2.116E-11 2.904E-06 1.031E-05 2.275E-03
 ETOT  7  -1.1087559820212    -2.671E-10 9.574E-13 5.982E-08 7.241E-07 2.274E-03

 Cartesian components of stress tensor (hartree/bohr^3)
  sigma(1 1)=  1.18273967E-04  sigma(3 2)=  0.00000000E+00
  sigma(2 2)=  5.06569762E-04  sigma(3 1)=  0.00000000E+00
  sigma(3 3)=  5.06569749E-04  sigma(2 1)=  0.00000000E+00


---OUTPUT-----------------------------------------------------------------------

 Cartesian coordinates (xcart) [bohr]
 -7.27544561160973E-01  0.00000000000000E+00  0.00000000000000E+00
  7.27544561160973E-01  0.00000000000000E+00  0.00000000000000E+00
 Reduced coordinates (xred)
 -1.03934937308710E-01  0.00000000000000E+00  0.00000000000000E+00
  1.03934937308710E-01  0.00000000000000E+00  0.00000000000000E+00
 Cartesian forces (fcart) [Ha/bohr]; max,rms= 2.27397E-03 1.31288E-03 (free atoms)
 -2.27397369449358E-03 -0.00000000000000E+00 -0.00000000000000E+00
  2.27397369449358E-03 -0.00000000000000E+00 -0.00000000000000E+00
 Reduced forces (fred)
  1.59178158614550E-02  0.00000000000000E+00  0.00000000000000E+00
 -1.59178158614550E-02  0.00000000000000E+00  0.00000000000000E+00
 Total energy (etotal) [Ha]= -1.10875598202121E+00

--- Iteration: (2/5) Internal Cycle: (1/1)
--------------------------------------------------------------------------------

---SELF-CONSISTENT-FIELD CONVERGENCE--------------------------------------------

     iter   Etot(hartree)      deltaE(h)  residm     vres2    diffor    maxfor
 ETOT  1  -1.1087621812110    -1.109E+00 1.358E-11 1.670E-04 1.459E-03 8.146E-04
 ETOT  2  -1.1087625393818    -3.582E-07 7.209E-13 1.403E-06 1.857E-04 6.289E-04
 ETOT  3  -1.1087625408841    -1.502E-09 4.179E-12 4.881E-08 1.161E-05 6.173E-04
 ETOT  4  -1.1087625408964    -1.230E-11 6.918E-14 8.251E-09 6.057E-07 6.166E-04
 ETOT  5  -1.1087625408987    -2.294E-12 4.487E-15 5.224E-11 2.151E-07 6.164E-04

 At SCF step    5, forces are converged : 
  for the second time, max diff in force=  2.151E-07 < toldff=  5.000E-06

 Cartesian components of stress tensor (hartree/bohr^3)
  sigma(1 1)=  1.32840083E-04  sigma(3 2)=  0.00000000E+00
  sigma(2 2)=  5.04593579E-04  sigma(3 1)=  0.00000000E+00
  sigma(3 3)=  5.04593579E-04  sigma(2 1)=  0.00000000E+00


---OUTPUT-----------------------------------------------------------------------

 Cartesian coordinates (xcart) [bohr]
 -7.29818534855466E-01  0.00000000000000E+00  0.00000000000000E+00
  7.29818534855466E-01  0.00000000000000E+00  0.00000000000000E+00
 Reduced coordinates (xred)
 -1.04259790693638E-01  0.00000000000000E+00  0.00000000000000E+00
  1.04259790693638E-01  0.00000000000000E+00  0.00000000000000E+00
 Cartesian forces (fcart) [Ha/bohr]; max,rms= 6.16433E-04 3.55898E-04 (free atoms)
 -6.16432809617581E-04 -0.00000000000000E+00 -0.00000000000000E+00
  6.16432809617581E-04 -0.00000000000000E+00 -0.00000000000000E+00
 Reduced forces (fred)
  4.31502966732307E-03  0.00000000000000E+00  0.00000000000000E+00
 -4.31502966732307E-03  0.00000000000000E+00  0.00000000000000E+00
 Total energy (etotal) [Ha]= -1.10876254089870E+00

 Difference of energy with previous step (new-old):
           Absolute (Ha)=-6.55888E-06
           Relative     =-5.91551E-06

--- Iteration: (3/5) Internal Cycle: (1/1)
--------------------------------------------------------------------------------

---SELF-CONSISTENT-FIELD CONVERGENCE--------------------------------------------

     iter   Etot(hartree)      deltaE(h)  residm     vres2    diffor    maxfor
 ETOT  1  -1.1087630189778    -1.109E+00 1.895E-12 2.312E-05 5.344E-04 8.206E-05
 ETOT  2  -1.1087630652403    -4.626E-08 1.829E-13 1.292E-06 9.322E-05 1.115E-05
 ETOT  3  -1.1087630687049    -3.465E-09 9.637E-12 3.883E-08 1.942E-05 8.273E-06
 ETOT  4  -1.1087630687136    -8.703E-12 1.768E-14 2.101E-10 1.436E-07 8.417E-06
 ETOT  5  -1.1087630687136    -4.130E-14 7.703E-17 1.760E-11 7.259E-09 8.410E-06

 At SCF step    5, forces are converged : 
  for the second time, max diff in force=  7.259E-09 < toldff=  5.000E-06

 Cartesian components of stress tensor (hartree/bohr^3)
  sigma(1 1)=  1.38224175E-04  sigma(3 2)=  0.00000000E+00
  sigma(2 2)=  5.03862859E-04  sigma(3 1)=  0.00000000E+00
  sigma(3 3)=  5.03862859E-04  sigma(2 1)=  0.00000000E+00


---OUTPUT-----------------------------------------------------------------------

 Cartesian coordinates (xcart) [bohr]
 -7.30664216555558E-01  0.00000000000000E+00  0.00000000000000E+00
  7.30664216555558E-01  0.00000000000000E+00  0.00000000000000E+00
 Reduced coordinates (xred)
 -1.04380602365080E-01  0.00000000000000E+00  0.00000000000000E+00
  1.04380602365080E-01  0.00000000000000E+00  0.00000000000000E+00
 Cartesian forces (fcart) [Ha/bohr]; max,rms= 8.40951E-06 4.85523E-06 (free atoms)
 -8.40951145970276E-06 -0.00000000000000E+00 -0.00000000000000E+00
  8.40951145970276E-06 -0.00000000000000E+00 -0.00000000000000E+00
 Reduced forces (fred)
  5.88665802179193E-05  0.00000000000000E+00  0.00000000000000E+00
 -5.88665802179193E-05  0.00000000000000E+00  0.00000000000000E+00
 Total energy (etotal) [Ha]= -1.10876306871364E+00

 Difference of energy with previous step (new-old):
           Absolute (Ha)=-5.27815E-07
           Relative     =-4.76040E-07

 At Broyd/MD step   3, gradients are converged : 
  max grad (force/stress) = 8.4095E-06 < tolmxf= 5.0000E-05 ha/bohr (free atoms)

================================================================================

 ----iterations are completed or convergence reached----

 Mean square residual over all n,k,spin=   7.7030E-17; max=  7.7030E-17
   0.2500  0.2500  0.2500    1  7.70300E-17 kpt; spin; max resid(k); each band:
  7.70E-17
 reduced coordinates (array xred) for    2 atoms
      -0.104380602365      0.000000000000      0.000000000000
       0.104380602365      0.000000000000      0.000000000000
 rms dE/dt=  3.3987E-05; max dE/dt=  5.8867E-05; dE/dt below (all hartree)
    1       0.000058866580      0.000000000000      0.000000000000
    2      -0.000058866580      0.000000000000      0.000000000000

 cartesian coordinates (angstrom) at end:
    1     -0.38665085053347     0.00000000000000     0.00000000000000
    2      0.38665085053347     0.00000000000000     0.00000000000000

 cartesian forces (hartree/bohr) at end:
    1     -0.00000840951146    -0.00000000000000    -0.00000000000000
    2      0.00000840951146    -0.00000000000000    -0.00000000000000
 frms,max,avg= 4.8552337E-06 8.4095115E-06   0.000E+00  0.000E+00  0.000E+00 h/b

 cartesian forces (eV/Angstrom) at end:
    1     -0.00043243442970    -0.00000000000000    -0.00000000000000
    2      0.00043243442970    -0.00000000000000    -0.00000000000000
 frms,max,avg= 2.4966613E-04 4.3243443E-04   0.000E+00  0.000E+00  0.000E+00 e/A
 length scales=  7.000000000000  5.000000000000  5.000000000000 bohr
              =  3.704240460130  2.645886042950  2.645886042950 angstroms
 prteigrs : about to open file t74o_DS1_EIG
 Fermi (or HOMO) energy (hartree) =  -0.31778   Average Vxc (hartree)=  -0.20751
 Eigenvalues (hartree) for nkpt=   1  k points:
 kpt#   1, nband=  1, wtk=  1.00000, kpt=  0.2500  0.2500  0.2500 (reduced coord)
  -0.31778
 Total charge density [el/Bohr^3]
,     Maximum=    2.2453E-01  at reduced coord.    0.0000    0.0000    0.0000
,Next maximum=    2.0180E-01  at reduced coord.    0.9375    0.0000    0.0000
,     Minimum=    2.2849E-04  at reduced coord.    0.5000    0.5000    0.5000
,Next minimum=    2.3790E-04  at reduced coord.    0.5000    0.5000    0.4167
,  Integrated=    2.0000E+00

--------------------------------------------------------------------------------
 Components of total free energy (in Hartree) :

    Kinetic energy  =  9.27340278303329E-01
    Hartree energy  =  3.79003487074134E-01
    XC energy       = -6.25371962476623E-01
    Ewald energy    = -2.86178367424027E-01
    PspCore energy  =  9.59703539395516E-04
    Loc. psp. energy= -1.50451620772985E+00
    NL   psp  energy=  0.00000000000000E+00
    >>>>>>>>> Etotal= -1.10876306871364E+00

 Other information on the energy :
    Total energy(eV)= -3.01709774725584E+01 ; Band energy (Ha)=  -6.3556454434E-01
--------------------------------------------------------------------------------
 rms coord change=  2.5730E-04   atom, delta coord (reduced):
     1       -0.000445665056      0.000000000000      0.000000000000
     2        0.000445665056      0.000000000000      0.000000000000

 Cartesian components of stress tensor (hartree/bohr^3)
  sigma(1 1)=  1.38224175E-04  sigma(3 2)=  0.00000000E+00
  sigma(2 2)=  5.03862859E-04  sigma(3 1)=  0.00000000E+00
  sigma(3 3)=  5.03862859E-04  sigma(2 1)=  0.00000000E+00

-Cartesian components of stress tensor (GPa)         [Pressure= -1.1238E+01 GPa]
- sigma(1 1)=  4.06669495E+00  sigma(3 2)=  0.00000000E+00
- sigma(2 2)=  1.48241546E+01  sigma(3 1)=  0.00000000E+00
- sigma(3 3)=  1.48241546E+01  sigma(2 1)=  0.00000000E+00

================================================================================
== DATASET  2 ==================================================================
-   nproc =    1

 mkfilename : getwfk/=0, take file _WFK from output of DATASET   1.

 find_getdtset : getxcart/=0, take data from output of dataset with index  1.

 Exchange-correlation functional for the present dataset will be:
  LDA: new Teter (4/93) with spin-polarized option - ixc=1
 Citation for XC functional:
  S. Goedecker, M. Teter, J. Huetter, PRB 54, 1703 (1996)

 Real(R)+Recip(G) space primitive vectors, cartesian coordinates (Bohr,Bohr^-1):
 R(1)=  7.0000000  0.0000000  0.0000000  G(1)=  0.1428571  0.0000000  0.0000000
 R(2)=  0.0000000  5.0000000  0.0000000  G(2)=  0.0000000  0.2000000  0.0000000
 R(3)=  0.0000000  0.0000000  5.0000000  G(3)=  0.0000000  0.0000000  0.2000000
 Unit cell volume ucvol=  1.7500000E+02 bohr^3
 Angles (23,13,12)=  9.00000000E+01  9.00000000E+01  9.00000000E+01 degrees

 getcut: wavevector=  0.0000  0.0000  0.0000  ngfft=  16  12  12
         ecut(hartree)=      6.000   => boxcut(ratio)=   2.07291

--- Pseudopotential description ------------------------------------------------
- pspini: atom type   1  psp file is /home/gonze/ABINIT/ABINITv7.9.3/trunk/7.9.3-private/tests/Psps_for_tests/1h.pspnc
- pspatm: opening atomic psp file    /home/gonze/ABINIT/ABINITv7.9.3/trunk/7.9.3-private/tests/Psps_for_tests/1h.pspnc
-  Troullier-Martins psp for element  H         Thu Oct 27 17:28:54 EDT 1994
-  1.00000   1.00000    940714                znucl, zion, pspdat
    1    1    0    0      2001   0.00000      pspcod,pspxc,lmax,lloc,mmax,r2well
    0   7.740  11.990    0   1.5855604        l,e99.0,e99.9,nproj,rcpsp
   0.00000000   0.00000000   0.00000000   0.00000000     rms, ekb1, ekb2, epsatm
    0.00000000000000    0.00000000000000    0.00000000000000   rchrg,fchrg,qchrg
 Note: local psp for atom with Z=  1.0
 pspatm: epsatm=    0.04198703
         --- l  ekb(1:nproj) -->
 pspatm: atomic psp has been read  and splines computed

--------------------------------------------------------------------------------

-inwffil : will read wavefunctions from disk file t74o_DS1_WFK
- newkpt: read input wf with ikpt,npw=   1      95, make ikpt,npw=   1     122

_setup2: Arith. and geom. avg. npw (full set) are     122.000     122.000

================================================================================

=== [ionmov= 2] Broyden-Fletcher-Goldfard-Shanno method (forces)            
================================================================================

--- Iteration: (1/5) Internal Cycle: (1/1)
--------------------------------------------------------------------------------

---SELF-CONSISTENT-FIELD CONVERGENCE--------------------------------------------

     iter   Etot(hartree)      deltaE(h)  residm     vres2    diffor    maxfor
 ETOT  1  -1.1197327441964    -1.120E+00 2.684E-09 2.302E-02 1.094E-02 1.094E-02
 ETOT  2  -1.1197481535461    -1.541E-05 2.254E-11 5.185E-03 9.934E-04 9.950E-03
 ETOT  3  -1.1197503471517    -2.194E-06 5.559E-09 1.060E-03 5.402E-04 9.409E-03
 ETOT  4  -1.1197504425993    -9.545E-08 6.970E-11 2.754E-04 8.123E-06 9.418E-03
 ETOT  5  -1.1197504748206    -3.222E-08 6.728E-11 1.845E-07 1.461E-06 9.419E-03
 ETOT  6  -1.1197504748495    -2.891E-11 7.928E-14 1.661E-08 1.820E-06 9.421E-03

 At SCF step    6, forces are converged : 
  for the second time, max diff in force=  1.820E-06 < toldff=  5.000E-06

 Cartesian components of stress tensor (hartree/bohr^3)
  sigma(1 1)=  2.08553090E-04  sigma(3 2)=  0.00000000E+00
  sigma(2 2)=  4.15153442E-04  sigma(3 1)=  0.00000000E+00
  sigma(3 3)=  4.15153442E-04  sigma(2 1)=  0.00000000E+00


---OUTPUT-----------------------------------------------------------------------

 Cartesian coordinates (xcart) [bohr]
 -7.30664216555558E-01  0.00000000000000E+00  0.00000000000000E+00
  7.30664216555558E-01  0.00000000000000E+00  0.00000000000000E+00
 Reduced coordinates (xred)
 -1.04380602365080E-01  0.00000000000000E+00  0.00000000000000E+00
  1.04380602365080E-01  0.00000000000000E+00  0.00000000000000E+00
 Cartesian forces (fcart) [Ha/bohr]; max,rms= 9.42089E-03 5.43915E-03 (free atoms)
  9.42089167532228E-03 -0.00000000000000E+00 -0.00000000000000E+00
 -9.42089167532228E-03 -0.00000000000000E+00 -0.00000000000000E+00
 Reduced forces (fred)
 -6.59462417272559E-02  0.00000000000000E+00  0.00000000000000E+00
  6.59462417272559E-02  0.00000000000000E+00  0.00000000000000E+00
 Total energy (etotal) [Ha]= -1.11975047484948E+00

--- Iteration: (2/5) Internal Cycle: (1/1)
--------------------------------------------------------------------------------

---SELF-CONSISTENT-FIELD CONVERGENCE--------------------------------------------

     iter   Etot(hartree)      deltaE(h)  residm     vres2    diffor    maxfor
 ETOT  1  -1.1198646499496    -1.120E+00 3.518E-10 3.103E-03 5.105E-03 4.316E-03
 ETOT  2  -1.1198716682961    -7.018E-06 1.985E-11 2.482E-05 8.947E-04 3.421E-03
 ETOT  3  -1.1198716968951    -2.860E-08 9.715E-11 8.356E-07 5.662E-05 3.365E-03
 ETOT  4  -1.1198716969104    -1.529E-11 2.861E-12 8.429E-07 3.944E-06 3.361E-03
 ETOT  5  -1.1198716971658    -2.555E-10 8.147E-13 1.326E-09 1.170E-06 3.360E-03

 At SCF step    5, forces are converged : 
  for the second time, max diff in force=  1.170E-06 < toldff=  5.000E-06

 Cartesian components of stress tensor (hartree/bohr^3)
  sigma(1 1)=  1.51783141E-04  sigma(3 2)=  0.00000000E+00
  sigma(2 2)=  4.21101160E-04  sigma(3 1)=  0.00000000E+00
  sigma(3 3)=  4.21101160E-04  sigma(2 1)=  0.00000000E+00


---OUTPUT-----------------------------------------------------------------------

 Cartesian coordinates (xcart) [bohr]
 -7.21243324880235E-01  0.00000000000000E+00  0.00000000000000E+00
  7.21243324880235E-01  0.00000000000000E+00  0.00000000000000E+00
 Reduced coordinates (xred)
 -1.03034760697176E-01  0.00000000000000E+00  0.00000000000000E+00
  1.03034760697176E-01  0.00000000000000E+00  0.00000000000000E+00
 Cartesian forces (fcart) [Ha/bohr]; max,rms= 3.35962E-03 1.93968E-03 (free atoms)
  3.35962297469449E-03 -0.00000000000000E+00 -0.00000000000000E+00
 -3.35962297469449E-03 -0.00000000000000E+00 -0.00000000000000E+00
 Reduced forces (fred)
 -2.35173608228614E-02  0.00000000000000E+00  0.00000000000000E+00
  2.35173608228614E-02  0.00000000000000E+00  0.00000000000000E+00
 Total energy (etotal) [Ha]= -1.11987169716583E+00

 Difference of energy with previous step (new-old):
           Absolute (Ha)=-1.21222E-04
           Relative     =-1.08252E-04

--- Iteration: (3/5) Internal Cycle: (1/1)
--------------------------------------------------------------------------------

---SELF-CONSISTENT-FIELD CONVERGENCE--------------------------------------------

     iter   Etot(hartree)      deltaE(h)  residm     vres2    diffor    maxfor
 ETOT  1  -1.1198860231874    -1.120E+00 1.032E-10 9.546E-04 3.054E-03 3.053E-04
 ETOT  2  -1.1198878553261    -1.832E-06 1.324E-11 1.296E-04 7.445E-04 4.392E-04
 ETOT  3  -1.1198882023806    -3.471E-07 1.180E-09 1.468E-06 2.118E-04 2.274E-04
 ETOT  4  -1.1198882027699    -3.893E-10 1.543E-12 1.447E-09 5.589E-07 2.268E-04
 ETOT  5  -1.1198882027708    -8.549E-13 8.952E-15 5.423E-10 1.044E-07 2.269E-04

 At SCF step    5, forces are converged : 
  for the second time, max diff in force=  1.044E-07 < toldff=  5.000E-06

 Cartesian components of stress tensor (hartree/bohr^3)
  sigma(1 1)=  1.19225510E-04  sigma(3 2)=  0.00000000E+00
  sigma(2 2)=  4.24520044E-04  sigma(3 1)=  0.00000000E+00
  sigma(3 3)=  4.24520044E-04  sigma(2 1)=  0.00000000E+00


---OUTPUT-----------------------------------------------------------------------

 Cartesian coordinates (xcart) [bohr]
 -7.16021539528393E-01  0.00000000000000E+00  0.00000000000000E+00
  7.16021539528393E-01  0.00000000000000E+00  0.00000000000000E+00
 Reduced coordinates (xred)
 -1.02288791361199E-01  0.00000000000000E+00  0.00000000000000E+00
  1.02288791361199E-01  0.00000000000000E+00  0.00000000000000E+00
 Cartesian forces (fcart) [Ha/bohr]; max,rms= 2.26945E-04 1.31027E-04 (free atoms)
 -2.26944861023171E-04 -0.00000000000000E+00 -0.00000000000000E+00
  2.26944861023171E-04 -0.00000000000000E+00 -0.00000000000000E+00
 Reduced forces (fred)
  1.58861402716220E-03  0.00000000000000E+00  0.00000000000000E+00
 -1.58861402716220E-03  0.00000000000000E+00  0.00000000000000E+00
 Total energy (etotal) [Ha]= -1.11988820277076E+00

 Difference of energy with previous step (new-old):
           Absolute (Ha)=-1.65056E-05
           Relative     =-1.47387E-05

--- Iteration: (4/5) Internal Cycle: (1/1)
--------------------------------------------------------------------------------

---SELF-CONSISTENT-FIELD CONVERGENCE--------------------------------------------

     iter   Etot(hartree)      deltaE(h)  residm     vres2    diffor    maxfor
 ETOT  1  -1.1198882673896    -1.120E+00 4.104E-13 3.822E-06 1.981E-04 2.888E-05
 ETOT  2  -1.1198882747469    -7.357E-09 5.311E-14 5.207E-07 4.722E-05 1.834E-05
 ETOT  3  -1.1198882761404    -1.393E-09 4.725E-12 5.734E-09 1.341E-05 4.930E-06
 ETOT  4  -1.1198882761419    -1.514E-12 6.071E-15 5.574E-12 4.931E-08 4.881E-06
 ETOT  5  -1.1198882761419    -1.310E-14 3.438E-17 2.100E-12 9.207E-09 4.890E-06

 At SCF step    5, forces are converged : 
  for the second time, max diff in force=  9.207E-09 < toldff=  5.000E-06

 Cartesian components of stress tensor (hartree/bohr^3)
  sigma(1 1)=  1.21308069E-04  sigma(3 2)=  0.00000000E+00
  sigma(2 2)=  4.24301432E-04  sigma(3 1)=  0.00000000E+00
  sigma(3 3)=  4.24301432E-04  sigma(2 1)=  0.00000000E+00


---OUTPUT-----------------------------------------------------------------------

 Cartesian coordinates (xcart) [bohr]
 -7.16351954957641E-01  0.00000000000000E+00  0.00000000000000E+00
  7.16351954957641E-01  0.00000000000000E+00  0.00000000000000E+00
 Reduced coordinates (xred)
 -1.02335993565377E-01  0.00000000000000E+00  0.00000000000000E+00
  1.02335993565377E-01  0.00000000000000E+00  0.00000000000000E+00
 Cartesian forces (fcart) [Ha/bohr]; max,rms= 4.88988E-06 2.82317E-06 (free atoms)
  4.88987940712811E-06 -0.00000000000000E+00 -0.00000000000000E+00
 -4.88987940712811E-06 -0.00000000000000E+00 -0.00000000000000E+00
 Reduced forces (fred)
 -3.42291558498968E-05  0.00000000000000E+00  0.00000000000000E+00
  3.42291558498968E-05  0.00000000000000E+00  0.00000000000000E+00
 Total energy (etotal) [Ha]= -1.11988827614195E+00

 Difference of energy with previous step (new-old):
           Absolute (Ha)=-7.33712E-08
           Relative     =-6.55165E-08

 At Broyd/MD step   4, gradients are converged : 
  max grad (force/stress) = 4.8899E-06 < tolmxf= 5.0000E-05 ha/bohr (free atoms)

================================================================================

 ----iterations are completed or convergence reached----

 Mean square residual over all n,k,spin=   3.4377E-17; max=  3.4377E-17
   0.2500  0.2500  0.2500    1  3.43774E-17 kpt; spin; max resid(k); each band:
  3.44E-17
 reduced coordinates (array xred) for    2 atoms
      -0.102335993565      0.000000000000      0.000000000000
       0.102335993565      0.000000000000      0.000000000000
 rms dE/dt=  1.9762E-05; max dE/dt=  3.4229E-05; dE/dt below (all hartree)
    1      -0.000034229156      0.000000000000      0.000000000000
    2       0.000034229156      0.000000000000      0.000000000000

 cartesian coordinates (angstrom) at end:
    1     -0.37907712789247     0.00000000000000     0.00000000000000
    2      0.37907712789247     0.00000000000000     0.00000000000000

 cartesian forces (hartree/bohr) at end:
    1      0.00000488987941    -0.00000000000000    -0.00000000000000
    2     -0.00000488987941    -0.00000000000000    -0.00000000000000
 frms,max,avg= 2.8231732E-06 4.8898794E-06   0.000E+00  0.000E+00  0.000E+00 h/b

 cartesian forces (eV/Angstrom) at end:
    1      0.00025144768788    -0.00000000000000    -0.00000000000000
    2     -0.00025144768788    -0.00000000000000    -0.00000000000000
 frms,max,avg= 1.4517339E-04 2.5144769E-04   0.000E+00  0.000E+00  0.000E+00 e/A
 length scales=  7.000000000000  5.000000000000  5.000000000000 bohr
              =  3.704240460130  2.645886042950  2.645886042950 angstroms
 prteigrs : about to open file t74o_DS2_EIG
 Fermi (or HOMO) energy (hartree) =  -0.32316   Average Vxc (hartree)=  -0.20588
 Eigenvalues (hartree) for nkpt=   1  k points:
 kpt#   1, nband=  1, wtk=  1.00000, kpt=  0.2500  0.2500  0.2500 (reduced coord)
  -0.32316
 Total charge density [el/Bohr^3]
,     Maximum=    2.4287E-01  at reduced coord.    0.0000    0.0000    0.0000
,Next maximum=    2.1787E-01  at reduced coord.    0.9375    0.0000    0.0000
,     Minimum=    2.2957E-04  at reduced coord.    0.5000    0.5000    0.5000
,Next minimum=    2.4690E-04  at reduced coord.    0.5000    0.5000    0.4167
,  Integrated=    2.0000E+00

--------------------------------------------------------------------------------
 Components of total free energy (in Hartree) :

    Kinetic energy  =  9.59919134276530E-01
    Hartree energy  =  3.95603745487727E-01
    XC energy       = -6.34078771510889E-01
    Ewald energy    = -2.72709120295904E-01
    PspCore energy  =  9.59703539395516E-04
    Loc. psp. energy= -1.56958296763880E+00
    NL   psp  energy=  0.00000000000000E+00
    >>>>>>>>> Etotal= -1.11988827614195E+00

 Other information on the energy :
    Total energy(eV)= -3.04737097624122E+01 ; Band energy (Ha)=  -6.4632920569E-01
--------------------------------------------------------------------------------
 rms coord change=  1.1805E-03   atom, delta coord (reduced):
     1        0.002044608800      0.000000000000      0.000000000000
     2       -0.002044608800      0.000000000000      0.000000000000

 Cartesian components of stress tensor (hartree/bohr^3)
  sigma(1 1)=  1.21308069E-04  sigma(3 2)=  0.00000000E+00
  sigma(2 2)=  4.24301432E-04  sigma(3 1)=  0.00000000E+00
  sigma(3 3)=  4.24301432E-04  sigma(2 1)=  0.00000000E+00

-Cartesian components of stress tensor (GPa)         [Pressure= -9.5119E+00 GPa]
- sigma(1 1)=  3.56900600E+00  sigma(3 2)=  0.00000000E+00
- sigma(2 2)=  1.24833770E+01  sigma(3 1)=  0.00000000E+00
- sigma(3 3)=  1.24833770E+01  sigma(2 1)=  0.00000000E+00

================================================================================
== DATASET  3 ==================================================================
-   nproc =    1

 mkfilename : getwfk/=0, take file _WFK from output of DATASET   2.

 find_getdtset : getxcart/=0, take data from output of dataset with index  2.

 Exchange-correlation functional for the present dataset will be:
  LDA: new Teter (4/93) with spin-polarized option - ixc=1
 Citation for XC functional:
  S. Goedecker, M. Teter, J. Huetter, PRB 54, 1703 (1996)

 Real(R)+Recip(G) space primitive vectors, cartesian coordinates (Bohr,Bohr^-1):
 R(1)=  7.0000000  0.0000000  0.0000000  G(1)=  0.1428571  0.0000000  0.0000000
 R(2)=  0.0000000  5.0000000  0.0000000  G(2)=  0.0000000  0.2000000  0.0000000
 R(3)=  0.0000000  0.0000000  5.0000000  G(3)=  0.0000000  0.0000000  0.2000000
 Unit cell volume ucvol=  1.7500000E+02 bohr^3
 Angles (23,13,12)=  9.00000000E+01  9.00000000E+01  9.00000000E+01 degrees

 getcut: wavevector=  0.0000  0.0000  0.0000  ngfft=  18  15  15
         ecut(hartree)=      7.200   => boxcut(ratio)=   2.12884

--- Pseudopotential description ------------------------------------------------
- pspini: atom type   1  psp file is /home/gonze/ABINIT/ABINITv7.9.3/trunk/7.9.3-private/tests/Psps_for_tests/1h.pspnc
- pspatm: opening atomic psp file    /home/gonze/ABINIT/ABINITv7.9.3/trunk/7.9.3-private/tests/Psps_for_tests/1h.pspnc
-  Troullier-Martins psp for element  H         Thu Oct 27 17:28:54 EDT 1994
-  1.00000   1.00000    940714                znucl, zion, pspdat
    1    1    0    0      2001   0.00000      pspcod,pspxc,lmax,lloc,mmax,r2well
    0   7.740  11.990    0   1.5855604        l,e99.0,e99.9,nproj,rcpsp
   0.00000000   0.00000000   0.00000000   0.00000000     rms, ekb1, ekb2, epsatm
    0.00000000000000    0.00000000000000    0.00000000000000   rchrg,fchrg,qchrg
 Note: local psp for atom with Z=  1.0
 pspatm: epsatm=    0.04198703
         --- l  ekb(1:nproj) -->
 pspatm: atomic psp has been read  and splines computed

--------------------------------------------------------------------------------

-inwffil : will read wavefunctions from disk file t74o_DS2_WFK
- newkpt: read input wf with ikpt,npw=   1     122, make ikpt,npw=   1     162

_setup2: Arith. and geom. avg. npw (full set) are     162.000     162.000

================================================================================

=== [ionmov= 2] Broyden-Fletcher-Goldfard-Shanno method (forces)            
================================================================================

--- Iteration: (1/5) Internal Cycle: (1/1)
--------------------------------------------------------------------------------

---SELF-CONSISTENT-FIELD CONVERGENCE--------------------------------------------

     iter   Etot(hartree)      deltaE(h)  residm     vres2    diffor    maxfor
 ETOT  1  -1.1306519818742    -1.131E+00 1.062E-09 3.952E-02 9.410E-03 9.410E-03
 ETOT  2  -1.1306670290045    -1.505E-05 2.544E-11 8.736E-03 9.589E-04 8.451E-03
 ETOT  3  -1.1306690583869    -2.029E-06 6.037E-09 1.849E-03 5.031E-04 7.948E-03
 ETOT  4  -1.1306691264318    -6.804E-08 6.726E-11 4.703E-04 1.187E-05 7.960E-03
 ETOT  5  -1.1306691494102    -2.298E-08 6.273E-11 1.658E-07 9.595E-06 7.969E-03
 ETOT  6  -1.1306691494382    -2.799E-11 6.924E-14 1.592E-08 1.922E-06 7.971E-03
 ETOT  7  -1.1306691494406    -2.458E-12 9.311E-15 1.129E-10 4.598E-07 7.972E-03

 At SCF step    7, forces are converged : 
  for the second time, max diff in force=  4.598E-07 < toldff=  5.000E-06

 Cartesian components of stress tensor (hartree/bohr^3)
  sigma(1 1)=  1.91444316E-04  sigma(3 2)=  0.00000000E+00
  sigma(2 2)=  3.00883762E-04  sigma(3 1)=  0.00000000E+00
  sigma(3 3)=  3.00883762E-04  sigma(2 1)=  0.00000000E+00


---OUTPUT-----------------------------------------------------------------------

 Cartesian coordinates (xcart) [bohr]
 -7.16351954957641E-01  0.00000000000000E+00  0.00000000000000E+00
  7.16351954957641E-01  0.00000000000000E+00  0.00000000000000E+00
 Reduced coordinates (xred)
 -1.02335993565377E-01  0.00000000000000E+00  0.00000000000000E+00
  1.02335993565377E-01  0.00000000000000E+00  0.00000000000000E+00
 Cartesian forces (fcart) [Ha/bohr]; max,rms= 7.97165E-03 4.60243E-03 (free atoms)
  7.97164969488262E-03 -0.00000000000000E+00 -0.00000000000000E+00
 -7.97164969488262E-03 -0.00000000000000E+00 -0.00000000000000E+00
 Reduced forces (fred)
 -5.58015478641784E-02  0.00000000000000E+00  0.00000000000000E+00
  5.58015478641784E-02  0.00000000000000E+00  0.00000000000000E+00
 Total energy (etotal) [Ha]= -1.13066914944064E+00

--- Iteration: (2/5) Internal Cycle: (1/1)
--------------------------------------------------------------------------------

---SELF-CONSISTENT-FIELD CONVERGENCE--------------------------------------------

     iter   Etot(hartree)      deltaE(h)  residm     vres2    diffor    maxfor
 ETOT  1  -1.1307502526028    -1.131E+00 2.347E-10 4.157E-03 4.250E-03 3.722E-03
 ETOT  2  -1.1307559045942    -5.652E-06 1.692E-11 2.867E-05 8.187E-04 2.903E-03
 ETOT  3  -1.1307559240784    -1.948E-08 8.192E-11 9.462E-07 4.820E-05 2.855E-03
 ETOT  4  -1.1307559241019    -2.351E-11 2.111E-12 7.957E-07 4.054E-06 2.851E-03
 ETOT  5  -1.1307559242586    -1.566E-10 5.994E-13 9.741E-10 5.440E-07 2.850E-03

 At SCF step    5, forces are converged : 
  for the second time, max diff in force=  5.440E-07 < toldff=  5.000E-06

 Cartesian components of stress tensor (hartree/bohr^3)
  sigma(1 1)=  1.44280492E-04  sigma(3 2)=  0.00000000E+00
  sigma(2 2)=  3.03956482E-04  sigma(3 1)=  0.00000000E+00
  sigma(3 3)=  3.03956482E-04  sigma(2 1)=  0.00000000E+00


---OUTPUT-----------------------------------------------------------------------

 Cartesian coordinates (xcart) [bohr]
 -7.08380305262759E-01  0.00000000000000E+00  0.00000000000000E+00
  7.08380305262759E-01  0.00000000000000E+00  0.00000000000000E+00
 Reduced coordinates (xred)
 -1.01197186466108E-01  0.00000000000000E+00  0.00000000000000E+00
  1.01197186466108E-01  0.00000000000000E+00  0.00000000000000E+00
 Cartesian forces (fcart) [Ha/bohr]; max,rms= 2.85023E-03 1.64558E-03 (free atoms)
  2.85023450874211E-03 -0.00000000000000E+00 -0.00000000000000E+00
 -2.85023450874211E-03 -0.00000000000000E+00 -0.00000000000000E+00
 Reduced forces (fred)
 -1.99516415611948E-02  0.00000000000000E+00  0.00000000000000E+00
  1.99516415611948E-02  0.00000000000000E+00  0.00000000000000E+00
 Total energy (etotal) [Ha]= -1.13075592425858E+00

 Difference of energy with previous step (new-old):
           Absolute (Ha)=-8.67748E-05
           Relative     =-7.67435E-05

--- Iteration: (3/5) Internal Cycle: (1/1)
--------------------------------------------------------------------------------

---SELF-CONSISTENT-FIELD CONVERGENCE--------------------------------------------

     iter   Etot(hartree)      deltaE(h)  residm     vres2    diffor    maxfor
 ETOT  1  -1.1307661487206    -1.131E+00 7.043E-11 1.292E-03 2.529E-03 3.210E-04
 ETOT  2  -1.1307676656791    -1.517E-06 1.103E-11 1.587E-04 6.719E-04 3.509E-04
 ETOT  3  -1.1307679200256    -2.543E-07 1.058E-09 1.765E-06 1.837E-04 1.672E-04
 ETOT  4  -1.1307679203296    -3.040E-10 1.419E-12 7.280E-10 1.687E-07 1.671E-04
 ETOT  5  -1.1307679203300    -3.708E-13 5.253E-15 7.870E-10 9.561E-09 1.670E-04

 At SCF step    5, forces are converged : 
  for the second time, max diff in force=  9.561E-09 < toldff=  5.000E-06

 Cartesian components of stress tensor (hartree/bohr^3)
  sigma(1 1)=  1.17187140E-04  sigma(3 2)=  0.00000000E+00
  sigma(2 2)=  3.05733867E-04  sigma(3 1)=  0.00000000E+00
  sigma(3 3)=  3.05733867E-04  sigma(2 1)=  0.00000000E+00


---OUTPUT-----------------------------------------------------------------------

 Cartesian coordinates (xcart) [bohr]
 -7.03943822332524E-01  0.00000000000000E+00  0.00000000000000E+00
  7.03943822332524E-01  0.00000000000000E+00  0.00000000000000E+00
 Reduced coordinates (xred)
 -1.00563403190361E-01  0.00000000000000E+00  0.00000000000000E+00
  1.00563403190361E-01  0.00000000000000E+00  0.00000000000000E+00
 Cartesian forces (fcart) [Ha/bohr]; max,rms= 1.67045E-04 9.64433E-05 (free atoms)
 -1.67044760901801E-04 -0.00000000000000E+00 -0.00000000000000E+00
  1.67044760901801E-04 -0.00000000000000E+00 -0.00000000000000E+00
 Reduced forces (fred)
  1.16931332631261E-03  0.00000000000000E+00  0.00000000000000E+00
 -1.16931332631261E-03  0.00000000000000E+00  0.00000000000000E+00
 Total energy (etotal) [Ha]= -1.13076792032996E+00

 Difference of energy with previous step (new-old):
           Absolute (Ha)=-1.19961E-05
           Relative     =-1.06088E-05

--- Iteration: (4/5) Internal Cycle: (1/1)
--------------------------------------------------------------------------------

---SELF-CONSISTENT-FIELD CONVERGENCE--------------------------------------------

     iter   Etot(hartree)      deltaE(h)  residm     vres2    diffor    maxfor
 ETOT  1  -1.1307679551732    -1.131E+00 2.155E-13 3.962E-06 1.430E-04 2.400E-05
 ETOT  2  -1.1307679598395    -4.666E-09 3.395E-14 4.887E-07 3.729E-05 1.329E-05
 ETOT  3  -1.1307679606219    -7.824E-10 3.245E-12 5.265E-09 1.018E-05 3.110E-06
 ETOT  4  -1.1307679606228    -9.066E-13 4.254E-15 2.190E-12 1.842E-08 3.092E-06
 ETOT  5  -1.1307679606228     4.441E-15 1.547E-17 2.332E-12 1.096E-09 3.093E-06

 At SCF step    5, forces are converged : 
  for the second time, max diff in force=  1.096E-09 < toldff=  5.000E-06

 Cartesian components of stress tensor (hartree/bohr^3)
  sigma(1 1)=  1.18702302E-04  sigma(3 2)=  0.00000000E+00
  sigma(2 2)=  3.05634854E-04  sigma(3 1)=  0.00000000E+00
  sigma(3 3)=  3.05634854E-04  sigma(2 1)=  0.00000000E+00


---OUTPUT-----------------------------------------------------------------------

 Cartesian coordinates (xcart) [bohr]
 -7.04189438055862E-01  0.00000000000000E+00  0.00000000000000E+00
  7.04189438055862E-01  0.00000000000000E+00  0.00000000000000E+00
 Reduced coordinates (xred)
 -1.00598491150837E-01  0.00000000000000E+00  0.00000000000000E+00
  1.00598491150837E-01  0.00000000000000E+00  0.00000000000000E+00
 Cartesian forces (fcart) [Ha/bohr]; max,rms= 3.09311E-06 1.78581E-06 (free atoms)
  3.09311387544988E-06 -0.00000000000000E+00 -0.00000000000000E+00
 -3.09311387544988E-06 -0.00000000000000E+00 -0.00000000000000E+00
 Reduced forces (fred)
 -2.16517971281491E-05  0.00000000000000E+00  0.00000000000000E+00
  2.16517971281491E-05  0.00000000000000E+00  0.00000000000000E+00
 Total energy (etotal) [Ha]= -1.13076796062277E+00

 Difference of energy with previous step (new-old):
           Absolute (Ha)=-4.02928E-08
           Relative     =-3.56331E-08

 At Broyd/MD step   4, gradients are converged : 
  max grad (force/stress) = 3.0931E-06 < tolmxf= 5.0000E-05 ha/bohr (free atoms)

================================================================================

 ----iterations are completed or convergence reached----

 Mean square residual over all n,k,spin=   1.5474E-17; max=  1.5474E-17
   0.2500  0.2500  0.2500    1  1.54743E-17 kpt; spin; max resid(k); each band:
  1.55E-17
 reduced coordinates (array xred) for    2 atoms
      -0.100598491151      0.000000000000      0.000000000000
       0.100598491151      0.000000000000      0.000000000000
 rms dE/dt=  1.2501E-05; max dE/dt=  2.1652E-05; dE/dt below (all hartree)
    1      -0.000021651797      0.000000000000      0.000000000000
    2       0.000021651797      0.000000000000      0.000000000000

 cartesian coordinates (angstrom) at end:
    1     -0.37264100114896     0.00000000000000     0.00000000000000
    2      0.37264100114896     0.00000000000000     0.00000000000000

 cartesian forces (hartree/bohr) at end:
    1      0.00000309311388    -0.00000000000000    -0.00000000000000
    2     -0.00000309311388    -0.00000000000000    -0.00000000000000
 frms,max,avg= 1.7858101E-06 3.0931139E-06   0.000E+00  0.000E+00  0.000E+00 h/b

 cartesian forces (eV/Angstrom) at end:
    1      0.00015905429716    -0.00000000000000    -0.00000000000000
    2     -0.00015905429716    -0.00000000000000    -0.00000000000000
 frms,max,avg= 9.1830041E-05 1.5905430E-04   0.000E+00  0.000E+00  0.000E+00 e/A
 length scales=  7.000000000000  5.000000000000  5.000000000000 bohr
              =  3.704240460130  2.645886042950  2.645886042950 angstroms
 prteigrs : about to open file t74o_DS3_EIG
 Fermi (or HOMO) energy (hartree) =  -0.32800   Average Vxc (hartree)=  -0.20440
 Eigenvalues (hartree) for nkpt=   1  k points:
 kpt#   1, nband=  1, wtk=  1.00000, kpt=  0.2500  0.2500  0.2500 (reduced coord)
  -0.32800
 Total charge density [el/Bohr^3]
,     Maximum=    2.6357E-01  at reduced coord.    0.0000    0.0000    0.0000
,Next maximum=    2.4217E-01  at reduced coord.    0.9444    0.0000    0.0000
,     Minimum=    2.3656E-04  at reduced coord.    0.5000    0.4667    0.4667
,Next minimum=    2.3656E-04  at reduced coord.    0.5000    0.5333    0.4667
,  Integrated=    2.0000E+00

--------------------------------------------------------------------------------
 Components of total free energy (in Hartree) :

    Kinetic energy  =  9.92918791446941E-01
    Hartree energy  =  4.11342917990517E-01
    XC energy       = -6.42364620118325E-01
    Ewald energy    = -2.60817226965223E-01
    PspCore energy  =  9.59703539395516E-04
    Loc. psp. energy= -1.63280752651608E+00
    NL   psp  energy=  0.00000000000000E+00
    >>>>>>>>> Etotal= -1.13076796062277E+00

 Other information on the energy :
    Total energy(eV)= -3.07697610330956E+01 ; Band energy (Ha)=  -6.5599984566E-01
--------------------------------------------------------------------------------
 rms coord change=  1.0031E-03   atom, delta coord (reduced):
     1        0.001737502415      0.000000000000      0.000000000000
     2       -0.001737502415      0.000000000000      0.000000000000

 Cartesian components of stress tensor (hartree/bohr^3)
  sigma(1 1)=  1.18702302E-04  sigma(3 2)=  0.00000000E+00
  sigma(2 2)=  3.05634854E-04  sigma(3 1)=  0.00000000E+00
  sigma(3 3)=  3.05634854E-04  sigma(2 1)=  0.00000000E+00

-Cartesian components of stress tensor (GPa)         [Pressure= -7.1588E+00 GPa]
- sigma(1 1)=  3.49234171E+00  sigma(3 2)=  0.00000000E+00
- sigma(2 2)=  8.99208633E+00  sigma(3 1)=  0.00000000E+00
- sigma(3 3)=  8.99208633E+00  sigma(2 1)=  0.00000000E+00

================================================================================
== DATASET  4 ==================================================================
-   nproc =    1

 mkfilename : getwfk/=0, take file _WFK from output of DATASET   3.

 find_getdtset : getxcart/=0, take data from output of dataset with index  3.

 Exchange-correlation functional for the present dataset will be:
  LDA: new Teter (4/93) with spin-polarized option - ixc=1
 Citation for XC functional:
  S. Goedecker, M. Teter, J. Huetter, PRB 54, 1703 (1996)

 Real(R)+Recip(G) space primitive vectors, cartesian coordinates (Bohr,Bohr^-1):
 R(1)=  7.0000000  0.0000000  0.0000000  G(1)=  0.1428571  0.0000000  0.0000000
 R(2)=  0.0000000  5.0000000  0.0000000  G(2)=  0.0000000  0.2000000  0.0000000
 R(3)=  0.0000000  0.0000000  5.0000000  G(3)=  0.0000000  0.0000000  0.2000000
 Unit cell volume ucvol=  1.7500000E+02 bohr^3
 Angles (23,13,12)=  9.00000000E+01  9.00000000E+01  9.00000000E+01 degrees

 getcut: wavevector=  0.0000  0.0000  0.0000  ngfft=  20  15  15
         ecut(hartree)=      8.640   => boxcut(ratio)=   2.11610

--- Pseudopotential description ------------------------------------------------
- pspini: atom type   1  psp file is /home/gonze/ABINIT/ABINITv7.9.3/trunk/7.9.3-private/tests/Psps_for_tests/1h.pspnc
- pspatm: opening atomic psp file    /home/gonze/ABINIT/ABINITv7.9.3/trunk/7.9.3-private/tests/Psps_for_tests/1h.pspnc
-  Troullier-Martins psp for element  H         Thu Oct 27 17:28:54 EDT 1994
-  1.00000   1.00000    940714                znucl, zion, pspdat
    1    1    0    0      2001   0.00000      pspcod,pspxc,lmax,lloc,mmax,r2well
    0   7.740  11.990    0   1.5855604        l,e99.0,e99.9,nproj,rcpsp
   0.00000000   0.00000000   0.00000000   0.00000000     rms, ekb1, ekb2, epsatm
    0.00000000000000    0.00000000000000    0.00000000000000   rchrg,fchrg,qchrg
 Note: local psp for atom with Z=  1.0
 pspatm: epsatm=    0.04198703
         --- l  ekb(1:nproj) -->
 pspatm: atomic psp has been read  and splines computed

--------------------------------------------------------------------------------

-inwffil : will read wavefunctions from disk file t74o_DS3_WFK
- newkpt: read input wf with ikpt,npw=   1     162, make ikpt,npw=   1     217

_setup2: Arith. and geom. avg. npw (full set) are     217.000     217.000

================================================================================

=== [ionmov= 2] Broyden-Fletcher-Goldfard-Shanno method (forces)            
================================================================================

--- Iteration: (1/5) Internal Cycle: (1/1)
--------------------------------------------------------------------------------

---SELF-CONSISTENT-FIELD CONVERGENCE--------------------------------------------

     iter   Etot(hartree)      deltaE(h)  residm     vres2    diffor    maxfor
 ETOT  1  -1.1376053670395    -1.138E+00 2.592E-09 1.636E-02 4.154E-03 4.154E-03
 ETOT  2  -1.1376106953688    -5.328E-06 9.649E-12 3.683E-03 5.461E-04 3.608E-03
 ETOT  3  -1.1376114191859    -7.238E-07 2.600E-09 7.909E-04 2.847E-04 3.324E-03
 ETOT  4  -1.1376114526998    -3.351E-08 3.121E-11 2.017E-04 1.953E-05 3.343E-03
 ETOT  5  -1.1376114640135    -1.131E-08 2.803E-11 9.544E-08 1.755E-05 3.361E-03
 ETOT  6  -1.1376114640212    -7.773E-12 3.274E-14 8.739E-09 1.079E-06 3.362E-03
 ETOT  7  -1.1376114640219    -6.333E-13 4.798E-15 1.104E-11 2.328E-07 3.362E-03

 At SCF step    7, forces are converged : 
  for the second time, max diff in force=  2.328E-07 < toldff=  5.000E-06

 Cartesian components of stress tensor (hartree/bohr^3)
  sigma(1 1)=  1.25290118E-04  sigma(3 2)=  0.00000000E+00
  sigma(2 2)=  2.18816321E-04  sigma(3 1)=  0.00000000E+00
  sigma(3 3)=  2.18816321E-04  sigma(2 1)=  0.00000000E+00


---OUTPUT-----------------------------------------------------------------------

 Cartesian coordinates (xcart) [bohr]
 -7.04189438055862E-01  0.00000000000000E+00  0.00000000000000E+00
  7.04189438055862E-01  0.00000000000000E+00  0.00000000000000E+00
 Reduced coordinates (xred)
 -1.00598491150837E-01  0.00000000000000E+00  0.00000000000000E+00
  1.00598491150837E-01  0.00000000000000E+00  0.00000000000000E+00
 Cartesian forces (fcart) [Ha/bohr]; max,rms= 3.36202E-03 1.94106E-03 (free atoms)
  3.36201777135317E-03 -0.00000000000000E+00 -0.00000000000000E+00
 -3.36201777135317E-03 -0.00000000000000E+00 -0.00000000000000E+00
 Reduced forces (fred)
 -2.35341243994722E-02  0.00000000000000E+00  0.00000000000000E+00
  2.35341243994722E-02  0.00000000000000E+00  0.00000000000000E+00
 Total energy (etotal) [Ha]= -1.13761146402186E+00

--- Iteration: (2/5) Internal Cycle: (1/1)
--------------------------------------------------------------------------------

---SELF-CONSISTENT-FIELD CONVERGENCE--------------------------------------------

     iter   Etot(hartree)      deltaE(h)  residm     vres2    diffor    maxfor
 ETOT  1  -1.1376257264500    -1.138E+00 5.765E-11 8.514E-04 1.776E-03 1.586E-03
 ETOT  2  -1.1376268075529    -1.081E-06 3.978E-12 5.513E-06 3.709E-04 1.215E-03
 ETOT  3  -1.1376268111361    -3.583E-09 1.811E-11 1.755E-07 2.165E-05 1.194E-03
 ETOT  4  -1.1376268111353     7.589E-13 4.451E-13 1.723E-07 2.165E-06 1.191E-03
 ETOT  5  -1.1376268111679    -3.251E-11 1.522E-13 2.152E-10 3.718E-08 1.191E-03

 At SCF step    5, forces are converged : 
  for the second time, max diff in force=  3.718E-08 < toldff=  5.000E-06

 Cartesian components of stress tensor (hartree/bohr^3)
  sigma(1 1)=  1.06088871E-04  sigma(3 2)=  0.00000000E+00
  sigma(2 2)=  2.19361285E-04  sigma(3 1)=  0.00000000E+00
  sigma(3 3)=  2.19361285E-04  sigma(2 1)=  0.00000000E+00


---OUTPUT-----------------------------------------------------------------------

 Cartesian coordinates (xcart) [bohr]
 -7.00827420284508E-01  0.00000000000000E+00  0.00000000000000E+00
  7.00827420284508E-01  0.00000000000000E+00  0.00000000000000E+00
 Reduced coordinates (xred)
 -1.00118202897787E-01  0.00000000000000E+00  0.00000000000000E+00
  1.00118202897787E-01  0.00000000000000E+00  0.00000000000000E+00
 Cartesian forces (fcart) [Ha/bohr]; max,rms= 1.19145E-03 6.87885E-04 (free atoms)
  1.19145195483678E-03 -0.00000000000000E+00 -0.00000000000000E+00
 -1.19145195483678E-03 -0.00000000000000E+00 -0.00000000000000E+00
 Reduced forces (fred)
 -8.34016368385745E-03  0.00000000000000E+00  0.00000000000000E+00
  8.34016368385745E-03  0.00000000000000E+00  0.00000000000000E+00
 Total energy (etotal) [Ha]= -1.13762681116785E+00

 Difference of energy with previous step (new-old):
           Absolute (Ha)=-1.53471E-05
           Relative     =-1.34906E-05

--- Iteration: (3/5) Internal Cycle: (1/1)
--------------------------------------------------------------------------------

---SELF-CONSISTENT-FIELD CONVERGENCE--------------------------------------------

     iter   Etot(hartree)      deltaE(h)  residm     vres2    diffor    maxfor
 ETOT  1  -1.1376286353910    -1.138E+00 1.717E-11 2.571E-04 1.003E-03 1.889E-04
 ETOT  2  -1.1376289121515    -2.768E-07 2.626E-12 3.506E-05 3.028E-04 1.139E-04
 ETOT  3  -1.1376289637722    -5.162E-08 2.600E-10 3.185E-07 8.527E-05 2.860E-05
 ETOT  4  -1.1376289638285    -5.630E-11 3.645E-13 2.325E-10 4.751E-08 2.855E-05
 ETOT  5  -1.1376289638286    -1.108E-13 1.603E-15 1.830E-10 1.850E-08 2.853E-05

 At SCF step    5, forces are converged : 
  for the second time, max diff in force=  1.850E-08 < toldff=  5.000E-06

 Cartesian components of stress tensor (hartree/bohr^3)
  sigma(1 1)=  9.53997454E-05  sigma(3 2)=  0.00000000E+00
  sigma(2 2)=  2.19664053E-04  sigma(3 1)=  0.00000000E+00
  sigma(3 3)=  2.19664053E-04  sigma(2 1)=  0.00000000E+00


---OUTPUT-----------------------------------------------------------------------

 Cartesian coordinates (xcart) [bohr]
 -6.98981964774524E-01  0.00000000000000E+00  0.00000000000000E+00
  6.98981964774524E-01  0.00000000000000E+00  0.00000000000000E+00
 Reduced coordinates (xred)
 -9.98545663963605E-02  0.00000000000000E+00  0.00000000000000E+00
  9.98545663963605E-02  0.00000000000000E+00  0.00000000000000E+00
 Cartesian forces (fcart) [Ha/bohr]; max,rms= 2.85350E-05 1.64747E-05 (free atoms)
 -2.85349557600192E-05 -0.00000000000000E+00 -0.00000000000000E+00
  2.85349557600192E-05 -0.00000000000000E+00 -0.00000000000000E+00
 Reduced forces (fred)
  1.99744690320135E-04  0.00000000000000E+00  0.00000000000000E+00
 -1.99744690320135E-04  0.00000000000000E+00  0.00000000000000E+00
 Total energy (etotal) [Ha]= -1.13762896382860E+00

 Difference of energy with previous step (new-old):
           Absolute (Ha)=-2.15266E-06
           Relative     =-1.89224E-06

 At Broyd/MD step   3, gradients are converged : 
  max grad (force/stress) = 2.8535E-05 < tolmxf= 5.0000E-05 ha/bohr (free atoms)

================================================================================

 ----iterations are completed or convergence reached----

 Mean square residual over all n,k,spin=   1.6032E-15; max=  1.6032E-15
   0.2500  0.2500  0.2500    1  1.60319E-15 kpt; spin; max resid(k); each band:
  1.60E-15
 reduced coordinates (array xred) for    2 atoms
      -0.099854566396      0.000000000000      0.000000000000
       0.099854566396      0.000000000000      0.000000000000
 rms dE/dt=  1.1532E-04; max dE/dt=  1.9974E-04; dE/dt below (all hartree)
    1       0.000199744690      0.000000000000      0.000000000000
    2      -0.000199744690      0.000000000000      0.000000000000

 cartesian coordinates (angstrom) at end:
    1     -0.36988532497414     0.00000000000000     0.00000000000000
    2      0.36988532497414     0.00000000000000     0.00000000000000

 cartesian forces (hartree/bohr) at end:
    1     -0.00002853495576    -0.00000000000000    -0.00000000000000
    2      0.00002853495576    -0.00000000000000    -0.00000000000000
 frms,max,avg= 1.6474664E-05 2.8534956E-05   0.000E+00  0.000E+00  0.000E+00 h/b

 cartesian forces (eV/Angstrom) at end:
    1     -0.00146732629828    -0.00000000000000    -0.00000000000000
    2      0.00146732629828    -0.00000000000000    -0.00000000000000
 frms,max,avg= 8.4716123E-04 1.4673263E-03   0.000E+00  0.000E+00  0.000E+00 e/A
 length scales=  7.000000000000  5.000000000000  5.000000000000 bohr
              =  3.704240460130  2.645886042950  2.645886042950 angstroms
 prteigrs : about to open file t74o_DS4_EIG
 Fermi (or HOMO) energy (hartree) =  -0.33065   Average Vxc (hartree)=  -0.20359
 Eigenvalues (hartree) for nkpt=   1  k points:
 kpt#   1, nband=  1, wtk=  1.00000, kpt=  0.2500  0.2500  0.2500 (reduced coord)
  -0.33065
 Total charge density [el/Bohr^3]
,     Maximum=    2.7615E-01  at reduced coord.    0.0000    0.0000    0.0000
,Next maximum=    2.5937E-01  at reduced coord.    0.9500    0.0000    0.0000
,     Minimum=    2.1405E-04  at reduced coord.    0.5000    0.4667    0.4667
,Next minimum=    2.1405E-04  at reduced coord.    0.5000    0.5333    0.4667
,  Integrated=    2.0000E+00

--------------------------------------------------------------------------------
 Components of total free energy (in Hartree) :

    Kinetic energy  =  1.01180020719887E+00
    Hartree energy  =  4.19541995062898E-01
    XC energy       = -6.46787073405149E-01
    Ewald energy    = -2.55594905973588E-01
    PspCore energy  =  9.59703539395516E-04
    Loc. psp. energy= -1.66754889025103E+00
    NL   psp  energy=  0.00000000000000E+00
    >>>>>>>>> Etotal= -1.13762896382860E+00

 Other information on the energy :
    Total energy(eV)= -3.09564584249941E+01 ; Band energy (Ha)=  -6.6129325135E-01
--------------------------------------------------------------------------------
 rms coord change=  4.2951E-04   atom, delta coord (reduced):
     1        0.000743924754      0.000000000000      0.000000000000
     2       -0.000743924754      0.000000000000      0.000000000000

 Cartesian components of stress tensor (hartree/bohr^3)
  sigma(1 1)=  9.53997454E-05  sigma(3 2)=  0.00000000E+00
  sigma(2 2)=  2.19664053E-04  sigma(3 1)=  0.00000000E+00
  sigma(3 3)=  2.19664053E-04  sigma(2 1)=  0.00000000E+00

-Cartesian components of stress tensor (GPa)         [Pressure= -5.2441E+00 GPa]
- sigma(1 1)=  2.80675694E+00  sigma(3 2)=  0.00000000E+00
- sigma(2 2)=  6.46273847E+00  sigma(3 1)=  0.00000000E+00
- sigma(3 3)=  6.46273847E+00  sigma(2 1)=  0.00000000E+00

================================================================================
== DATASET  5 ==================================================================
-   nproc =    1

 mkfilename : getwfk/=0, take file _WFK from output of DATASET   4.

 find_getdtset : getxcart/=0, take data from output of dataset with index  4.

 Exchange-correlation functional for the present dataset will be:
  LDA: new Teter (4/93) with spin-polarized option - ixc=1
 Citation for XC functional:
  S. Goedecker, M. Teter, J. Huetter, PRB 54, 1703 (1996)

 Real(R)+Recip(G) space primitive vectors, cartesian coordinates (Bohr,Bohr^-1):
 R(1)=  7.0000000  0.0000000  0.0000000  G(1)=  0.1428571  0.0000000  0.0000000
 R(2)=  0.0000000  5.0000000  0.0000000  G(2)=  0.0000000  0.2000000  0.0000000
 R(3)=  0.0000000  0.0000000  5.0000000  G(3)=  0.0000000  0.0000000  0.2000000
 Unit cell volume ucvol=  1.7500000E+02 bohr^3
 Angles (23,13,12)=  9.00000000E+01  9.00000000E+01  9.00000000E+01 degrees

 getcut: wavevector=  0.0000  0.0000  0.0000  ngfft=  24  16  16
         ecut(hartree)=     10.368   => boxcut(ratio)=   2.20769

 getcut : COMMENT -
  Note that boxcut > 2.2 ; recall that boxcut=Gcut(box)/Gcut(sphere) = 2
  is sufficient for exact treatment of convolution.
  Such a large boxcut is a waste : you could raise ecut
  e.g. ecut=   12.633094 Hartrees makes boxcut=2


--- Pseudopotential description ------------------------------------------------
- pspini: atom type   1  psp file is /home/gonze/ABINIT/ABINITv7.9.3/trunk/7.9.3-private/tests/Psps_for_tests/1h.pspnc
- pspatm: opening atomic psp file    /home/gonze/ABINIT/ABINITv7.9.3/trunk/7.9.3-private/tests/Psps_for_tests/1h.pspnc
-  Troullier-Martins psp for element  H         Thu Oct 27 17:28:54 EDT 1994
-  1.00000   1.00000    940714                znucl, zion, pspdat
    1    1    0    0      2001   0.00000      pspcod,pspxc,lmax,lloc,mmax,r2well
    0   7.740  11.990    0   1.5855604        l,e99.0,e99.9,nproj,rcpsp
   0.00000000   0.00000000   0.00000000   0.00000000     rms, ekb1, ekb2, epsatm
    0.00000000000000    0.00000000000000    0.00000000000000   rchrg,fchrg,qchrg
 Note: local psp for atom with Z=  1.0
 pspatm: epsatm=    0.04198703
         --- l  ekb(1:nproj) -->
 pspatm: atomic psp has been read  and splines computed

--------------------------------------------------------------------------------

-inwffil : will read wavefunctions from disk file t74o_DS4_WFK
- newkpt: read input wf with ikpt,npw=   1     217, make ikpt,npw=   1     279

_setup2: Arith. and geom. avg. npw (full set) are     279.000     279.000

================================================================================

=== [ionmov= 2] Broyden-Fletcher-Goldfard-Shanno method (forces)            
================================================================================

--- Iteration: (1/5) Internal Cycle: (1/1)
--------------------------------------------------------------------------------

---SELF-CONSISTENT-FIELD CONVERGENCE--------------------------------------------

     iter   Etot(hartree)      deltaE(h)  residm     vres2    diffor    maxfor
 ETOT  1  -1.1413222221191    -1.141E+00 3.688E-09 1.136E-02 1.362E-03 1.362E-03
 ETOT  2  -1.1413237284170    -1.506E-06 2.162E-12 2.738E-03 2.530E-04 1.109E-03
 ETOT  3  -1.1413239499909    -2.216E-07 8.162E-10 5.533E-04 1.394E-04 9.693E-04
 ETOT  4  -1.1413239666296    -1.664E-08 1.837E-11 1.414E-04 1.993E-05 9.892E-04
 ETOT  5  -1.1413239720259    -5.396E-09 1.327E-11 5.067E-08 1.697E-05 1.006E-03
 ETOT  6  -1.1413239720280    -2.053E-12 1.098E-14 4.754E-09 6.060E-07 1.007E-03
 ETOT  7  -1.1413239720282    -1.938E-13 1.730E-15 3.240E-12 9.691E-08 1.007E-03

 At SCF step    7, forces are converged : 
  for the second time, max diff in force=  9.691E-08 < toldff=  5.000E-06

 Cartesian components of stress tensor (hartree/bohr^3)
  sigma(1 1)=  8.46507145E-05  sigma(3 2)=  0.00000000E+00
  sigma(2 2)=  1.61053245E-04  sigma(3 1)=  0.00000000E+00
  sigma(3 3)=  1.61053245E-04  sigma(2 1)=  0.00000000E+00


---OUTPUT-----------------------------------------------------------------------

 Cartesian coordinates (xcart) [bohr]
 -6.98981964774524E-01  0.00000000000000E+00  0.00000000000000E+00
  6.98981964774524E-01  0.00000000000000E+00  0.00000000000000E+00
 Reduced coordinates (xred)
 -9.98545663963605E-02  0.00000000000000E+00  0.00000000000000E+00
  9.98545663963605E-02  0.00000000000000E+00  0.00000000000000E+00
 Cartesian forces (fcart) [Ha/bohr]; max,rms= 1.00691E-03 5.81339E-04 (free atoms)
  1.00690894026845E-03 -0.00000000000000E+00 -0.00000000000000E+00
 -1.00690894026845E-03 -0.00000000000000E+00 -0.00000000000000E+00
 Reduced forces (fred)
 -7.04836258187915E-03  0.00000000000000E+00  0.00000000000000E+00
  7.04836258187914E-03  0.00000000000000E+00  0.00000000000000E+00
 Total energy (etotal) [Ha]= -1.14132397202818E+00

--- Iteration: (2/5) Internal Cycle: (1/1)
--------------------------------------------------------------------------------

---SELF-CONSISTENT-FIELD CONVERGENCE--------------------------------------------

     iter   Etot(hartree)      deltaE(h)  residm     vres2    diffor    maxfor
 ETOT  1  -1.1413252496408    -1.141E+00 5.928E-12 1.058E-04 5.268E-04 4.801E-04
 ETOT  2  -1.1413253496674    -1.000E-07 4.036E-13 7.812E-07 1.114E-04 3.687E-04
 ETOT  3  -1.1413253500831    -4.157E-10 2.276E-12 2.320E-08 7.286E-06 3.614E-04
 ETOT  4  -1.1413253500813     1.772E-12 6.223E-14 3.733E-08 8.481E-07 3.606E-04
 ETOT  5  -1.1413253500866    -5.313E-12 3.058E-14 1.814E-10 3.959E-08 3.606E-04

 At SCF step    5, forces are converged : 
  for the second time, max diff in force=  3.959E-08 < toldff=  5.000E-06

 Cartesian components of stress tensor (hartree/bohr^3)
  sigma(1 1)=  7.91093663E-05  sigma(3 2)=  0.00000000E+00
  sigma(2 2)=  1.61087632E-04  sigma(3 1)=  0.00000000E+00
  sigma(3 3)=  1.61087632E-04  sigma(2 1)=  0.00000000E+00


---OUTPUT-----------------------------------------------------------------------

 Cartesian coordinates (xcart) [bohr]
 -6.97975055834255E-01  0.00000000000000E+00  0.00000000000000E+00
  6.97975055834255E-01  0.00000000000000E+00  0.00000000000000E+00
 Reduced coordinates (xred)
 -9.97107222620364E-02  0.00000000000000E+00  0.00000000000000E+00
  9.97107222620364E-02  0.00000000000000E+00  0.00000000000000E+00
 Cartesian forces (fcart) [Ha/bohr]; max,rms= 3.60636E-04 2.08213E-04 (free atoms)
  3.60636359818128E-04 -0.00000000000000E+00 -0.00000000000000E+00
 -3.60636359818128E-04 -0.00000000000000E+00 -0.00000000000000E+00
 Reduced forces (fred)
 -2.52445451872690E-03  0.00000000000000E+00  0.00000000000000E+00
  2.52445451872690E-03  0.00000000000000E+00  0.00000000000000E+00
 Total energy (etotal) [Ha]= -1.14132535008660E+00

 Difference of energy with previous step (new-old):
           Absolute (Ha)=-1.37806E-06
           Relative     =-1.20742E-06

--- Iteration: (3/5) Internal Cycle: (1/1)
--------------------------------------------------------------------------------

---SELF-CONSISTENT-FIELD CONVERGENCE--------------------------------------------

     iter   Etot(hartree)      deltaE(h)  residm     vres2    diffor    maxfor
 ETOT  1  -1.1413255201837    -1.141E+00 1.841E-12 3.300E-05 2.964E-04 6.426E-05
 ETOT  2  -1.1413255445402    -2.436E-08 3.129E-13 6.504E-06 9.792E-05 3.366E-05
 ETOT  3  -1.1413255515240    -6.984E-09 3.893E-11 3.779E-08 3.108E-05 2.580E-06
 ETOT  4  -1.1413255515298    -5.813E-12 4.928E-14 2.102E-10 9.615E-08 2.484E-06
 ETOT  5  -1.1413255515299    -4.707E-14 4.255E-16 2.902E-11 2.009E-08 2.464E-06

 At SCF step    5, forces are converged : 
  for the second time, max diff in force=  2.009E-08 < toldff=  5.000E-06

 Cartesian components of stress tensor (hartree/bohr^3)
  sigma(1 1)=  7.60056156E-05  sigma(3 2)=  0.00000000E+00
  sigma(2 2)=  1.61104244E-04  sigma(3 1)=  0.00000000E+00
  sigma(3 3)=  1.61104244E-04  sigma(2 1)=  0.00000000E+00


---OUTPUT-----------------------------------------------------------------------

 Cartesian coordinates (xcart) [bohr]
 -6.97413175312210E-01  0.00000000000000E+00  0.00000000000000E+00
  6.97413175312210E-01  0.00000000000000E+00  0.00000000000000E+00
 Reduced coordinates (xred)
 -9.96304536160300E-02  0.00000000000000E+00  0.00000000000000E+00
  9.96304536160300E-02  0.00000000000000E+00  0.00000000000000E+00
 Cartesian forces (fcart) [Ha/bohr]; max,rms= 2.46359E-06 1.42235E-06 (free atoms)
 -2.46358857924403E-06 -0.00000000000000E+00 -0.00000000000000E+00
  2.46358857924403E-06 -0.00000000000000E+00 -0.00000000000000E+00
 Reduced forces (fred)
  1.72451200547082E-05  0.00000000000000E+00  0.00000000000000E+00
 -1.72451200547082E-05  0.00000000000000E+00  0.00000000000000E+00
 Total energy (etotal) [Ha]= -1.14132555152987E+00

 Difference of energy with previous step (new-old):
           Absolute (Ha)=-2.01443E-07
           Relative     =-1.76499E-07

 At Broyd/MD step   3, gradients are converged : 
  max grad (force/stress) = 2.4636E-06 < tolmxf= 5.0000E-05 ha/bohr (free atoms)

================================================================================

 ----iterations are completed or convergence reached----

 Mean square residual over all n,k,spin=   4.2551E-16; max=  4.2551E-16
   0.2500  0.2500  0.2500    1  4.25505E-16 kpt; spin; max resid(k); each band:
  4.26E-16
 reduced coordinates (array xred) for    2 atoms
      -0.099630453616      0.000000000000      0.000000000000
       0.099630453616      0.000000000000      0.000000000000
 rms dE/dt=  9.9565E-06; max dE/dt=  1.7245E-05; dE/dt below (all hartree)
    1       0.000017245120      0.000000000000      0.000000000000
    2      -0.000017245120      0.000000000000      0.000000000000

 cartesian coordinates (angstrom) at end:
    1     -0.36905515734560     0.00000000000000     0.00000000000000
    2      0.36905515734560     0.00000000000000     0.00000000000000

 cartesian forces (hartree/bohr) at end:
    1     -0.00000246358858    -0.00000000000000    -0.00000000000000
    2      0.00000246358858    -0.00000000000000    -0.00000000000000
 frms,max,avg= 1.4223535E-06 2.4635886E-06   0.000E+00  0.000E+00  0.000E+00 h/b

 cartesian forces (eV/Angstrom) at end:
    1     -0.00012668280760    -0.00000000000000    -0.00000000000000
    2      0.00012668280760    -0.00000000000000    -0.00000000000000
 frms,max,avg= 7.3140353E-05 1.2668281E-04   0.000E+00  0.000E+00  0.000E+00 e/A
 length scales=  7.000000000000  5.000000000000  5.000000000000 bohr
              =  3.704240460130  2.645886042950  2.645886042950 angstroms
 prteigrs : about to open file t74o_DS5_EIG
 Fermi (or HOMO) energy (hartree) =  -0.33186   Average Vxc (hartree)=  -0.20327
 Eigenvalues (hartree) for nkpt=   1  k points:
[...]
 ETOT  2  -1.1441076836828    -4.195E-09 1.177E-14 1.906E-06 1.678E-05 7.571E-06
 ETOT  3  -1.1441076841874    -5.046E-10 3.542E-12 1.705E-08 8.118E-06 5.464E-07
 ETOT  4  -1.1441076841882    -7.365E-13 5.489E-15 4.557E-09 1.445E-07 6.909E-07
 ETOT  5  -1.1441076841883    -1.030E-13 1.169E-15 1.915E-11 6.809E-08 7.590E-07

 At SCF step    5, forces are converged : 
  for the second time, max diff in force=  6.809E-08 < toldff=  5.000E-06

 Cartesian components of stress tensor (hartree/bohr^3)
  sigma(1 1)=  3.51684193E-05  sigma(3 2)=  0.00000000E+00
  sigma(2 2)=  9.83509520E-05  sigma(3 1)=  0.00000000E+00
  sigma(3 3)=  9.83509520E-05  sigma(2 1)=  0.00000000E+00


---OUTPUT-----------------------------------------------------------------------

 Cartesian coordinates (xcart) [bohr]
 -6.95058990188846E-01  0.00000000000000E+00  0.00000000000000E+00
  6.95058990188846E-01  0.00000000000000E+00  0.00000000000000E+00
 Reduced coordinates (xred)
 -9.92941414555494E-02  0.00000000000000E+00  0.00000000000000E+00
  9.92941414555494E-02  0.00000000000000E+00  0.00000000000000E+00
 Cartesian forces (fcart) [Ha/bohr]; max,rms= 7.58963E-07 4.38187E-07 (free atoms)
 -7.58962723977020E-07 -0.00000000000000E+00 -0.00000000000000E+00
  7.58962723977020E-07 -0.00000000000000E+00 -0.00000000000000E+00
 Reduced forces (fred)
  5.31273906783914E-06  0.00000000000000E+00  0.00000000000000E+00
 -5.31273906783914E-06  0.00000000000000E+00  0.00000000000000E+00
 Total energy (etotal) [Ha]= -1.14410768418825E+00

 Difference of energy with previous step (new-old):
           Absolute (Ha)=-2.90245E-08
           Relative     =-2.53687E-08

 At Broyd/MD step   3, gradients are converged : 
  max grad (force/stress) = 7.5896E-07 < tolmxf= 5.0000E-05 ha/bohr (free atoms)

================================================================================

 ----iterations are completed or convergence reached----

 Mean square residual over all n,k,spin=   1.1690E-15; max=  1.1690E-15
   0.2500  0.2500  0.2500    1  1.16900E-15 kpt; spin; max resid(k); each band:
  1.17E-15
 reduced coordinates (array xred) for    2 atoms
      -0.099294141456      0.000000000000      0.000000000000
       0.099294141456      0.000000000000      0.000000000000
 rms dE/dt=  3.0673E-06; max dE/dt=  5.3127E-06; dE/dt below (all hartree)
    1       0.000005312739      0.000000000000      0.000000000000
    2      -0.000005312739      0.000000000000      0.000000000000

 cartesian coordinates (angstrom) at end:
    1     -0.36780937623352     0.00000000000000     0.00000000000000
    2      0.36780937623352     0.00000000000000     0.00000000000000

 cartesian forces (hartree/bohr) at end:
    1     -0.00000075896272    -0.00000000000000    -0.00000000000000
    2      0.00000075896272    -0.00000000000000    -0.00000000000000
 frms,max,avg= 4.3818733E-07 7.5896272E-07   0.000E+00  0.000E+00  0.000E+00 h/b

 cartesian forces (eV/Angstrom) at end:
    1     -0.00003902742915    -0.00000000000000    -0.00000000000000
    2      0.00003902742915    -0.00000000000000    -0.00000000000000
 frms,max,avg= 2.2532497E-05 3.9027429E-05   0.000E+00  0.000E+00  0.000E+00 e/A
 length scales=  7.000000000000  5.000000000000  5.000000000000 bohr
              =  3.704240460130  2.645886042950  2.645886042950 angstroms
 prteigrs : about to open file t74o_DS10_EIG
 Fermi (or HOMO) energy (hartree) =  -0.33293   Average Vxc (hartree)=  -0.20294
 Eigenvalues (hartree) for nkpt=   1  k points:
 kpt#   1, nband=  1, wtk=  1.00000, kpt=  0.2500  0.2500  0.2500 (reduced coord)
  -0.33293
 Total charge density [el/Bohr^3]
,     Maximum=    2.9497E-01  at reduced coord.    0.0000    0.0000    0.0000
,Next maximum=    2.8971E-01  at reduced coord.    0.9722    0.0000    0.0000
,     Minimum=    2.0425E-04  at reduced coord.    0.5000    0.5000    0.5000
,Next minimum=    2.0791E-04  at reduced coord.    0.5000    0.5000    0.4583
,  Integrated=    2.0000E+00

--------------------------------------------------------------------------------
 Components of total free energy (in Hartree) :

    Kinetic energy  =  1.02956064391461E+00
    Hartree energy  =  4.26687970871949E-01
    XC energy       = -6.50704410227316E-01
    Ewald energy    = -2.51607445226510E-01
    PspCore energy  =  9.59703539395516E-04
    Loc. psp. energy= -1.69900414706038E+00
    NL   psp  energy=  0.00000000000000E+00
    >>>>>>>>> Etotal= -1.14410768418825E+00

 Other information on the energy :
    Total energy(eV)= -3.11327533716222E+01 ; Band energy (Ha)=  -6.6586268102E-01
--------------------------------------------------------------------------------
 rms coord change=  4.8331E-05   atom, delta coord (reduced):
     1        0.000083711439      0.000000000000      0.000000000000
     2       -0.000083711439      0.000000000000      0.000000000000

 Cartesian components of stress tensor (hartree/bohr^3)
  sigma(1 1)=  3.51684193E-05  sigma(3 2)=  0.00000000E+00
  sigma(2 2)=  9.83509520E-05  sigma(3 1)=  0.00000000E+00
  sigma(3 3)=  9.83509520E-05  sigma(2 1)=  0.00000000E+00

-Cartesian components of stress tensor (GPa)         [Pressure= -2.2740E+00 GPa]
- sigma(1 1)=  1.03469044E+00  sigma(3 2)=  0.00000000E+00
- sigma(2 2)=  2.89358442E+00  sigma(3 1)=  0.00000000E+00
- sigma(3 3)=  2.89358442E+00  sigma(2 1)=  0.00000000E+00

== END DATASET(S) ==============================================================
================================================================================
  
 -outvars: echo values of variables after computation  --------
            acell      7.0000000000E+00  5.0000000000E+00  5.0000000000E+00 Bohr
              amu      1.00794000E+00
           diemac      1.00000000E+00
           diemix      5.00000000E-01
             ecut1     5.00000000E+00 Hartree
             ecut2     6.00000000E+00 Hartree
             ecut3     7.20000000E+00 Hartree
             ecut4     8.64000000E+00 Hartree
             ecut5     1.03680000E+01 Hartree
             ecut6     1.24416000E+01 Hartree
             ecut7     1.49299200E+01 Hartree
             ecut8     1.79159040E+01 Hartree
             ecut9     2.14990848E+01 Hartree
             ecut10    2.57989018E+01 Hartree
           etotal1    -1.1087630687E+00
           etotal2    -1.1198882761E+00
           etotal3    -1.1307679606E+00
           etotal4    -1.1376289638E+00
           etotal5    -1.1413255515E+00
           etotal6    -1.1431973233E+00
           etotal7    -1.1437411036E+00
           etotal8    -1.1438648592E+00
           etotal9    -1.1439446761E+00
           etotal10   -1.1441076842E+00
            fcart1    -8.4095114597E-06 -0.0000000000E+00 -0.0000000000E+00
                       8.4095114597E-06 -0.0000000000E+00 -0.0000000000E+00
            fcart2     4.8898794071E-06 -0.0000000000E+00 -0.0000000000E+00
                      -4.8898794071E-06 -0.0000000000E+00 -0.0000000000E+00
            fcart3     3.0931138754E-06 -0.0000000000E+00 -0.0000000000E+00
                      -3.0931138754E-06 -0.0000000000E+00 -0.0000000000E+00
            fcart4    -2.8534955760E-05 -0.0000000000E+00 -0.0000000000E+00
                       2.8534955760E-05 -0.0000000000E+00 -0.0000000000E+00
            fcart5    -2.4635885792E-06 -0.0000000000E+00 -0.0000000000E+00
                       2.4635885792E-06 -0.0000000000E+00 -0.0000000000E+00
            fcart6    -4.3665143415E-07 -0.0000000000E+00 -0.0000000000E+00
                       4.3665143415E-07 -0.0000000000E+00 -0.0000000000E+00
            fcart7    -6.6032454968E-08 -0.0000000000E+00 -0.0000000000E+00
                       6.6032454968E-08 -0.0000000000E+00 -0.0000000000E+00
            fcart8    -8.8476501017E-06 -0.0000000000E+00 -0.0000000000E+00
                       8.8476501017E-06 -0.0000000000E+00 -0.0000000000E+00
            fcart9    -1.0615037598E-06 -0.0000000000E+00 -0.0000000000E+00
                       1.0615037598E-06 -0.0000000000E+00 -0.0000000000E+00
            fcart10   -7.5896272398E-07 -0.0000000000E+00 -0.0000000000E+00
                       7.5896272398E-07 -0.0000000000E+00 -0.0000000000E+00
-          fftalg         112
           getwfk          -1
         getxcart          -1
           ionmov           2
           iprcch           1
             iscf           5
           jdtset        1    2    3    4    5    6    7    8    9   10
              kpt      2.50000000E-01  2.50000000E-01  2.50000000E-01
           kptopt           0
P           mkmem           1
            natom           2
            nband           1
           ndtset          10
            ngfft1         16      12      12
            ngfft2         16      12      12
            ngfft3         18      15      15
            ngfft4         20      15      15
            ngfft5         24      16      16
            ngfft6         24      16      16
            ngfft7         27      18      18
            ngfft8         30      20      20
            ngfft9         30      24      24
            ngfft10        36      24      24
             nkpt           1
            nline           3
            nstep           7
             nsym           8
            ntime           5
           ntypat           1
              occ      2.000000
           occopt           0
        optforces           1
          spgroup          47
           strten1     1.3822417529E-04  5.0386285867E-04  5.0386285863E-04
                       0.0000000000E+00  0.0000000000E+00  0.0000000000E+00
           strten2     1.2130806867E-04  4.2430143200E-04  4.2430143196E-04
                       0.0000000000E+00  0.0000000000E+00  0.0000000000E+00
           strten3     1.1870230192E-04  3.0563485360E-04  3.0563485356E-04
                       0.0000000000E+00  0.0000000000E+00  0.0000000000E+00
           strten4     9.5399745438E-05  2.1966405272E-04  2.1966405268E-04
                       0.0000000000E+00  0.0000000000E+00  0.0000000000E+00
           strten5     7.6005615563E-05  1.6110424357E-04  1.6110424352E-04
                       0.0000000000E+00  0.0000000000E+00  0.0000000000E+00
           strten6     4.8514208866E-05  1.2063871972E-04  1.2063871968E-04
                       0.0000000000E+00  0.0000000000E+00  0.0000000000E+00
           strten7     3.4712426860E-05  1.0272299390E-04  1.0272299386E-04
                       0.0000000000E+00  0.0000000000E+00  0.0000000000E+00
           strten8     3.2655209478E-05  9.6246788217E-05  9.6246788172E-05
                       0.0000000000E+00  0.0000000000E+00  0.0000000000E+00
           strten9     3.5433334721E-05  9.7530227949E-05  9.7530227904E-05
                       0.0000000000E+00  0.0000000000E+00  0.0000000000E+00
           strten10    3.5168419276E-05  9.8350952036E-05  9.8350951991E-05
                       0.0000000000E+00  0.0000000000E+00  0.0000000000E+00
           symrel      1  0  0   0  1  0   0  0  1      -1  0  0   0  1  0   0  0  1
                       1  0  0   0 -1  0   0  0  1      -1  0  0   0 -1  0   0  0  1
                       1  0  0   0  1  0   0  0 -1      -1  0  0   0  1  0   0  0 -1
                       1  0  0   0 -1  0   0  0 -1      -1  0  0   0 -1  0   0  0 -1
           toldff      5.00000000E-06
            typat      1  1
           xangst1    -3.8665085053E-01  0.0000000000E+00  0.0000000000E+00
                       3.8665085053E-01  0.0000000000E+00  0.0000000000E+00
           xangst2    -3.7907712789E-01  0.0000000000E+00  0.0000000000E+00
                       3.7907712789E-01  0.0000000000E+00  0.0000000000E+00
           xangst3    -3.7264100115E-01  0.0000000000E+00  0.0000000000E+00
                       3.7264100115E-01  0.0000000000E+00  0.0000000000E+00
           xangst4    -3.6988532497E-01  0.0000000000E+00  0.0000000000E+00
                       3.6988532497E-01  0.0000000000E+00  0.0000000000E+00
           xangst5    -3.6905515735E-01  0.0000000000E+00  0.0000000000E+00
                       3.6905515735E-01  0.0000000000E+00  0.0000000000E+00
           xangst6    -3.6869419115E-01  0.0000000000E+00  0.0000000000E+00
                       3.6869419115E-01  0.0000000000E+00  0.0000000000E+00
           xangst7    -3.6853361773E-01  0.0000000000E+00  0.0000000000E+00
                       3.6853361773E-01  0.0000000000E+00  0.0000000000E+00
           xangst8    -3.6832675884E-01  0.0000000000E+00  0.0000000000E+00
                       3.6832675884E-01  0.0000000000E+00  0.0000000000E+00
           xangst9    -3.6811946353E-01  0.0000000000E+00  0.0000000000E+00
                       3.6811946353E-01  0.0000000000E+00  0.0000000000E+00
           xangst10   -3.6780937623E-01  0.0000000000E+00  0.0000000000E+00
                       3.6780937623E-01  0.0000000000E+00  0.0000000000E+00
            xcart1    -7.3066421656E-01  0.0000000000E+00  0.0000000000E+00
                       7.3066421656E-01  0.0000000000E+00  0.0000000000E+00
            xcart2    -7.1635195496E-01  0.0000000000E+00  0.0000000000E+00
                       7.1635195496E-01  0.0000000000E+00  0.0000000000E+00
            xcart3    -7.0418943806E-01  0.0000000000E+00  0.0000000000E+00
                       7.0418943806E-01  0.0000000000E+00  0.0000000000E+00
            xcart4    -6.9898196477E-01  0.0000000000E+00  0.0000000000E+00
                       6.9898196477E-01  0.0000000000E+00  0.0000000000E+00
            xcart5    -6.9741317531E-01  0.0000000000E+00  0.0000000000E+00
                       6.9741317531E-01  0.0000000000E+00  0.0000000000E+00
            xcart6    -6.9673104806E-01  0.0000000000E+00  0.0000000000E+00
                       6.9673104806E-01  0.0000000000E+00  0.0000000000E+00
            xcart7    -6.9642760827E-01  0.0000000000E+00  0.0000000000E+00
                       6.9642760827E-01  0.0000000000E+00  0.0000000000E+00
            xcart8    -6.9603670162E-01  0.0000000000E+00  0.0000000000E+00
                       6.9603670162E-01  0.0000000000E+00  0.0000000000E+00
            xcart9    -6.9564497026E-01  0.0000000000E+00  0.0000000000E+00
                       6.9564497026E-01  0.0000000000E+00  0.0000000000E+00
            xcart10   -6.9505899019E-01  0.0000000000E+00  0.0000000000E+00
                       6.9505899019E-01  0.0000000000E+00  0.0000000000E+00
             xred1    -1.0438060237E-01  0.0000000000E+00  0.0000000000E+00
                       1.0438060237E-01  0.0000000000E+00  0.0000000000E+00
             xred2    -1.0233599357E-01  0.0000000000E+00  0.0000000000E+00
                       1.0233599357E-01  0.0000000000E+00  0.0000000000E+00
             xred3    -1.0059849115E-01  0.0000000000E+00  0.0000000000E+00
                       1.0059849115E-01  0.0000000000E+00  0.0000000000E+00
             xred4    -9.9854566396E-02  0.0000000000E+00  0.0000000000E+00
                       9.9854566396E-02  0.0000000000E+00  0.0000000000E+00
             xred5    -9.9630453616E-02  0.0000000000E+00  0.0000000000E+00
                       9.9630453616E-02  0.0000000000E+00  0.0000000000E+00
             xred6    -9.9533006866E-02  0.0000000000E+00  0.0000000000E+00
                       9.9533006866E-02  0.0000000000E+00  0.0000000000E+00
             xred7    -9.9489658325E-02  0.0000000000E+00  0.0000000000E+00
                       9.9489658325E-02  0.0000000000E+00  0.0000000000E+00
             xred8    -9.9433814517E-02  0.0000000000E+00  0.0000000000E+00
                       9.9433814517E-02  0.0000000000E+00  0.0000000000E+00
             xred9    -9.9377852894E-02  0.0000000000E+00  0.0000000000E+00
                       9.9377852894E-02  0.0000000000E+00  0.0000000000E+00
             xred10   -9.9294141456E-02  0.0000000000E+00  0.0000000000E+00
                       9.9294141456E-02  0.0000000000E+00  0.0000000000E+00
            znucl        1.00000

================================================================================


- Timing analysis has been suppressed with timopt=0



================================================================================

 Suggested references for the acknowledgment of ABINIT usage.

 The users of ABINIT have little formal obligations with respect to the ABINIT group
 (those specified in the GNU General Public License, http://www.gnu.org/copyleft/gpl.txt).
 However, it is common practice in the scientific literature,
 to acknowledge the efforts of people that have made the research possible.
 In this spirit, please find below suggested citations of work written by ABINIT developers,
 corresponding to implementations inside of ABINIT that you have used in the present run.
 Note also that it will be of great value to readers of publications presenting these results,
 to read papers enabling them to understand the theoretical formalism and details
 of the ABINIT implementation.
 For information on why they are suggested, see also http://www.abinit.org/about/?text=acknowledgments.

 [1] ABINIT : First-principles approach of materials and nanosystem properties.
 X. Gonze, B. Amadon, P.-M. Anglade, J.-M. Beuken, F. Bottin, P. Boulanger, F. Bruneval,
 D. Caliste, R. Caracas, M. Cote, T. Deutsch, L. Genovese, Ph. Ghosez, M. Giantomassi
 S. Goedecker, D.R. Hamann, P. Hermet, F. Jollet, G. Jomard, S. Leroux, M. Mancini, S. Mazevet,
 M.J.T. Oliveira, G. Onida, Y. Pouillon, T. Rangel, G.-M. Rignanese, D. Sangalli, R. Shaltaf,
 M. Torrent, M.J. Verstraete, G. Zerah, J.W. Zwanziger
 Computer Phys. Comm. 180, 2582-2615 (2009).
 Comment : the third generic paper describing the ABINIT project.
 Note that a version of this paper, that is not formatted for Computer Phys. Comm. 
 is available at http://www.abinit.org/about/ABINIT_CPC_v10.pdf .
 The licence allows the authors to put it on the Web.

 [2] A brief introduction to the ABINIT software package.
 X. Gonze, G.-M. Rignanese, M. Verstraete, J.-M. Beuken, Y. Pouillon, R. Caracas, F. Jollet,
 M. Torrent, G. Zerah, M. Mikami, Ph. Ghosez, M. Veithen, J.-Y. Raty, V. Olevano, F. Bruneval,
 L. Reining, R. Godby, G. Onida, D.R. Hamann, and D.C. Allan.
 Z. Kristallogr. 220, 558-562 (2005).
 Comment : the second generic paper describing the ABINIT project. Note that this paper
 should be cited especially if you are using the GW part of ABINIT, as several authors
 of this part are not in the list of authors of the first or third paper.
 The .pdf of the latter paper is available at http://www.abinit.org/about/zfk_0505-06_558-562.pdf.
 Note that it should not redistributed (Copyright by Oldenburg Wissenshaftverlag,
 the licence allows the authors to put it on the Web).


 And optionally :

 [3] First-principles computation of material properties : the ABINIT software project. 
 X. Gonze, J.-M. Beuken, R. Caracas, F. Detraux, M. Fuchs, G.-M. Rignanese, L. Sindic,
 M. Verstraete, G. Zerah, F. Jollet, M. Torrent, A. Roy, M. Mikami, Ph. Ghosez, J.-Y. Raty, D.C. Allan.
 Computational Materials Science 25, 478-492 (2002). http://dx.doi.org/10.1016/S0927-0256(02)00325-7
 Comment : the original paper describing the ABINIT project.

 [4] Fast radix 2, 3, 4 and 5 kernels for Fast Fourier Transformations
 on computers with overlapping multiply-add instructions.
 S. Goedecker, SIAM J. on Scientific Computing 18, 1605 (1997).

 [5] Towards a potential-based conjugate gradient algorithm for order-N self-consistent
 total energy calculations.
 X. Gonze, Phys. Rev. B 54, 4383 (1996).
 Comment : The potential-based conjugate-gradient algorithm, used when iscf=5, is not published.
 However, many elements of this algorithm have been explained in the paper above.
-
- Proc.   0 individual time (sec): cpu=          2.4  wall=          2.4

================================================================================

 Calculation completed.
.Delivered   33 WARNINGs and  38 COMMENTs to log file.
+Overall time at end (sec) : cpu=          2.4  wall=          2.4
