
.Version 7.9.3 of ABINIT 
.(MPI version, prepared for a x86_64_linux_gnu4.7 computer) 

.Copyright (C) 1998-2014 ABINIT group . 
 ABINIT comes with ABSOLUTELY NO WARRANTY.
 It is free software, and you are welcome to redistribute it
 under certain conditions (GNU General Public License,
 see ~abinit/COPYING or http://www.gnu.org/copyleft/gpl.txt).

 ABINIT is a project of the Universite Catholique de Louvain,
 Corning Inc. and other collaborators, see ~abinit/doc/developers/contributors.txt .
 Please read ~abinit/doc/users/acknowledgments.html for suggested
 acknowledgments of the ABINIT effort.
 For more information, see http://www.abinit.org .

.Starting date : Sat 30 Aug 2014.
- ( at 22h31 )
  
- input  file    -> t87.in
- output file    -> t87.out
- root for input  files -> t87i
- root for output files -> t87o


 DATASET    1 : space group P1 (#  1); Bravais aP (primitive triclinic)
================================================================================
 Values of the parameters that define the memory need for DATASET  1.
   intxc =         1  ionmov =         0    iscf =         5 xclevel =         1
  lmnmax =         1   lnmax =         1   mband =         1  mffmem =         1
P  mgfft =        24   mkmem =         1 mpssoang=         1     mpw =       258
  mqgrid =      3001   natom =         1    nfft =     13824    nkpt =         1
  nloalg =         4  nspden =         1 nspinor =         1  nsppol =         1
    nsym =         1  n1xccc =         0  ntypat =         1  occopt =         1
================================================================================
P This job should need less than                       3.232 Mbytes of memory.
  Rough estimation (10% accuracy) of disk space for files :
_ WF disk file :      0.006 Mbytes ; DEN or POT disk file :      0.107 Mbytes.
================================================================================


 DATASET    2 : space group P1 (#  1); Bravais aP (primitive triclinic)
================================================================================
 Values of the parameters that define the memory need for DATASET  2.
   intxc =         1  ionmov =         0    iscf =         5 xclevel =         1
  lmnmax =         1   lnmax =         1   mband =         1  mffmem =         1
P  mgfft =        24   mkmem =         1 mpssoang=         1     mpw =       515
  mqgrid =      3001   natom =         1    nfft =     13824    nkpt =         1
  nloalg =         4  nspden =         1 nspinor =         1  nsppol =         1
    nsym =         1  n1xccc =         0  ntypat =         1  occopt =         1
================================================================================
P This job should need less than                       3.314 Mbytes of memory.
  Rough estimation (10% accuracy) of disk space for files :
_ WF disk file :      0.010 Mbytes ; DEN or POT disk file :      0.107 Mbytes.
================================================================================


 DATASET    3 : space group P1 (#  1); Bravais aP (primitive triclinic)
================================================================================
 Values of the parameters that define the memory need for DATASET  3.
   intxc =         1  ionmov =         0    iscf =         5 xclevel =         1
  lmnmax =         1   lnmax =         1   mband =         1  mffmem =         1
P  mgfft =        24   mkmem =         1 mpssoang=         1     mpw =       515
  mqgrid =      3001   natom =         1    nfft =     13824    nkpt =         1
  nloalg =         4  nspden =         1 nspinor =         1  nsppol =         1
    nsym =         1  n1xccc =         0  ntypat =         1  occopt =         1
================================================================================
P This job should need less than                       3.314 Mbytes of memory.
  Rough estimation (10% accuracy) of disk space for files :
_ WF disk file :      0.010 Mbytes ; DEN or POT disk file :      0.107 Mbytes.
================================================================================


 DATASET    4 : space group P1 (#  1); Bravais aP (primitive triclinic)
================================================================================
 Values of the parameters that define the memory need for DATASET  4.
   intxc =         1  ionmov =         0    iscf =         5 xclevel =         1
  lmnmax =         1   lnmax =         1   mband =         1  mffmem =         1
P  mgfft =        24   mkmem =         1 mpssoang=         1     mpw =       258
  mqgrid =      3001   natom =         1    nfft =     13824    nkpt =         1
  nloalg =         4  nspden =         1 nspinor =         1  nsppol =         1
    nsym =         1  n1xccc =         0  ntypat =         1  occopt =         1
================================================================================
P This job should need less than                       3.232 Mbytes of memory.
  Rough estimation (10% accuracy) of disk space for files :
_ WF disk file :      0.006 Mbytes ; DEN or POT disk file :      0.107 Mbytes.
================================================================================


 DATASET    5 : space group P1 (#  1); Bravais aP (primitive triclinic)
================================================================================
 Values of the parameters that define the memory need for DATASET  5.
   intxc =         1  ionmov =         0    iscf =         5 xclevel =         1
  lmnmax =         1   lnmax =         1   mband =         1  mffmem =         1
P  mgfft =        24   mkmem =         1 mpssoang=         1     mpw =       258
  mqgrid =      3001   natom =         1    nfft =     13824    nkpt =         1
  nloalg =         4  nspden =         1 nspinor =         1  nsppol =         1
    nsym =         1  n1xccc =         0  ntypat =         1  occopt =         1
================================================================================
P This job should need less than                       3.232 Mbytes of memory.
  Rough estimation (10% accuracy) of disk space for files :
_ WF disk file :      0.006 Mbytes ; DEN or POT disk file :      0.107 Mbytes.
================================================================================


 DATASET    6 : space group P1 (#  1); Bravais aP (primitive triclinic)
================================================================================
 Values of the parameters that define the memory need for DATASET  6.
   intxc =         1  ionmov =         0    iscf =         5 xclevel =         1
  lmnmax =         1   lnmax =         1   mband =         1  mffmem =         1
P  mgfft =        24   mkmem =         1 mpssoang=         1     mpw =       515
  mqgrid =      3001   natom =         1    nfft =     13824    nkpt =         1
  nloalg =         4  nspden =         1 nspinor =         1  nsppol =         1
    nsym =         1  n1xccc =         0  ntypat =         1  occopt =         1
================================================================================
P This job should need less than                       3.314 Mbytes of memory.
  Rough estimation (10% accuracy) of disk space for files :
_ WF disk file :      0.010 Mbytes ; DEN or POT disk file :      0.107 Mbytes.
================================================================================


 DATASET    7 : space group P1 (#  1); Bravais aP (primitive triclinic)
================================================================================
 Values of the parameters that define the memory need for DATASET  7.
   intxc =         1  ionmov =         0    iscf =         5 xclevel =         1
  lmnmax =         1   lnmax =         1   mband =         1  mffmem =         1
P  mgfft =        24   mkmem =         1 mpssoang=         1     mpw =       515
  mqgrid =      3001   natom =         1    nfft =     13824    nkpt =         1
  nloalg =         4  nspden =         1 nspinor =         1  nsppol =         1
    nsym =         1  n1xccc =         0  ntypat =         1  occopt =         1
================================================================================
P This job should need less than                       3.314 Mbytes of memory.
  Rough estimation (10% accuracy) of disk space for files :
_ WF disk file :      0.010 Mbytes ; DEN or POT disk file :      0.107 Mbytes.
================================================================================


 DATASET    8 : space group P1 (#  1); Bravais aP (primitive triclinic)
================================================================================
 Values of the parameters that define the memory need for DATASET  8.
   intxc =         1  ionmov =         0    iscf =         5 xclevel =         1
  lmnmax =         1   lnmax =         1   mband =         1  mffmem =         1
P  mgfft =        24   mkmem =         1 mpssoang=         1     mpw =       258
  mqgrid =      3001   natom =         1    nfft =     13824    nkpt =         1
  nloalg =         4  nspden =         1 nspinor =         1  nsppol =         1
    nsym =         1  n1xccc =         0  ntypat =         1  occopt =         1
================================================================================
P This job should need less than                       3.232 Mbytes of memory.
  Rough estimation (10% accuracy) of disk space for files :
_ WF disk file :      0.006 Mbytes ; DEN or POT disk file :      0.107 Mbytes.
================================================================================


 DATASET    9 : space group P1 (#  1); Bravais aP (primitive triclinic)
================================================================================
 Values of the parameters that define the memory need for DATASET  9.
   intxc =         1  ionmov =         0    iscf =         5 xclevel =         1
  lmnmax =         1   lnmax =         1   mband =         1  mffmem =         1
P  mgfft =        24   mkmem =         1 mpssoang=         1     mpw =       515
  mqgrid =      3001   natom =         1    nfft =     13824    nkpt =         1
  nloalg =         4  nspden =         1 nspinor =         1  nsppol =         1
    nsym =         1  n1xccc =         0  ntypat =         1  occopt =         1
================================================================================
P This job should need less than                       3.314 Mbytes of memory.
  Rough estimation (10% accuracy) of disk space for files :
_ WF disk file :      0.010 Mbytes ; DEN or POT disk file :      0.107 Mbytes.
================================================================================


 DATASET   10 : space group P1 (#  1); Bravais aP (primitive triclinic)
================================================================================
 Values of the parameters that define the memory need for DATASET 10.
   intxc =         1  ionmov =         0    iscf =         5 xclevel =         1
  lmnmax =         1   lnmax =         1   mband =         1  mffmem =         1
P  mgfft =        24   mkmem =         1 mpssoang=         1     mpw =       515
  mqgrid =      3001   natom =         1    nfft =     13824    nkpt =         1
  nloalg =         4  nspden =         1 nspinor =         1  nsppol =         1
    nsym =         1  n1xccc =         0  ntypat =         1  occopt =         1
================================================================================
P This job should need less than                       3.314 Mbytes of memory.
  Rough estimation (10% accuracy) of disk space for files :
_ WF disk file :      0.010 Mbytes ; DEN or POT disk file :      0.107 Mbytes.
================================================================================


 DATASET   11 : space group P1 (#  1); Bravais aP (primitive triclinic)
================================================================================
 Values of the parameters that define the memory need for DATASET 11.
   intxc =         1  ionmov =         0    iscf =         5 xclevel =         1
  lmnmax =         1   lnmax =         1   mband =         1  mffmem =         1
P  mgfft =        24   mkmem =         1 mpssoang=         1     mpw =       515
  mqgrid =      3001   natom =         1    nfft =     13824    nkpt =         1
  nloalg =         4  nspden =         1 nspinor =         1  nsppol =         1
    nsym =         1  n1xccc =         0  ntypat =         1  occopt =         1
================================================================================
P This job should need less than                       3.314 Mbytes of memory.
  Rough estimation (10% accuracy) of disk space for files :
_ WF disk file :      0.010 Mbytes ; DEN or POT disk file :      0.107 Mbytes.
================================================================================


 DATASET   12 : space group P1 (#  1); Bravais aP (primitive triclinic)
================================================================================
 Values of the parameters that define the memory need for DATASET 12.
   intxc =         1  ionmov =         0    iscf =         5 xclevel =         1
  lmnmax =         1   lnmax =         1   mband =         1  mffmem =         1
P  mgfft =        24   mkmem =         1 mpssoang=         1     mpw =       515
  mqgrid =      3001   natom =         1    nfft =     13824    nkpt =         1
  nloalg =         4  nspden =         1 nspinor =         1  nsppol =         1
    nsym =         1  n1xccc =         0  ntypat =         1  occopt =         1
================================================================================
P This job should need less than                       3.314 Mbytes of memory.
  Rough estimation (10% accuracy) of disk space for files :
_ WF disk file :      0.010 Mbytes ; DEN or POT disk file :      0.107 Mbytes.
================================================================================


 DATASET   13 : space group P1 (#  1); Bravais aP (primitive triclinic)
================================================================================
 Values of the parameters that define the memory need for DATASET 13.
   intxc =         1  ionmov =         0    iscf =         5 xclevel =         1
  lmnmax =         1   lnmax =         1   mband =         1  mffmem =         1
P  mgfft =        24   mkmem =         1 mpssoang=         1     mpw =       258
  mqgrid =      3001   natom =         1    nfft =     13824    nkpt =         1
  nloalg =         4  nspden =         1 nspinor =         1  nsppol =         1
    nsym =         1  n1xccc =         0  ntypat =         1  occopt =         1
================================================================================
P This job should need less than                       3.232 Mbytes of memory.
  Rough estimation (10% accuracy) of disk space for files :
_ WF disk file :      0.006 Mbytes ; DEN or POT disk file :      0.107 Mbytes.
================================================================================


 DATASET   14 : space group P1 (#  1); Bravais aP (primitive triclinic)
================================================================================
 Values of the parameters that define the memory need for DATASET 14.
   intxc =         1  ionmov =         0    iscf =         5 xclevel =         1
  lmnmax =         1   lnmax =         1   mband =         1  mffmem =         1
P  mgfft =        24   mkmem =         1 mpssoang=         1     mpw =       258
  mqgrid =      3001   natom =         1    nfft =     13824    nkpt =         1
  nloalg =         4  nspden =         1 nspinor =         1  nsppol =         1
    nsym =         1  n1xccc =         0  ntypat =         1  occopt =         1
================================================================================
P This job should need less than                       3.232 Mbytes of memory.
  Rough estimation (10% accuracy) of disk space for files :
_ WF disk file :      0.006 Mbytes ; DEN or POT disk file :      0.107 Mbytes.
================================================================================


 DATASET   15 : space group P1 (#  1); Bravais aP (primitive triclinic)
================================================================================
 Values of the parameters that define the memory need for DATASET 15.
   intxc =         1  ionmov =         0    iscf =         5 xclevel =         1
  lmnmax =         1   lnmax =         1   mband =         1  mffmem =         1
P  mgfft =        24   mkmem =         1 mpssoang=         1     mpw =       258
  mqgrid =      3001   natom =         1    nfft =     13824    nkpt =         1
  nloalg =         4  nspden =         1 nspinor =         1  nsppol =         1
    nsym =         1  n1xccc =         0  ntypat =         1  occopt =         1
================================================================================
P This job should need less than                       3.232 Mbytes of memory.
  Rough estimation (10% accuracy) of disk space for files :
_ WF disk file :      0.006 Mbytes ; DEN or POT disk file :      0.107 Mbytes.
================================================================================


 DATASET   16 : space group P1 (#  1); Bravais aP (primitive triclinic)
================================================================================
 Values of the parameters that define the memory need for DATASET 16.
   intxc =         1  ionmov =         0    iscf =         5 xclevel =         1
  lmnmax =         1   lnmax =         1   mband =         1  mffmem =         1
P  mgfft =        24   mkmem =         1 mpssoang=         1     mpw =       258
  mqgrid =      3001   natom =         1    nfft =     13824    nkpt =         1
  nloalg =         4  nspden =         1 nspinor =         1  nsppol =         1
    nsym =         1  n1xccc =         0  ntypat =         1  occopt =         1
================================================================================
P This job should need less than                       3.262 Mbytes of memory.
  Rough estimation (10% accuracy) of disk space for files :
_ WF disk file :      0.006 Mbytes ; DEN or POT disk file :      0.107 Mbytes.
================================================================================


 DATASET   17 : space group P1 (#  1); Bravais aP (primitive triclinic)
================================================================================
 Values of the parameters that define the memory need for DATASET 17.
   intxc =         1  ionmov =         0    iscf =         5 xclevel =         1
  lmnmax =         1   lnmax =         1   mband =         1  mffmem =         1
P  mgfft =        24   mkmem =         1 mpssoang=         1     mpw =       258
  mqgrid =      3001   natom =         1    nfft =     13824    nkpt =         1
  nloalg =         4  nspden =         1 nspinor =         1  nsppol =         1
    nsym =         1  n1xccc =         0  ntypat =         1  occopt =         1
================================================================================
P This job should need less than                       3.262 Mbytes of memory.
  Rough estimation (10% accuracy) of disk space for files :
_ WF disk file :      0.006 Mbytes ; DEN or POT disk file :      0.107 Mbytes.
================================================================================


 DATASET   18 : space group P1 (#  1); Bravais aP (primitive triclinic)
================================================================================
 Values of the parameters that define the memory need for DATASET 18.
   intxc =         1  ionmov =         0    iscf =         5 xclevel =         1
  lmnmax =         1   lnmax =         1   mband =         1  mffmem =         1
P  mgfft =        24   mkmem =         1 mpssoang=         1     mpw =       258
  mqgrid =      3001   natom =         1    nfft =     13824    nkpt =         1
  nloalg =         4  nspden =         1 nspinor =         1  nsppol =         1
    nsym =         1  n1xccc =         0  ntypat =         1  occopt =         1
================================================================================
P This job should need less than                       3.262 Mbytes of memory.
  Rough estimation (10% accuracy) of disk space for files :
_ WF disk file :      0.006 Mbytes ; DEN or POT disk file :      0.107 Mbytes.
================================================================================


 DATASET   19 : space group P1 (#  1); Bravais aP (primitive triclinic)
================================================================================
 Values of the parameters that define the memory need for DATASET 19.
   intxc =         1  ionmov =         0    iscf =         5 xclevel =         1
  lmnmax =         1   lnmax =         1   mband =         1  mffmem =         1
P  mgfft =        24   mkmem =         1 mpssoang=         1     mpw =       515
  mqgrid =      3001   natom =         1    nfft =     13824    nkpt =         1
  nloalg =         4  nspden =         1 nspinor =         1  nsppol =         1
    nsym =         1  n1xccc =         0  ntypat =         1  occopt =         1
================================================================================
P This job should need less than                       3.314 Mbytes of memory.
  Rough estimation (10% accuracy) of disk space for files :
_ WF disk file :      0.010 Mbytes ; DEN or POT disk file :      0.107 Mbytes.
================================================================================


 DATASET   20 : space group P1 (#  1); Bravais aP (primitive triclinic)
================================================================================
 Values of the parameters that define the memory need for DATASET 20.
   intxc =         1  ionmov =         0    iscf =         5 xclevel =         1
  lmnmax =         1   lnmax =         1   mband =         1  mffmem =         1
P  mgfft =        24   mkmem =         1 mpssoang=         1     mpw =       515
  mqgrid =      3001   natom =         1    nfft =     13824    nkpt =         1
  nloalg =         4  nspden =         1 nspinor =         1  nsppol =         1
    nsym =         1  n1xccc =         0  ntypat =         1  occopt =         1
================================================================================
P This job should need less than                       3.314 Mbytes of memory.
  Rough estimation (10% accuracy) of disk space for files :
_ WF disk file :      0.010 Mbytes ; DEN or POT disk file :      0.107 Mbytes.
================================================================================


 DATASET   21 : space group P1 (#  1); Bravais aP (primitive triclinic)
================================================================================
 Values of the parameters that define the memory need for DATASET 21.
   intxc =         1  ionmov =         0    iscf =         5 xclevel =         1
  lmnmax =         1   lnmax =         1   mband =         1  mffmem =         1
P  mgfft =        24   mkmem =         1 mpssoang=         1     mpw =       515
  mqgrid =      3001   natom =         1    nfft =     13824    nkpt =         1
  nloalg =         4  nspden =         1 nspinor =         1  nsppol =         1
    nsym =         1  n1xccc =         0  ntypat =         1  occopt =         1
================================================================================
P This job should need less than                       3.314 Mbytes of memory.
  Rough estimation (10% accuracy) of disk space for files :
_ WF disk file :      0.010 Mbytes ; DEN or POT disk file :      0.107 Mbytes.
================================================================================

--------------------------------------------------------------------------------
------------- Echo of variables that govern the present computation ------------
--------------------------------------------------------------------------------
-
- outvars: echo of selected default values                                      
-   accesswff0 =  0 , fftalg0 =112 , wfoptalg0 =  0
-
- outvars: echo of global parameters not present in the input file              
-  max_nthreads =    0
-
 -outvars: echo values of preprocessed input variables --------
            acell      1.0000000000E+01  1.0000000000E+01  1.0000000000E+01 Bohr
              amu      1.00794000E+00
           diemac      1.00000000E+00
             ecut      5.00000000E+00 Hartree
-          fftalg1        112
-          fftalg2        112
-          fftalg3        111
-          fftalg4        111
-          fftalg5        110
-          fftalg6        110
-          fftalg7        100
-          fftalg8        112
-          fftalg9        112
-          fftalg10       400
-          fftalg11       401
-          fftalg12       402
-          fftalg13       410
-          fftalg14       411
-          fftalg15       412
-          fftalg16       400
-          fftalg17       401
-          fftalg18       402
-          fftalg19       410
-          fftalg20       411
-          fftalg21       412
           getwfk1          0
           getwfk2          1
           getwfk3          1
           getwfk4          1
           getwfk5          1
           getwfk6          1
           getwfk7          1
           getwfk8          1
           getwfk9          1
           getwfk10         1
           getwfk11         1
           getwfk12         1
           getwfk13         1
           getwfk14         1
           getwfk15         1
           getwfk16         1
           getwfk17         1
           getwfk18         1
           getwfk19         1
           getwfk20         1
           getwfk21         1
            intxc           1
             iscf           5
           istwfk1       2
           istwfk2       1
           istwfk3       1
           istwfk4       2
           istwfk5       2
           istwfk6       1
           istwfk7       1
           istwfk8       2
           istwfk9       1
           istwfk10      1
           istwfk11      1
           istwfk12      1
           istwfk13      2
           istwfk14      2
           istwfk15      2
           istwfk16      2
           istwfk17      2
           istwfk18      2
           istwfk19      1
           istwfk20      1
           istwfk21      1
           jdtset        1    2    3    4    5    6    7    8    9   10
                        11   12   13   14   15   16   17   18   19   20
                        21
           kptopt           0
P           mkmem           1
            natom           1
            nband           1
           ndtset          21
            ngfft          24      24      24
             nkpt           1
            nline           3
            nstep1         20
            nstep2         20
            nstep3         20
            nstep4         20
            nstep5         20
            nstep6         20
            nstep7         20
            nstep8          0
            nstep9          0
            nstep10        20
            nstep11        20
            nstep12        20
            nstep13        20
            nstep14        20
            nstep15        20
            nstep16        20
            nstep17        20
            nstep18        20
            nstep19        20
            nstep20        20
            nstep21        20
             nsym           1
           ntypat           1
              occ      1.000000
          spgroup           1
           tolwfr      1.00000000E-14
            typat      1
            znucl        1.00000

================================================================================

 chkinp: Checking input parameters for consistency, jdtset=   1.

 chkinp: Checking input parameters for consistency, jdtset=   2.

 chkinp: Checking input parameters for consistency, jdtset=   3.

 chkinp: Checking input parameters for consistency, jdtset=   4.

 chkinp: Checking input parameters for consistency, jdtset=   5.

 chkinp: Checking input parameters for consistency, jdtset=   6.

 chkinp: Checking input parameters for consistency, jdtset=   7.

 chkinp: Checking input parameters for consistency, jdtset=   8.

 chkinp: Checking input parameters for consistency, jdtset=   9.

 chkinp: Checking input parameters for consistency, jdtset=  10.

 chkinp: Checking input parameters for consistency, jdtset=  11.

 chkinp: Checking input parameters for consistency, jdtset=  12.

 chkinp: Checking input parameters for consistency, jdtset=  13.

 chkinp: Checking input parameters for consistency, jdtset=  14.

 chkinp: Checking input parameters for consistency, jdtset=  15.

 chkinp: Checking input parameters for consistency, jdtset=  16.

 chkinp: Checking input parameters for consistency, jdtset=  17.

 chkinp: Checking input parameters for consistency, jdtset=  18.

 chkinp: Checking input parameters for consistency, jdtset=  19.

 chkinp: Checking input parameters for consistency, jdtset=  20.

 chkinp: Checking input parameters for consistency, jdtset=  21.

================================================================================
== DATASET  1 ==================================================================
-   nproc =    1

 Exchange-correlation functional for the present dataset will be:
  LDA: new Teter (4/93) with spin-polarized option - ixc=1
 Citation for XC functional:
  S. Goedecker, M. Teter, J. Huetter, PRB 54, 1703 (1996)

 Real(R)+Recip(G) space primitive vectors, cartesian coordinates (Bohr,Bohr^-1):
 R(1)= 10.0000000  0.0000000  0.0000000  G(1)=  0.1000000  0.0000000  0.0000000
 R(2)=  0.0000000 10.0000000  0.0000000  G(2)=  0.0000000  0.1000000  0.0000000
 R(3)=  0.0000000  0.0000000 10.0000000  G(3)=  0.0000000  0.0000000  0.1000000
 Unit cell volume ucvol=  1.0000000E+03 bohr^3
 Angles (23,13,12)=  9.00000000E+01  9.00000000E+01  9.00000000E+01 degrees

 getcut: wavevector=  0.0000  0.0000  0.0000  ngfft=  24  24  24
         ecut(hartree)=      5.000   => boxcut(ratio)=   2.38430

 getcut : COMMENT -
  Note that boxcut > 2.2 ; recall that boxcut=Gcut(box)/Gcut(sphere) = 2
  is sufficient for exact treatment of convolution.
  Such a large boxcut is a waste : you could raise ecut
  e.g. ecut=    7.106115 Hartrees makes boxcut=2


--- Pseudopotential description ------------------------------------------------
- pspini: atom type   1  psp file is /home/gonze/ABINIT/ABINITv7.9.3/trunk/7.9.3-private/tests/Psps_for_tests/1h.pspnc
- pspatm: opening atomic psp file    /home/gonze/ABINIT/ABINITv7.9.3/trunk/7.9.3-private/tests/Psps_for_tests/1h.pspnc
-  Troullier-Martins psp for element  H         Thu Oct 27 17:28:54 EDT 1994
-  1.00000   1.00000    940714                znucl, zion, pspdat
    1    1    0    0      2001   0.00000      pspcod,pspxc,lmax,lloc,mmax,r2well
    0   7.740  11.990    0   1.5855604        l,e99.0,e99.9,nproj,rcpsp
   0.00000000   0.00000000   0.00000000   0.00000000     rms, ekb1, ekb2, epsatm
    0.00000000000000    0.00000000000000    0.00000000000000   rchrg,fchrg,qchrg
 Note: local psp for atom with Z=  1.0
 pspatm: epsatm=    0.04198703
         --- l  ekb(1:nproj) -->
 pspatm: atomic psp has been read  and splines computed

   4.19870298E-02                                ecore*ucvol(ha*bohr**3)
--------------------------------------------------------------------------------

P newkpt: treating      1 bands with npw=     258 for ikpt=   1 by node    0

_setup2: Arith. and geom. avg. npw (full set) are     515.000     515.000

================================================================================

     iter   Etot(hartree)      deltaE(h)  residm     vres2
 ETOT  1 -0.43453952628139    -4.345E-01 3.908E-05 2.107E+00
 ETOT  2 -0.43477027851768    -2.308E-04 1.880E-10 8.209E-03
 ETOT  3 -0.43477297307293    -2.695E-06 4.025E-08 9.981E-05
 ETOT  4 -0.43477309575512    -1.227E-07 7.384E-10 4.986E-07
 ETOT  5 -0.43477309490592     8.492E-10 6.260E-12 2.101E-06
 ETOT  6 -0.43477309572720    -8.213E-10 1.272E-11 4.143E-08
 ETOT  7 -0.43477309577606    -4.887E-11 5.970E-14 2.144E-07
 ETOT  8 -0.43477309578637    -1.031E-11 2.784E-14 8.440E-10
 ETOT  9 -0.43477309578640    -3.192E-14 3.679E-15 3.074E-12

 At SCF step    9   max residual=  3.68E-15 < tolwfr=  1.00E-14 =>converged.

 Cartesian components of stress tensor (hartree/bohr^3)
  sigma(1 1)=  3.01068777E-05  sigma(3 2)=  9.10006992E-14
  sigma(2 2)=  3.01068773E-05  sigma(3 1)=  1.06738529E-13
  sigma(3 3)=  3.01068773E-05  sigma(2 1)= -3.76625478E-13

================================================================================

 ----iterations are completed or convergence reached----

 Mean square residual over all n,k,spin=   3.6791E-15; max=  3.6791E-15
   0.0000  0.0000  0.0000    1  3.67909E-15 kpt; spin; max resid(k); each band:
  3.68E-15
 reduced coordinates (array xred) for    1 atoms
       0.000000000000      0.000000000000      0.000000000000
 rms dE/dt=  8.6027E-09; max dE/dt=  3.0892E-10; dE/dt below (all hartree)
    1      -0.000000006521     -0.000000013394      0.000000000309

 cartesian coordinates (angstrom) at end:
    1      0.00000000000000     0.00000000000000     0.00000000000000

 cartesian forces (hartree/bohr) at end:
    1      0.00000000000000     0.00000000000000     0.00000000000000
 frms,max,avg= 0.0000000E+00 0.0000000E+00   6.521E-10  1.339E-09 -3.089E-11 h/b

 cartesian forces (eV/Angstrom) at end:
    1      0.00000000000000     0.00000000000000     0.00000000000000
 frms,max,avg= 0.0000000E+00 0.0000000E+00   3.353E-08  6.887E-08 -1.589E-09 e/A
 length scales= 10.000000000000 10.000000000000 10.000000000000 bohr
              =  5.291772085900  5.291772085900  5.291772085900 angstroms
 prteigrs : about to open file t87o_DS1_EIG
 Fermi (or HOMO) energy (hartree) =  -0.23096   Average Vxc (hartree)=  -0.08046
 Eigenvalues (hartree) for nkpt=   1  k points:
 kpt#   1, nband=  1, wtk=  1.00000, kpt=  0.0000  0.0000  0.0000 (reduced coord)
  -0.23096
 Total charge density [el/Bohr^3]
,     Maximum=    9.1838E-02  at reduced coord.    0.0000    0.0000    0.0000
,Next maximum=    7.8949E-02  at reduced coord.    0.0000    0.0417    0.0000
,     Minimum=    1.4114E-06  at reduced coord.    0.5000    0.5000    0.5000
,Next minimum=    2.6091E-06  at reduced coord.    0.5000    0.5000    0.4583
,  Integrated=    1.0000E+00

--------------------------------------------------------------------------------
 Components of total free energy (in Hartree) :

    Kinetic energy  =  3.39880583902551E-01
    Hartree energy  =  1.26904803474573E-01
    XC energy       = -2.14541073255949E-01
    Ewald energy    = -1.41864873974033E-01
    PspCore energy  =  4.19870298485538E-05
    Loc. psp. energy= -5.45194522963390E-01
    NL   psp  energy=  0.00000000000000E+00
    >>>>>>>>> Etotal= -4.34773095786399E-01

 Other information on the energy :
    Total energy(eV)= -1.18307776014442E+01 ; Band energy (Ha)=  -2.3095922722E-01
--------------------------------------------------------------------------------

 Cartesian components of stress tensor (hartree/bohr^3)
  sigma(1 1)=  3.01068777E-05  sigma(3 2)=  9.10006992E-14
  sigma(2 2)=  3.01068773E-05  sigma(3 1)=  1.06738529E-13
  sigma(3 3)=  3.01068773E-05  sigma(2 1)= -3.76625478E-13

-Cartesian components of stress tensor (GPa)         [Pressure= -8.8577E-01 GPa]
- sigma(1 1)=  8.85774774E-01  sigma(3 2)=  2.67733255E-09
- sigma(2 2)=  8.85774763E-01  sigma(3 1)=  3.14035542E-09
- sigma(3 3)=  8.85774763E-01  sigma(2 1)= -1.10807023E-08

================================================================================
== DATASET  2 ==================================================================
-   nproc =    1

 mkfilename : getwfk/=0, take file _WFK from output of DATASET   1.

 Exchange-correlation functional for the present dataset will be:
  LDA: new Teter (4/93) with spin-polarized option - ixc=1
 Citation for XC functional:
  S. Goedecker, M. Teter, J. Huetter, PRB 54, 1703 (1996)

 Real(R)+Recip(G) space primitive vectors, cartesian coordinates (Bohr,Bohr^-1):
 R(1)= 10.0000000  0.0000000  0.0000000  G(1)=  0.1000000  0.0000000  0.0000000
 R(2)=  0.0000000 10.0000000  0.0000000  G(2)=  0.0000000  0.1000000  0.0000000
 R(3)=  0.0000000  0.0000000 10.0000000  G(3)=  0.0000000  0.0000000  0.1000000
 Unit cell volume ucvol=  1.0000000E+03 bohr^3
 Angles (23,13,12)=  9.00000000E+01  9.00000000E+01  9.00000000E+01 degrees

 getcut: wavevector=  0.0000  0.0000  0.0000  ngfft=  24  24  24
         ecut(hartree)=      5.000   => boxcut(ratio)=   2.38430

 getcut : COMMENT -
  Note that boxcut > 2.2 ; recall that boxcut=Gcut(box)/Gcut(sphere) = 2
  is sufficient for exact treatment of convolution.
  Such a large boxcut is a waste : you could raise ecut
  e.g. ecut=    7.106115 Hartrees makes boxcut=2

--------------------------------------------------------------------------------

-inwffil : will read wavefunctions from disk file t87o_DS1_WFK
- newkpt: read input wf with ikpt,npw=   1     258, make ikpt,npw=   1     515

_setup2: Arith. and geom. avg. npw (full set) are     515.000     515.000

================================================================================

     iter   Etot(hartree)      deltaE(h)  residm     vres2
 ETOT  1 -0.43477309578640    -4.348E-01 2.967E-15 4.705E-31

 At SCF step    1   max residual=  2.97E-15 < tolwfr=  1.00E-14 =>converged.

 Cartesian components of stress tensor (hartree/bohr^3)
  sigma(1 1)=  3.01068777E-05  sigma(3 2)=  9.10007132E-14
  sigma(2 2)=  3.01068773E-05  sigma(3 1)=  1.06738528E-13
  sigma(3 3)=  3.01068773E-05  sigma(2 1)= -3.76625476E-13

================================================================================

 ----iterations are completed or convergence reached----

 Mean square residual over all n,k,spin=   2.9673E-15; max=  2.9673E-15
   0.0000  0.0000  0.0000    1  2.96731E-15 kpt; spin; max resid(k); each band:
  2.97E-15
 reduced coordinates (array xred) for    1 atoms
       0.000000000000      0.000000000000      0.000000000000
 rms dE/dt=  1.0057E-08; max dE/dt=  6.0545E-10; dE/dt below (all hartree)
    1      -0.000000008340     -0.000000015281      0.000000000605

 cartesian coordinates (angstrom) at end:
    1      0.00000000000000     0.00000000000000     0.00000000000000

 cartesian forces (hartree/bohr) at end:
    1      0.00000000000000     0.00000000000000     0.00000000000000
 frms,max,avg= 0.0000000E+00 0.0000000E+00   8.340E-10  1.528E-09 -6.054E-11 h/b

 cartesian forces (eV/Angstrom) at end:
    1      0.00000000000000     0.00000000000000     0.00000000000000
 frms,max,avg= 0.0000000E+00 0.0000000E+00   4.289E-08  7.858E-08 -3.113E-09 e/A
 length scales= 10.000000000000 10.000000000000 10.000000000000 bohr
              =  5.291772085900  5.291772085900  5.291772085900 angstroms
 prteigrs : about to open file t87o_DS2_EIG
 Fermi (or HOMO) energy (hartree) =  -0.23096   Average Vxc (hartree)=  -0.08046
 Eigenvalues (hartree) for nkpt=   1  k points:
 kpt#   1, nband=  1, wtk=  1.00000, kpt=  0.0000  0.0000  0.0000 (reduced coord)
  -0.23096
 Total charge density [el/Bohr^3]
,     Maximum=    9.1838E-02  at reduced coord.    0.0000    0.0000    0.0000
,Next maximum=    7.8949E-02  at reduced coord.    0.0000    0.0417    0.0000
,     Minimum=    1.4114E-06  at reduced coord.    0.5000    0.5000    0.5000
,Next minimum=    2.6091E-06  at reduced coord.    0.5000    0.5000    0.4583
,  Integrated=    1.0000E+00

--------------------------------------------------------------------------------
 Components of total free energy (in Hartree) :

    Kinetic energy  =  3.39880583902551E-01
    Hartree energy  =  1.26904803474573E-01
    XC energy       = -2.14541073255949E-01
    Ewald energy    = -1.41864873974033E-01
    PspCore energy  =  4.19870298485538E-05
    Loc. psp. energy= -5.45194522963390E-01
    NL   psp  energy=  0.00000000000000E+00
    >>>>>>>>> Etotal= -4.34773095786398E-01

 Other information on the energy :
    Total energy(eV)= -1.18307776014442E+01 ; Band energy (Ha)=  -2.3095921580E-01
--------------------------------------------------------------------------------

 Cartesian components of stress tensor (hartree/bohr^3)
  sigma(1 1)=  3.01068777E-05  sigma(3 2)=  9.10007132E-14
  sigma(2 2)=  3.01068773E-05  sigma(3 1)=  1.06738528E-13
  sigma(3 3)=  3.01068773E-05  sigma(2 1)= -3.76625476E-13

-Cartesian components of stress tensor (GPa)         [Pressure= -8.8577E-01 GPa]
- sigma(1 1)=  8.85774774E-01  sigma(3 2)=  2.67733297E-09
- sigma(2 2)=  8.85774763E-01  sigma(3 1)=  3.14035539E-09
- sigma(3 3)=  8.85774763E-01  sigma(2 1)= -1.10807022E-08

================================================================================
== DATASET  3 ==================================================================
-   nproc =    1

 mkfilename : getwfk/=0, take file _WFK from output of DATASET   1.

 Exchange-correlation functional for the present dataset will be:
  LDA: new Teter (4/93) with spin-polarized option - ixc=1
 Citation for XC functional:
  S. Goedecker, M. Teter, J. Huetter, PRB 54, 1703 (1996)

 Real(R)+Recip(G) space primitive vectors, cartesian coordinates (Bohr,Bohr^-1):
 R(1)= 10.0000000  0.0000000  0.0000000  G(1)=  0.1000000  0.0000000  0.0000000
 R(2)=  0.0000000 10.0000000  0.0000000  G(2)=  0.0000000  0.1000000  0.0000000
 R(3)=  0.0000000  0.0000000 10.0000000  G(3)=  0.0000000  0.0000000  0.1000000
 Unit cell volume ucvol=  1.0000000E+03 bohr^3
 Angles (23,13,12)=  9.00000000E+01  9.00000000E+01  9.00000000E+01 degrees

 getcut: wavevector=  0.0000  0.0000  0.0000  ngfft=  24  24  24
         ecut(hartree)=      5.000   => boxcut(ratio)=   2.38430

 getcut : COMMENT -
  Note that boxcut > 2.2 ; recall that boxcut=Gcut(box)/Gcut(sphere) = 2
  is sufficient for exact treatment of convolution.
  Such a large boxcut is a waste : you could raise ecut
  e.g. ecut=    7.106115 Hartrees makes boxcut=2

--------------------------------------------------------------------------------

-inwffil : will read wavefunctions from disk file t87o_DS1_WFK
- newkpt: read input wf with ikpt,npw=   1     258, make ikpt,npw=   1     515

_setup2: Arith. and geom. avg. npw (full set) are     515.000     515.000

================================================================================

     iter   Etot(hartree)      deltaE(h)  residm     vres2
 ETOT  1 -0.43477309578640    -4.348E-01 2.967E-15 5.137E-31

 At SCF step    1   max residual=  2.97E-15 < tolwfr=  1.00E-14 =>converged.

 Cartesian components of stress tensor (hartree/bohr^3)
  sigma(1 1)=  3.01068777E-05  sigma(3 2)=  9.10007096E-14
  sigma(2 2)=  3.01068773E-05  sigma(3 1)=  1.06738536E-13
  sigma(3 3)=  3.01068773E-05  sigma(2 1)= -3.76625472E-13

================================================================================

 ----iterations are completed or convergence reached----

 Mean square residual over all n,k,spin=   2.9673E-15; max=  2.9673E-15
   0.0000  0.0000  0.0000    1  2.96731E-15 kpt; spin; max resid(k); each band:
  2.97E-15
 reduced coordinates (array xred) for    1 atoms
       0.000000000000      0.000000000000      0.000000000000
 rms dE/dt=  1.0057E-08; max dE/dt=  6.0545E-10; dE/dt below (all hartree)
    1      -0.000000008340     -0.000000015281      0.000000000605

 cartesian coordinates (angstrom) at end:
    1      0.00000000000000     0.00000000000000     0.00000000000000

 cartesian forces (hartree/bohr) at end:
    1      0.00000000000000     0.00000000000000     0.00000000000000
 frms,max,avg= 0.0000000E+00 0.0000000E+00   8.340E-10  1.528E-09 -6.054E-11 h/b

 cartesian forces (eV/Angstrom) at end:
    1      0.00000000000000     0.00000000000000     0.00000000000000
 frms,max,avg= 0.0000000E+00 0.0000000E+00   4.289E-08  7.858E-08 -3.113E-09 e/A
 length scales= 10.000000000000 10.000000000000 10.000000000000 bohr
              =  5.291772085900  5.291772085900  5.291772085900 angstroms
 prteigrs : about to open file t87o_DS3_EIG
 Fermi (or HOMO) energy (hartree) =  -0.23096   Average Vxc (hartree)=  -0.08046
 Eigenvalues (hartree) for nkpt=   1  k points:
 kpt#   1, nband=  1, wtk=  1.00000, kpt=  0.0000  0.0000  0.0000 (reduced coord)
  -0.23096
 Total charge density [el/Bohr^3]
,     Maximum=    9.1838E-02  at reduced coord.    0.0000    0.0000    0.0000
,Next maximum=    7.8949E-02  at reduced coord.    0.0000    0.0417    0.0000
,     Minimum=    1.4114E-06  at reduced coord.    0.5000    0.5000    0.5000
,Next minimum=    2.6091E-06  at reduced coord.    0.5000    0.5000    0.4583
,  Integrated=    1.0000E+00

--------------------------------------------------------------------------------
 Components of total free energy (in Hartree) :

    Kinetic energy  =  3.39880583902551E-01
    Hartree energy  =  1.26904803474573E-01
    XC energy       = -2.14541073255949E-01
    Ewald energy    = -1.41864873974033E-01
    PspCore energy  =  4.19870298485538E-05
    Loc. psp. energy= -5.45194522963390E-01
    NL   psp  energy=  0.00000000000000E+00
    >>>>>>>>> Etotal= -4.34773095786398E-01

 Other information on the energy :
    Total energy(eV)= -1.18307776014442E+01 ; Band energy (Ha)=  -2.3095921580E-01
--------------------------------------------------------------------------------

 Cartesian components of stress tensor (hartree/bohr^3)
  sigma(1 1)=  3.01068777E-05  sigma(3 2)=  9.10007096E-14
  sigma(2 2)=  3.01068773E-05  sigma(3 1)=  1.06738536E-13
  sigma(3 3)=  3.01068773E-05  sigma(2 1)= -3.76625472E-13

-Cartesian components of stress tensor (GPa)         [Pressure= -8.8577E-01 GPa]
- sigma(1 1)=  8.85774774E-01  sigma(3 2)=  2.67733286E-09
- sigma(2 2)=  8.85774763E-01  sigma(3 1)=  3.14035561E-09
- sigma(3 3)=  8.85774763E-01  sigma(2 1)= -1.10807021E-08

================================================================================
== DATASET  4 ==================================================================
-   nproc =    1

 mkfilename : getwfk/=0, take file _WFK from output of DATASET   1.

 Exchange-correlation functional for the present dataset will be:
  LDA: new Teter (4/93) with spin-polarized option - ixc=1
 Citation for XC functional:
  S. Goedecker, M. Teter, J. Huetter, PRB 54, 1703 (1996)

 Real(R)+Recip(G) space primitive vectors, cartesian coordinates (Bohr,Bohr^-1):
 R(1)= 10.0000000  0.0000000  0.0000000  G(1)=  0.1000000  0.0000000  0.0000000
 R(2)=  0.0000000 10.0000000  0.0000000  G(2)=  0.0000000  0.1000000  0.0000000
 R(3)=  0.0000000  0.0000000 10.0000000  G(3)=  0.0000000  0.0000000  0.1000000
 Unit cell volume ucvol=  1.0000000E+03 bohr^3
 Angles (23,13,12)=  9.00000000E+01  9.00000000E+01  9.00000000E+01 degrees

 getcut: wavevector=  0.0000  0.0000  0.0000  ngfft=  24  24  24
         ecut(hartree)=      5.000   => boxcut(ratio)=   2.38430

 getcut : COMMENT -
  Note that boxcut > 2.2 ; recall that boxcut=Gcut(box)/Gcut(sphere) = 2
  is sufficient for exact treatment of convolution.
  Such a large boxcut is a waste : you could raise ecut
  e.g. ecut=    7.106115 Hartrees makes boxcut=2

--------------------------------------------------------------------------------

-inwffil : will read wavefunctions from disk file t87o_DS1_WFK
P newkpt: treating      1 bands with npw=     258 for ikpt=   1 by node    0

_setup2: Arith. and geom. avg. npw (full set) are     515.000     515.000

================================================================================

     iter   Etot(hartree)      deltaE(h)  residm     vres2
 ETOT  1 -0.43477309578640    -4.348E-01 2.967E-15 5.137E-31

 At SCF step    1   max residual=  2.97E-15 < tolwfr=  1.00E-14 =>converged.

 Cartesian components of stress tensor (hartree/bohr^3)
  sigma(1 1)=  3.01068777E-05  sigma(3 2)=  9.10006920E-14
  sigma(2 2)=  3.01068773E-05  sigma(3 1)=  1.06738534E-13
  sigma(3 3)=  3.01068773E-05  sigma(2 1)= -3.76625474E-13

================================================================================

 ----iterations are completed or convergence reached----

 Mean square residual over all n,k,spin=   2.9673E-15; max=  2.9673E-15
   0.0000  0.0000  0.0000    1  2.96731E-15 kpt; spin; max resid(k); each band:
  2.97E-15
 reduced coordinates (array xred) for    1 atoms
       0.000000000000      0.000000000000      0.000000000000
 rms dE/dt=  1.0057E-08; max dE/dt=  6.0545E-10; dE/dt below (all hartree)
    1      -0.000000008340     -0.000000015281      0.000000000605

 cartesian coordinates (angstrom) at end:
    1      0.00000000000000     0.00000000000000     0.00000000000000

 cartesian forces (hartree/bohr) at end:
    1      0.00000000000000     0.00000000000000     0.00000000000000
 frms,max,avg= 0.0000000E+00 0.0000000E+00   8.340E-10  1.528E-09 -6.054E-11 h/b

 cartesian forces (eV/Angstrom) at end:
    1      0.00000000000000     0.00000000000000     0.00000000000000
 frms,max,avg= 0.0000000E+00 0.0000000E+00   4.289E-08  7.858E-08 -3.113E-09 e/A
 length scales= 10.000000000000 10.000000000000 10.000000000000 bohr
              =  5.291772085900  5.291772085900  5.291772085900 angstroms
 prteigrs : about to open file t87o_DS4_EIG
 Fermi (or HOMO) energy (hartree) =  -0.23096   Average Vxc (hartree)=  -0.08046
 Eigenvalues (hartree) for nkpt=   1  k points:
 kpt#   1, nband=  1, wtk=  1.00000, kpt=  0.0000  0.0000  0.0000 (reduced coord)
  -0.23096
 Total charge density [el/Bohr^3]
,     Maximum=    9.1838E-02  at reduced coord.    0.0000    0.0000    0.0000
,Next maximum=    7.8949E-02  at reduced coord.    0.0000    0.0417    0.0000
,     Minimum=    1.4114E-06  at reduced coord.    0.5000    0.5000    0.5000
,Next minimum=    2.6091E-06  at reduced coord.    0.5000    0.5000    0.4583
,  Integrated=    1.0000E+00

--------------------------------------------------------------------------------
 Components of total free energy (in Hartree) :

    Kinetic energy  =  3.39880583902551E-01
    Hartree energy  =  1.26904803474573E-01
    XC energy       = -2.14541073255949E-01
    Ewald energy    = -1.41864873974033E-01
    PspCore energy  =  4.19870298485538E-05
    Loc. psp. energy= -5.45194522963390E-01
    NL   psp  energy=  0.00000000000000E+00
    >>>>>>>>> Etotal= -4.34773095786399E-01

 Other information on the energy :
    Total energy(eV)= -1.18307776014442E+01 ; Band energy (Ha)=  -2.3095921580E-01
--------------------------------------------------------------------------------

 Cartesian components of stress tensor (hartree/bohr^3)
  sigma(1 1)=  3.01068777E-05  sigma(3 2)=  9.10006920E-14
  sigma(2 2)=  3.01068773E-05  sigma(3 1)=  1.06738534E-13
  sigma(3 3)=  3.01068773E-05  sigma(2 1)= -3.76625474E-13

-Cartesian components of stress tensor (GPa)         [Pressure= -8.8577E-01 GPa]
- sigma(1 1)=  8.85774774E-01  sigma(3 2)=  2.67733234E-09
- sigma(2 2)=  8.85774763E-01  sigma(3 1)=  3.14035558E-09
- sigma(3 3)=  8.85774763E-01  sigma(2 1)= -1.10807021E-08

================================================================================
== DATASET  5 ==================================================================
-   nproc =    1

 mkfilename : getwfk/=0, take file _WFK from output of DATASET   1.

 Exchange-correlation functional for the present dataset will be:
  LDA: new Teter (4/93) with spin-polarized option - ixc=1
 Citation for XC functional:
  S. Goedecker, M. Teter, J. Huetter, PRB 54, 1703 (1996)

 Real(R)+Recip(G) space primitive vectors, cartesian coordinates (Bohr,Bohr^-1):
 R(1)= 10.0000000  0.0000000  0.0000000  G(1)=  0.1000000  0.0000000  0.0000000
 R(2)=  0.0000000 10.0000000  0.0000000  G(2)=  0.0000000  0.1000000  0.0000000
 R(3)=  0.0000000  0.0000000 10.0000000  G(3)=  0.0000000  0.0000000  0.1000000
 Unit cell volume ucvol=  1.0000000E+03 bohr^3
 Angles (23,13,12)=  9.00000000E+01  9.00000000E+01  9.00000000E+01 degrees

 getcut: wavevector=  0.0000  0.0000  0.0000  ngfft=  24  24  24
         ecut(hartree)=      5.000   => boxcut(ratio)=   2.38430

 getcut : COMMENT -
  Note that boxcut > 2.2 ; recall that boxcut=Gcut(box)/Gcut(sphere) = 2
  is sufficient for exact treatment of convolution.
  Such a large boxcut is a waste : you could raise ecut
  e.g. ecut=    7.106115 Hartrees makes boxcut=2

--------------------------------------------------------------------------------

-inwffil : will read wavefunctions from disk file t87o_DS1_WFK
P newkpt: treating      1 bands with npw=     258 for ikpt=   1 by node    0

_setup2: Arith. and geom. avg. npw (full set) are     515.000     515.000

================================================================================

     iter   Etot(hartree)      deltaE(h)  residm     vres2
 ETOT  1 -0.43477309578640    -4.348E-01 2.967E-15 5.137E-31

 At SCF step    1   max residual=  2.97E-15 < tolwfr=  1.00E-14 =>converged.

 Cartesian components of stress tensor (hartree/bohr^3)
  sigma(1 1)=  3.01068777E-05  sigma(3 2)=  9.10006920E-14
  sigma(2 2)=  3.01068773E-05  sigma(3 1)=  1.06738534E-13
  sigma(3 3)=  3.01068773E-05  sigma(2 1)= -3.76625474E-13

================================================================================

 ----iterations are completed or convergence reached----

 Mean square residual over all n,k,spin=   2.9673E-15; max=  2.9673E-15
   0.0000  0.0000  0.0000    1  2.96731E-15 kpt; spin; max resid(k); each band:
  2.97E-15
 reduced coordinates (array xred) for    1 atoms
       0.000000000000      0.000000000000      0.000000000000
 rms dE/dt=  1.0057E-08; max dE/dt=  6.0545E-10; dE/dt below (all hartree)
    1      -0.000000008340     -0.000000015281      0.000000000605

 cartesian coordinates (angstrom) at end:
    1      0.00000000000000     0.00000000000000     0.00000000000000

 cartesian forces (hartree/bohr) at end:
    1      0.00000000000000     0.00000000000000     0.00000000000000
 frms,max,avg= 0.0000000E+00 0.0000000E+00   8.340E-10  1.528E-09 -6.054E-11 h/b

 cartesian forces (eV/Angstrom) at end:
    1      0.00000000000000     0.00000000000000     0.00000000000000
 frms,max,avg= 0.0000000E+00 0.0000000E+00   4.289E-08  7.858E-08 -3.113E-09 e/A
 length scales= 10.000000000000 10.000000000000 10.000000000000 bohr
              =  5.291772085900  5.291772085900  5.291772085900 angstroms
 prteigrs : about to open file t87o_DS5_EIG
 Fermi (or HOMO) energy (hartree) =  -0.23096   Average Vxc (hartree)=  -0.08046
 Eigenvalues (hartree) for nkpt=   1  k points:
 kpt#   1, nband=  1, wtk=  1.00000, kpt=  0.0000  0.0000  0.0000 (reduced coord)
  -0.23096
 Total charge density [el/Bohr^3]
,     Maximum=    9.1838E-02  at reduced coord.    0.0000    0.0000    0.0000
,Next maximum=    7.8949E-02  at reduced coord.    0.0000    0.0417    0.0000
,     Minimum=    1.4114E-06  at reduced coord.    0.5000    0.5000    0.5000
,Next minimum=    2.6091E-06  at reduced coord.    0.5000    0.5000    0.4583
,  Integrated=    1.0000E+00

--------------------------------------------------------------------------------
 Components of total free energy (in Hartree) :

    Kinetic energy  =  3.39880583902551E-01
    Hartree energy  =  1.26904803474573E-01
    XC energy       = -2.14541073255949E-01
    Ewald energy    = -1.41864873974033E-01
    PspCore energy  =  4.19870298485538E-05
    Loc. psp. energy= -5.45194522963390E-01
    NL   psp  energy=  0.00000000000000E+00
    >>>>>>>>> Etotal= -4.34773095786399E-01

 Other information on the energy :
    Total energy(eV)= -1.18307776014442E+01 ; Band energy (Ha)=  -2.3095921580E-01
--------------------------------------------------------------------------------

 Cartesian components of stress tensor (hartree/bohr^3)
  sigma(1 1)=  3.01068777E-05  sigma(3 2)=  9.10006920E-14
  sigma(2 2)=  3.01068773E-05  sigma(3 1)=  1.06738534E-13
  sigma(3 3)=  3.01068773E-05  sigma(2 1)= -3.76625474E-13

-Cartesian components of stress tensor (GPa)         [Pressure= -8.8577E-01 GPa]
- sigma(1 1)=  8.85774774E-01  sigma(3 2)=  2.67733234E-09
- sigma(2 2)=  8.85774763E-01  sigma(3 1)=  3.14035558E-09
- sigma(3 3)=  8.85774763E-01  sigma(2 1)= -1.10807021E-08

================================================================================
== DATASET  6 ==================================================================
-   nproc =    1

 mkfilename : getwfk/=0, take file _WFK from output of DATASET   1.

 Exchange-correlation functional for the present dataset will be:
  LDA: new Teter (4/93) with spin-polarized option - ixc=1
 Citation for XC functional:
  S. Goedecker, M. Teter, J. Huetter, PRB 54, 1703 (1996)

 Real(R)+Recip(G) space primitive vectors, cartesian coordinates (Bohr,Bohr^-1):
 R(1)= 10.0000000  0.0000000  0.0000000  G(1)=  0.1000000  0.0000000  0.0000000
 R(2)=  0.0000000 10.0000000  0.0000000  G(2)=  0.0000000  0.1000000  0.0000000
 R(3)=  0.0000000  0.0000000 10.0000000  G(3)=  0.0000000  0.0000000  0.1000000
 Unit cell volume ucvol=  1.0000000E+03 bohr^3
 Angles (23,13,12)=  9.00000000E+01  9.00000000E+01  9.00000000E+01 degrees

 getcut: wavevector=  0.0000  0.0000  0.0000  ngfft=  24  24  24
         ecut(hartree)=      5.000   => boxcut(ratio)=   2.38430

 getcut : COMMENT -
  Note that boxcut > 2.2 ; recall that boxcut=Gcut(box)/Gcut(sphere) = 2
  is sufficient for exact treatment of convolution.
  Such a large boxcut is a waste : you could raise ecut
  e.g. ecut=    7.106115 Hartrees makes boxcut=2

--------------------------------------------------------------------------------

-inwffil : will read wavefunctions from disk file t87o_DS1_WFK
- newkpt: read input wf with ikpt,npw=   1     258, make ikpt,npw=   1     515

_setup2: Arith. and geom. avg. npw (full set) are     515.000     515.000

================================================================================

     iter   Etot(hartree)      deltaE(h)  residm     vres2
 ETOT  1 -0.43477309578640    -4.348E-01 2.967E-15 5.137E-31

 At SCF step    1   max residual=  2.97E-15 < tolwfr=  1.00E-14 =>converged.

 Cartesian components of stress tensor (hartree/bohr^3)
  sigma(1 1)=  3.01068777E-05  sigma(3 2)=  9.10007096E-14
  sigma(2 2)=  3.01068773E-05  sigma(3 1)=  1.06738536E-13
  sigma(3 3)=  3.01068773E-05  sigma(2 1)= -3.76625472E-13

================================================================================

 ----iterations are completed or convergence reached----

 Mean square residual over all n,k,spin=   2.9673E-15; max=  2.9673E-15
   0.0000  0.0000  0.0000    1  2.96731E-15 kpt; spin; max resid(k); each band:
  2.97E-15
 reduced coordinates (array xred) for    1 atoms
       0.000000000000      0.000000000000      0.000000000000
 rms dE/dt=  1.0057E-08; max dE/dt=  6.0545E-10; dE/dt below (all hartree)
    1      -0.000000008340     -0.000000015281      0.000000000605

 cartesian coordinates (angstrom) at end:
    1      0.00000000000000     0.00000000000000     0.00000000000000

 cartesian forces (hartree/bohr) at end:
    1      0.00000000000000     0.00000000000000     0.00000000000000
 frms,max,avg= 0.0000000E+00 0.0000000E+00   8.340E-10  1.528E-09 -6.054E-11 h/b

 cartesian forces (eV/Angstrom) at end:
    1      0.00000000000000     0.00000000000000     0.00000000000000
 frms,max,avg= 0.0000000E+00 0.0000000E+00   4.289E-08  7.858E-08 -3.113E-09 e/A
 length scales= 10.000000000000 10.000000000000 10.000000000000 bohr
              =  5.291772085900  5.291772085900  5.291772085900 angstroms
 prteigrs : about to open file t87o_DS6_EIG
 Fermi (or HOMO) energy (hartree) =  -0.23096   Average Vxc (hartree)=  -0.08046
 Eigenvalues (hartree) for nkpt=   1  k points:
 kpt#   1, nband=  1, wtk=  1.00000, kpt=  0.0000  0.0000  0.0000 (reduced coord)
  -0.23096
 Total charge density [el/Bohr^3]
,     Maximum=    9.1838E-02  at reduced coord.    0.0000    0.0000    0.0000
,Next maximum=    7.8949E-02  at reduced coord.    0.0000    0.0417    0.0000
,     Minimum=    1.4114E-06  at reduced coord.    0.5000    0.5000    0.5000
,Next minimum=    2.6091E-06  at reduced coord.    0.5000    0.5000    0.4583
,  Integrated=    1.0000E+00

--------------------------------------------------------------------------------
 Components of total free energy (in Hartree) :

    Kinetic energy  =  3.39880583902551E-01
    Hartree energy  =  1.26904803474573E-01
    XC energy       = -2.14541073255949E-01
    Ewald energy    = -1.41864873974033E-01
    PspCore energy  =  4.19870298485538E-05
    Loc. psp. energy= -5.45194522963390E-01
    NL   psp  energy=  0.00000000000000E+00
    >>>>>>>>> Etotal= -4.34773095786398E-01

 Other information on the energy :
    Total energy(eV)= -1.18307776014442E+01 ; Band energy (Ha)=  -2.3095921580E-01
--------------------------------------------------------------------------------

 Cartesian components of stress tensor (hartree/bohr^3)
  sigma(1 1)=  3.01068777E-05  sigma(3 2)=  9.10007096E-14
  sigma(2 2)=  3.01068773E-05  sigma(3 1)=  1.06738536E-13
  sigma(3 3)=  3.01068773E-05  sigma(2 1)= -3.76625472E-13

-Cartesian components of stress tensor (GPa)         [Pressure= -8.8577E-01 GPa]
- sigma(1 1)=  8.85774774E-01  sigma(3 2)=  2.67733286E-09
- sigma(2 2)=  8.85774763E-01  sigma(3 1)=  3.14035561E-09
- sigma(3 3)=  8.85774763E-01  sigma(2 1)= -1.10807021E-08

================================================================================
== DATASET  7 ==================================================================
-   nproc =    1

 mkfilename : getwfk/=0, take file _WFK from output of DATASET   1.

 Exchange-correlation functional for the present dataset will be:
  LDA: new Teter (4/93) with spin-polarized option - ixc=1
 Citation for XC functional:
  S. Goedecker, M. Teter, J. Huetter, PRB 54, 1703 (1996)

 Real(R)+Recip(G) space primitive vectors, cartesian coordinates (Bohr,Bohr^-1):
 R(1)= 10.0000000  0.0000000  0.0000000  G(1)=  0.1000000  0.0000000  0.0000000
 R(2)=  0.0000000 10.0000000  0.0000000  G(2)=  0.0000000  0.1000000  0.0000000
 R(3)=  0.0000000  0.0000000 10.0000000  G(3)=  0.0000000  0.0000000  0.1000000
 Unit cell volume ucvol=  1.0000000E+03 bohr^3
 Angles (23,13,12)=  9.00000000E+01  9.00000000E+01  9.00000000E+01 degrees

 getcut: wavevector=  0.0000  0.0000  0.0000  ngfft=  24  24  24
         ecut(hartree)=      5.000   => boxcut(ratio)=   2.38430

 getcut : COMMENT -
  Note that boxcut > 2.2 ; recall that boxcut=Gcut(box)/Gcut(sphere) = 2
  is sufficient for exact treatment of convolution.
  Such a large boxcut is a waste : you could raise ecut
  e.g. ecut=    7.106115 Hartrees makes boxcut=2

--------------------------------------------------------------------------------

-inwffil : will read wavefunctions from disk file t87o_DS1_WFK
- newkpt: read input wf with ikpt,npw=   1     258, make ikpt,npw=   1     515

_setup2: Arith. and geom. avg. npw (full set) are     515.000     515.000

================================================================================

     iter   Etot(hartree)      deltaE(h)  residm     vres2
 ETOT  1 -0.43477309578640    -4.348E-01 2.967E-15 5.470E-31

 At SCF step    1   max residual=  2.97E-15 < tolwfr=  1.00E-14 =>converged.

 Cartesian components of stress tensor (hartree/bohr^3)
  sigma(1 1)=  3.01068777E-05  sigma(3 2)=  9.10007083E-14
  sigma(2 2)=  3.01068773E-05  sigma(3 1)=  1.06738531E-13
  sigma(3 3)=  3.01068773E-05  sigma(2 1)= -3.76625469E-13

================================================================================

 ----iterations are completed or convergence reached----

 Mean square residual over all n,k,spin=   2.9673E-15; max=  2.9673E-15
   0.0000  0.0000  0.0000    1  2.96731E-15 kpt; spin; max resid(k); each band:
  2.97E-15
 reduced coordinates (array xred) for    1 atoms
       0.000000000000      0.000000000000      0.000000000000
 rms dE/dt=  1.0057E-08; max dE/dt=  6.0544E-10; dE/dt below (all hartree)
    1      -0.000000008340     -0.000000015281      0.000000000605

 cartesian coordinates (angstrom) at end:
    1      0.00000000000000     0.00000000000000     0.00000000000000

 cartesian forces (hartree/bohr) at end:
    1      0.00000000000000     0.00000000000000     0.00000000000000
 frms,max,avg= 0.0000000E+00 0.0000000E+00   8.340E-10  1.528E-09 -6.054E-11 h/b

 cartesian forces (eV/Angstrom) at end:
    1      0.00000000000000     0.00000000000000     0.00000000000000
 frms,max,avg= 0.0000000E+00 0.0000000E+00   4.289E-08  7.858E-08 -3.113E-09 e/A
 length scales= 10.000000000000 10.000000000000 10.000000000000 bohr
              =  5.291772085900  5.291772085900  5.291772085900 angstroms
 prteigrs : about to open file t87o_DS7_EIG
 Fermi (or HOMO) energy (hartree) =  -0.23096   Average Vxc (hartree)=  -0.08046
 Eigenvalues (hartree) for nkpt=   1  k points:
 kpt#   1, nband=  1, wtk=  1.00000, kpt=  0.0000  0.0000  0.0000 (reduced coord)
  -0.23096
 Total charge density [el/Bohr^3]
,     Maximum=    9.1838E-02  at reduced coord.    0.0000    0.0000    0.0000
,Next maximum=    7.8949E-02  at reduced coord.    0.0000    0.0417    0.0000
,     Minimum=    1.4114E-06  at reduced coord.    0.5000    0.5000    0.5000
,Next minimum=    2.6091E-06  at reduced coord.    0.5000    0.5000    0.4583
,  Integrated=    1.0000E+00

--------------------------------------------------------------------------------
 Components of total free energy (in Hartree) :

    Kinetic energy  =  3.39880583902551E-01
    Hartree energy  =  1.26904803474573E-01
    XC energy       = -2.14541073255949E-01
    Ewald energy    = -1.41864873974033E-01
    PspCore energy  =  4.19870298485538E-05
    Loc. psp. energy= -5.45194522963390E-01
    NL   psp  energy=  0.00000000000000E+00
    >>>>>>>>> Etotal= -4.34773095786398E-01

 Other information on the energy :
    Total energy(eV)= -1.18307776014442E+01 ; Band energy (Ha)=  -2.3095921580E-01
--------------------------------------------------------------------------------

 Cartesian components of stress tensor (hartree/bohr^3)
  sigma(1 1)=  3.01068777E-05  sigma(3 2)=  9.10007083E-14
  sigma(2 2)=  3.01068773E-05  sigma(3 1)=  1.06738531E-13
  sigma(3 3)=  3.01068773E-05  sigma(2 1)= -3.76625469E-13

-Cartesian components of stress tensor (GPa)         [Pressure= -8.8577E-01 GPa]
- sigma(1 1)=  8.85774774E-01  sigma(3 2)=  2.67733282E-09
- sigma(2 2)=  8.85774763E-01  sigma(3 1)=  3.14035548E-09
- sigma(3 3)=  8.85774763E-01  sigma(2 1)= -1.10807020E-08

================================================================================
== DATASET  8 ==================================================================
-   nproc =    1

 mkfilename : getwfk/=0, take file _WFK from output of DATASET   1.

 Exchange-correlation functional for the present dataset will be:
  LDA: new Teter (4/93) with spin-polarized option - ixc=1
 Citation for XC functional:
  S. Goedecker, M. Teter, J. Huetter, PRB 54, 1703 (1996)

 Real(R)+Recip(G) space primitive vectors, cartesian coordinates (Bohr,Bohr^-1):
 R(1)= 10.0000000  0.0000000  0.0000000  G(1)=  0.1000000  0.0000000  0.0000000
 R(2)=  0.0000000 10.0000000  0.0000000  G(2)=  0.0000000  0.1000000  0.0000000
 R(3)=  0.0000000  0.0000000 10.0000000  G(3)=  0.0000000  0.0000000  0.1000000
 Unit cell volume ucvol=  1.0000000E+03 bohr^3
 Angles (23,13,12)=  9.00000000E+01  9.00000000E+01  9.00000000E+01 degrees

 getcut: wavevector=  0.0000  0.0000  0.0000  ngfft=  24  24  24
         ecut(hartree)=      5.000   => boxcut(ratio)=   2.38430

 getcut : COMMENT -
  Note that boxcut > 2.2 ; recall that boxcut=Gcut(box)/Gcut(sphere) = 2
  is sufficient for exact treatment of convolution.
  Such a large boxcut is a waste : you could raise ecut
  e.g. ecut=    7.106115 Hartrees makes boxcut=2

--------------------------------------------------------------------------------

-inwffil : will read wavefunctions from disk file t87o_DS1_WFK
P newkpt: treating      1 bands with npw=     258 for ikpt=   1 by node    0

_setup2: Arith. and geom. avg. npw (full set) are     515.000     515.000

================================================================================

 Cartesian components of stress tensor (hartree/bohr^3)
  sigma(1 1)=  3.01068777E-05  sigma(3 2)=  9.10006992E-14
  sigma(2 2)=  3.01068773E-05  sigma(3 1)=  1.06738529E-13
  sigma(3 3)=  3.01068773E-05  sigma(2 1)= -3.76625478E-13

================================================================================

 ----iterations are completed or convergence reached----

 Mean square residual over all n,k,spin=   2.9673E-15; max=  2.9673E-15
   0.0000  0.0000  0.0000    1  2.96731E-15 kpt; spin; max resid(k); each band:
  2.97E-15
 reduced coordinates (array xred) for    1 atoms
       0.000000000000      0.000000000000      0.000000000000

 cartesian coordinates (angstrom) at end:
    1      0.00000000000000     0.00000000000000     0.00000000000000
 length scales= 10.000000000000 10.000000000000 10.000000000000 bohr
              =  5.291772085900  5.291772085900  5.291772085900 angstroms
 prteigrs : about to open file t87o_DS8_EIG
 Eigenvalues (hartree) for nkpt=   1  k points:
 kpt#   1, nband=  1, wtk=  1.00000, kpt=  0.0000  0.0000  0.0000 (reduced coord)
  -0.23096
 Total charge density [el/Bohr^3]
,     Maximum=    9.1838E-02  at reduced coord.    0.0000    0.0000    0.0000
,Next maximum=    7.8949E-02  at reduced coord.    0.0000    0.0417    0.0000
,     Minimum=    1.4114E-06  at reduced coord.    0.5000    0.5000    0.5000
,Next minimum=    2.6091E-06  at reduced coord.    0.5000    0.5000    0.4583
,  Integrated=    1.0000E+00

--------------------------------------------------------------------------------
 Components of total free energy (in Hartree) :

    Kinetic energy  =  3.39880583902551E-01
    Hartree energy  =  1.26904803474573E-01
    XC energy       = -2.14541073255949E-01
    Ewald energy    = -1.41864873974033E-01
    PspCore energy  =  4.19870298485538E-05
    Loc. psp. energy= -5.45194522963390E-01
    NL   psp  energy=  0.00000000000000E+00
    >>>>>>>>> Etotal= -4.34773095786399E-01

 Other information on the energy :
    Total energy(eV)= -1.18307776014442E+01 ; Band energy (Ha)=  -2.3095922722E-01
--------------------------------------------------------------------------------

================================================================================
== DATASET  9 ==================================================================
-   nproc =    1

 mkfilename : getwfk/=0, take file _WFK from output of DATASET   1.

 Exchange-correlation functional for the present dataset will be:
  LDA: new Teter (4/93) with spin-polarized option - ixc=1
 Citation for XC functional:
  S. Goedecker, M. Teter, J. Huetter, PRB 54, 1703 (1996)

 Real(R)+Recip(G) space primitive vectors, cartesian coordinates (Bohr,Bohr^-1):
 R(1)= 10.0000000  0.0000000  0.0000000  G(1)=  0.1000000  0.0000000  0.0000000
 R(2)=  0.0000000 10.0000000  0.0000000  G(2)=  0.0000000  0.1000000  0.0000000
 R(3)=  0.0000000  0.0000000 10.0000000  G(3)=  0.0000000  0.0000000  0.1000000
 Unit cell volume ucvol=  1.0000000E+03 bohr^3
 Angles (23,13,12)=  9.00000000E+01  9.00000000E+01  9.00000000E+01 degrees

 getcut: wavevector=  0.0000  0.0000  0.0000  ngfft=  24  24  24
         ecut(hartree)=      5.000   => boxcut(ratio)=   2.38430

 getcut : COMMENT -
  Note that boxcut > 2.2 ; recall that boxcut=Gcut(box)/Gcut(sphere) = 2
  is sufficient for exact treatment of convolution.
  Such a large boxcut is a waste : you could raise ecut
  e.g. ecut=    7.106115 Hartrees makes boxcut=2

--------------------------------------------------------------------------------

-inwffil : will read wavefunctions from disk file t87o_DS1_WFK
- newkpt: read input wf with ikpt,npw=   1     258, make ikpt,npw=   1     515

_setup2: Arith. and geom. avg. npw (full set) are     515.000     515.000

================================================================================

 Cartesian components of stress tensor (hartree/bohr^3)
  sigma(1 1)=  3.01068777E-05  sigma(3 2)=  9.10007132E-14
  sigma(2 2)=  3.01068773E-05  sigma(3 1)=  1.06738528E-13
  sigma(3 3)=  3.01068773E-05  sigma(2 1)= -3.76625476E-13

================================================================================

 ----iterations are completed or convergence reached----

 Mean square residual over all n,k,spin=   2.9673E-15; max=  2.9673E-15
   0.0000  0.0000  0.0000    1  2.96731E-15 kpt; spin; max resid(k); each band:
  2.97E-15
 reduced coordinates (array xred) for    1 atoms
       0.000000000000      0.000000000000      0.000000000000

 cartesian coordinates (angstrom) at end:
    1      0.00000000000000     0.00000000000000     0.00000000000000
 length scales= 10.000000000000 10.000000000000 10.000000000000 bohr
              =  5.291772085900  5.291772085900  5.291772085900 angstroms
 prteigrs : about to open file t87o_DS9_EIG
 Eigenvalues (hartree) for nkpt=   1  k points:
 kpt#   1, nband=  1, wtk=  1.00000, kpt=  0.0000  0.0000  0.0000 (reduced coord)
  -0.23096
 Total charge density [el/Bohr^3]
,     Maximum=    9.1838E-02  at reduced coord.    0.0000    0.0000    0.0000
,Next maximum=    7.8949E-02  at reduced coord.    0.0000    0.0417    0.0000
,     Minimum=    1.4114E-06  at reduced coord.    0.5000    0.5000    0.5000
,Next minimum=    2.6091E-06  at reduced coord.    0.5000    0.5000    0.4583
,  Integrated=    1.0000E+00

--------------------------------------------------------------------------------
 Components of total free energy (in Hartree) :

    Kinetic energy  =  3.39880583902551E-01
    Hartree energy  =  1.26904803474573E-01
    XC energy       = -2.14541073255949E-01
    Ewald energy    = -1.41864873974033E-01
    PspCore energy  =  4.19870298485538E-05
    Loc. psp. energy= -5.45194522963390E-01
    NL   psp  energy=  0.00000000000000E+00
    >>>>>>>>> Etotal= -4.34773095786398E-01

 Other information on the energy :
    Total energy(eV)= -1.18307776014442E+01 ; Band energy (Ha)=  -2.3095922722E-01
--------------------------------------------------------------------------------

================================================================================
== DATASET 10 ==================================================================
-   nproc =    1

 mkfilename : getwfk/=0, take file _WFK from output of DATASET   1.

 Exchange-correlation functional for the present dataset will be:
  LDA: new Teter (4/93) with spin-polarized option - ixc=1
 Citation for XC functional:
  S. Goedecker, M. Teter, J. Huetter, PRB 54, 1703 (1996)

 Real(R)+Recip(G) space primitive vectors, cartesian coordinates (Bohr,Bohr^-1):
 R(1)= 10.0000000  0.0000000  0.0000000  G(1)=  0.1000000  0.0000000  0.0000000
 R(2)=  0.0000000 10.0000000  0.0000000  G(2)=  0.0000000  0.1000000  0.0000000
 R(3)=  0.0000000  0.0000000 10.0000000  G(3)=  0.0000000  0.0000000  0.1000000
 Unit cell volume ucvol=  1.0000000E+03 bohr^3
 Angles (23,13,12)=  9.00000000E+01  9.00000000E+01  9.00000000E+01 degrees

 getcut: wavevector=  0.0000  0.0000  0.0000  ngfft=  24  24  24
         ecut(hartree)=      5.000   => boxcut(ratio)=   2.38430

 getcut : COMMENT -
  Note that boxcut > 2.2 ; recall that boxcut=Gcut(box)/Gcut(sphere) = 2
  is sufficient for exact treatment of convolution.
  Such a large boxcut is a waste : you could raise ecut
  e.g. ecut=    7.106115 Hartrees makes boxcut=2

--------------------------------------------------------------------------------

-inwffil : will read wavefunctions from disk file t87o_DS1_WFK
- newkpt: read input wf with ikpt,npw=   1     258, make ikpt,npw=   1     515

_setup2: Arith. and geom. avg. npw (full set) are     515.000     515.000

================================================================================

     iter   Etot(hartree)      deltaE(h)  residm     vres2
 ETOT  1 -0.43477309578640    -4.348E-01 2.967E-15 7.156E-31

 At SCF step    1   max residual=  2.97E-15 < tolwfr=  1.00E-14 =>converged.

 Cartesian components of stress tensor (hartree/bohr^3)
  sigma(1 1)=  3.01068777E-05  sigma(3 2)=  9.10007041E-14
  sigma(2 2)=  3.01068773E-05  sigma(3 1)=  1.06738526E-13
  sigma(3 3)=  3.01068773E-05  sigma(2 1)= -3.76625468E-13

================================================================================

 ----iterations are completed or convergence reached----

 Mean square residual over all n,k,spin=   2.9673E-15; max=  2.9673E-15
   0.0000  0.0000  0.0000    1  2.96731E-15 kpt; spin; max resid(k); each band:
  2.97E-15
 reduced coordinates (array xred) for    1 atoms
       0.000000000000      0.000000000000      0.000000000000
 rms dE/dt=  1.0057E-08; max dE/dt=  6.0545E-10; dE/dt below (all hartree)
    1      -0.000000008340     -0.000000015281      0.000000000605

 cartesian coordinates (angstrom) at end:
    1      0.00000000000000     0.00000000000000     0.00000000000000

 cartesian forces (hartree/bohr) at end:
    1      0.00000000000000     0.00000000000000     0.00000000000000
 frms,max,avg= 0.0000000E+00 0.0000000E+00   8.340E-10  1.528E-09 -6.054E-11 h/b

 cartesian forces (eV/Angstrom) at end:
    1      0.00000000000000     0.00000000000000     0.00000000000000
 frms,max,avg= 0.0000000E+00 0.0000000E+00   4.289E-08  7.858E-08 -3.113E-09 e/A
 length scales= 10.000000000000 10.000000000000 10.000000000000 bohr
              =  5.291772085900  5.291772085900  5.291772085900 angstroms
 prteigrs : about to open file t87o_DS10_EIG
 Fermi (or HOMO) energy (hartree) =  -0.23096   Average Vxc (hartree)=  -0.08046
 Eigenvalues (hartree) for nkpt=   1  k points:
 kpt#   1, nband=  1, wtk=  1.00000, kpt=  0.0000  0.0000  0.0000 (reduced coord)
  -0.23096
 Total charge density [el/Bohr^3]
,     Maximum=    9.1838E-02  at reduced coord.    0.0000    0.0000    0.0000
,Next maximum=    7.8949E-02  at reduced coord.    0.0000    0.0417    0.0000
,     Minimum=    1.4114E-06  at reduced coord.    0.5000    0.5000    0.5000
,Next minimum=    2.6091E-06  at reduced coord.    0.5000    0.5000    0.4583
,  Integrated=    1.0000E+00

--------------------------------------------------------------------------------
 Components of total free energy (in Hartree) :

    Kinetic energy  =  3.39880583902551E-01
    Hartree energy  =  1.26904803474573E-01
    XC energy       = -2.14541073255949E-01
    Ewald energy    = -1.41864873974033E-01
    PspCore energy  =  4.19870298485538E-05
    Loc. psp. energy= -5.45194522963390E-01
    NL   psp  energy=  0.00000000000000E+00
    >>>>>>>>> Etotal= -4.34773095786398E-01

 Other information on the energy :
    Total energy(eV)= -1.18307776014442E+01 ; Band energy (Ha)=  -2.3095921580E-01
--------------------------------------------------------------------------------

 Cartesian components of stress tensor (hartree/bohr^3)
  sigma(1 1)=  3.01068777E-05  sigma(3 2)=  9.10007041E-14
  sigma(2 2)=  3.01068773E-05  sigma(3 1)=  1.06738526E-13
  sigma(3 3)=  3.01068773E-05  sigma(2 1)= -3.76625468E-13

-Cartesian components of stress tensor (GPa)         [Pressure= -8.8577E-01 GPa]
- sigma(1 1)=  8.85774774E-01  sigma(3 2)=  2.67733270E-09
- sigma(2 2)=  8.85774763E-01  sigma(3 1)=  3.14035534E-09
- sigma(3 3)=  8.85774763E-01  sigma(2 1)= -1.10807020E-08

================================================================================
== DATASET 11 ==================================================================
-   nproc =    1

 mkfilename : getwfk/=0, take file _WFK from output of DATASET   1.

 Exchange-correlation functional for the present dataset will be:
  LDA: new Teter (4/93) with spin-polarized option - ixc=1
 Citation for XC functional:
  S. Goedecker, M. Teter, J. Huetter, PRB 54, 1703 (1996)

 Real(R)+Recip(G) space primitive vectors, cartesian coordinates (Bohr,Bohr^-1):
 R(1)= 10.0000000  0.0000000  0.0000000  G(1)=  0.1000000  0.0000000  0.0000000
 R(2)=  0.0000000 10.0000000  0.0000000  G(2)=  0.0000000  0.1000000  0.0000000
 R(3)=  0.0000000  0.0000000 10.0000000  G(3)=  0.0000000  0.0000000  0.1000000
 Unit cell volume ucvol=  1.0000000E+03 bohr^3
 Angles (23,13,12)=  9.00000000E+01  9.00000000E+01  9.00000000E+01 degrees

[...]
  -0.23096
 Total charge density [el/Bohr^3]
,     Maximum=    9.1838E-02  at reduced coord.    0.0000    0.0000    0.0000
,Next maximum=    7.8949E-02  at reduced coord.    0.0000    0.0417    0.0000
,     Minimum=    1.4114E-06  at reduced coord.    0.5000    0.5000    0.5000
,Next minimum=    2.6091E-06  at reduced coord.    0.5000    0.5000    0.4583
,  Integrated=    1.0000E+00

--------------------------------------------------------------------------------
 Components of total free energy (in Hartree) :

    Kinetic energy  =  3.39880583902551E-01
    Hartree energy  =  1.26904803474573E-01
    XC energy       = -2.14541073255949E-01
    Ewald energy    = -1.41864873974033E-01
    PspCore energy  =  4.19870298485538E-05
    Loc. psp. energy= -5.45194522963390E-01
    NL   psp  energy=  0.00000000000000E+00
    >>>>>>>>> Etotal= -4.34773095786398E-01

 Other information on the energy :
    Total energy(eV)= -1.18307776014442E+01 ; Band energy (Ha)=  -2.3095921580E-01
--------------------------------------------------------------------------------

 Cartesian components of stress tensor (hartree/bohr^3)
  sigma(1 1)=  3.01068777E-05  sigma(3 2)=  9.10007076E-14
  sigma(2 2)=  3.01068773E-05  sigma(3 1)=  1.06738526E-13
  sigma(3 3)=  3.01068773E-05  sigma(2 1)= -3.76625469E-13

-Cartesian components of stress tensor (GPa)         [Pressure= -8.8577E-01 GPa]
- sigma(1 1)=  8.85774774E-01  sigma(3 2)=  2.67733280E-09
- sigma(2 2)=  8.85774763E-01  sigma(3 1)=  3.14035534E-09
- sigma(3 3)=  8.85774763E-01  sigma(2 1)= -1.10807020E-08

================================================================================
== DATASET 21 ==================================================================
-   nproc =    1

 mkfilename : getwfk/=0, take file _WFK from output of DATASET   1.

 Exchange-correlation functional for the present dataset will be:
  LDA: new Teter (4/93) with spin-polarized option - ixc=1
 Citation for XC functional:
  S. Goedecker, M. Teter, J. Huetter, PRB 54, 1703 (1996)

 Real(R)+Recip(G) space primitive vectors, cartesian coordinates (Bohr,Bohr^-1):
 R(1)= 10.0000000  0.0000000  0.0000000  G(1)=  0.1000000  0.0000000  0.0000000
 R(2)=  0.0000000 10.0000000  0.0000000  G(2)=  0.0000000  0.1000000  0.0000000
 R(3)=  0.0000000  0.0000000 10.0000000  G(3)=  0.0000000  0.0000000  0.1000000
 Unit cell volume ucvol=  1.0000000E+03 bohr^3
 Angles (23,13,12)=  9.00000000E+01  9.00000000E+01  9.00000000E+01 degrees

 getcut: wavevector=  0.0000  0.0000  0.0000  ngfft=  24  24  24
         ecut(hartree)=      5.000   => boxcut(ratio)=   2.38430

 getcut : COMMENT -
  Note that boxcut > 2.2 ; recall that boxcut=Gcut(box)/Gcut(sphere) = 2
  is sufficient for exact treatment of convolution.
  Such a large boxcut is a waste : you could raise ecut
  e.g. ecut=    7.106115 Hartrees makes boxcut=2

--------------------------------------------------------------------------------

-inwffil : will read wavefunctions from disk file t87o_DS1_WFK
- newkpt: read input wf with ikpt,npw=   1     258, make ikpt,npw=   1     515

_setup2: Arith. and geom. avg. npw (full set) are     515.000     515.000

================================================================================

     iter   Etot(hartree)      deltaE(h)  residm     vres2
 ETOT  1 -0.43477309578640    -4.348E-01 2.967E-15 9.414E-31

 At SCF step    1   max residual=  2.97E-15 < tolwfr=  1.00E-14 =>converged.

 Cartesian components of stress tensor (hartree/bohr^3)
  sigma(1 1)=  3.01068777E-05  sigma(3 2)=  9.10007076E-14
  sigma(2 2)=  3.01068773E-05  sigma(3 1)=  1.06738526E-13
  sigma(3 3)=  3.01068773E-05  sigma(2 1)= -3.76625469E-13

================================================================================

 ----iterations are completed or convergence reached----

 Mean square residual over all n,k,spin=   2.9673E-15; max=  2.9673E-15
   0.0000  0.0000  0.0000    1  2.96731E-15 kpt; spin; max resid(k); each band:
  2.97E-15
 reduced coordinates (array xred) for    1 atoms
       0.000000000000      0.000000000000      0.000000000000
 rms dE/dt=  1.0057E-08; max dE/dt=  6.0545E-10; dE/dt below (all hartree)
    1      -0.000000008340     -0.000000015281      0.000000000605

 cartesian coordinates (angstrom) at end:
    1      0.00000000000000     0.00000000000000     0.00000000000000

 cartesian forces (hartree/bohr) at end:
    1      0.00000000000000     0.00000000000000     0.00000000000000
 frms,max,avg= 0.0000000E+00 0.0000000E+00   8.340E-10  1.528E-09 -6.054E-11 h/b

 cartesian forces (eV/Angstrom) at end:
    1      0.00000000000000     0.00000000000000     0.00000000000000
 frms,max,avg= 0.0000000E+00 0.0000000E+00   4.289E-08  7.858E-08 -3.113E-09 e/A
 length scales= 10.000000000000 10.000000000000 10.000000000000 bohr
              =  5.291772085900  5.291772085900  5.291772085900 angstroms
 prteigrs : about to open file t87o_DS21_EIG
 Fermi (or HOMO) energy (hartree) =  -0.23096   Average Vxc (hartree)=  -0.08046
 Eigenvalues (hartree) for nkpt=   1  k points:
 kpt#   1, nband=  1, wtk=  1.00000, kpt=  0.0000  0.0000  0.0000 (reduced coord)
  -0.23096
 Total charge density [el/Bohr^3]
,     Maximum=    9.1838E-02  at reduced coord.    0.0000    0.0000    0.0000
,Next maximum=    7.8949E-02  at reduced coord.    0.0000    0.0417    0.0000
,     Minimum=    1.4114E-06  at reduced coord.    0.5000    0.5000    0.5000
,Next minimum=    2.6091E-06  at reduced coord.    0.5000    0.5000    0.4583
,  Integrated=    1.0000E+00

--------------------------------------------------------------------------------
 Components of total free energy (in Hartree) :

    Kinetic energy  =  3.39880583902551E-01
    Hartree energy  =  1.26904803474573E-01
    XC energy       = -2.14541073255949E-01
    Ewald energy    = -1.41864873974033E-01
    PspCore energy  =  4.19870298485538E-05
    Loc. psp. energy= -5.45194522963390E-01
    NL   psp  energy=  0.00000000000000E+00
    >>>>>>>>> Etotal= -4.34773095786398E-01

 Other information on the energy :
    Total energy(eV)= -1.18307776014442E+01 ; Band energy (Ha)=  -2.3095921580E-01
--------------------------------------------------------------------------------

 Cartesian components of stress tensor (hartree/bohr^3)
  sigma(1 1)=  3.01068777E-05  sigma(3 2)=  9.10007076E-14
  sigma(2 2)=  3.01068773E-05  sigma(3 1)=  1.06738526E-13
  sigma(3 3)=  3.01068773E-05  sigma(2 1)= -3.76625469E-13

-Cartesian components of stress tensor (GPa)         [Pressure= -8.8577E-01 GPa]
- sigma(1 1)=  8.85774774E-01  sigma(3 2)=  2.67733280E-09
- sigma(2 2)=  8.85774763E-01  sigma(3 1)=  3.14035534E-09
- sigma(3 3)=  8.85774763E-01  sigma(2 1)= -1.10807020E-08

== END DATASET(S) ==============================================================
================================================================================
  
 -outvars: echo values of variables after computation  --------
            acell      1.0000000000E+01  1.0000000000E+01  1.0000000000E+01 Bohr
              amu      1.00794000E+00
           diemac      1.00000000E+00
             ecut      5.00000000E+00 Hartree
           etotal1    -4.3477309579E-01
           etotal2    -4.3477309579E-01
           etotal3    -4.3477309579E-01
           etotal4    -4.3477309579E-01
           etotal5    -4.3477309579E-01
           etotal6    -4.3477309579E-01
           etotal7    -4.3477309579E-01
           etotal8    -4.3477309579E-01
           etotal9    -4.3477309579E-01
           etotal10   -4.3477309579E-01
           etotal11   -4.3477309579E-01
           etotal12   -4.3477309579E-01
           etotal13   -4.3477309579E-01
           etotal14   -4.3477309579E-01
           etotal15   -4.3477309579E-01
           etotal16   -4.3477309579E-01
           etotal17   -4.3477309579E-01
           etotal18   -4.3477309579E-01
           etotal19   -4.3477309579E-01
           etotal20   -4.3477309579E-01
           etotal21   -4.3477309579E-01
            fcart1     0.0000000000E+00  0.0000000000E+00  0.0000000000E+00
            fcart2     0.0000000000E+00  0.0000000000E+00  0.0000000000E+00
            fcart3     0.0000000000E+00  0.0000000000E+00  0.0000000000E+00
            fcart4     0.0000000000E+00  0.0000000000E+00  0.0000000000E+00
            fcart5     0.0000000000E+00  0.0000000000E+00  0.0000000000E+00
            fcart6     0.0000000000E+00  0.0000000000E+00  0.0000000000E+00
            fcart7     0.0000000000E+00  0.0000000000E+00  0.0000000000E+00
            fcart8     0.0000000000E+00  0.0000000000E+00  0.0000000000E+00
            fcart9     0.0000000000E+00  0.0000000000E+00  0.0000000000E+00
            fcart10    0.0000000000E+00  0.0000000000E+00  0.0000000000E+00
            fcart11    0.0000000000E+00  0.0000000000E+00  0.0000000000E+00
            fcart12    0.0000000000E+00  0.0000000000E+00  0.0000000000E+00
            fcart13    0.0000000000E+00  0.0000000000E+00  0.0000000000E+00
            fcart14    0.0000000000E+00  0.0000000000E+00  0.0000000000E+00
            fcart15    0.0000000000E+00  0.0000000000E+00  0.0000000000E+00
            fcart16    0.0000000000E+00  0.0000000000E+00  0.0000000000E+00
            fcart17    0.0000000000E+00  0.0000000000E+00  0.0000000000E+00
            fcart18    0.0000000000E+00  0.0000000000E+00  0.0000000000E+00
            fcart19    0.0000000000E+00  0.0000000000E+00  0.0000000000E+00
            fcart20    0.0000000000E+00  0.0000000000E+00  0.0000000000E+00
            fcart21    0.0000000000E+00  0.0000000000E+00  0.0000000000E+00
-          fftalg1        112
-          fftalg2        112
-          fftalg3        111
-          fftalg4        111
-          fftalg5        110
-          fftalg6        110
-          fftalg7        100
-          fftalg8        112
-          fftalg9        112
-          fftalg10       400
-          fftalg11       401
-          fftalg12       402
-          fftalg13       410
-          fftalg14       411
-          fftalg15       412
-          fftalg16       400
-          fftalg17       401
-          fftalg18       402
-          fftalg19       410
-          fftalg20       411
-          fftalg21       412
           getwfk1          0
           getwfk2          1
           getwfk3          1
           getwfk4          1
           getwfk5          1
           getwfk6          1
           getwfk7          1
           getwfk8          1
           getwfk9          1
           getwfk10         1
           getwfk11         1
           getwfk12         1
           getwfk13         1
           getwfk14         1
           getwfk15         1
           getwfk16         1
           getwfk17         1
           getwfk18         1
           getwfk19         1
           getwfk20         1
           getwfk21         1
            intxc           1
             iscf           5
           istwfk1       2
           istwfk2       1
           istwfk3       1
           istwfk4       2
           istwfk5       2
           istwfk6       1
           istwfk7       1
           istwfk8       2
           istwfk9       1
           istwfk10      1
           istwfk11      1
           istwfk12      1
           istwfk13      2
           istwfk14      2
           istwfk15      2
           istwfk16      2
           istwfk17      2
           istwfk18      2
           istwfk19      1
           istwfk20      1
           istwfk21      1
           jdtset        1    2    3    4    5    6    7    8    9   10
                        11   12   13   14   15   16   17   18   19   20
                        21
           kptopt           0
P           mkmem           1
            natom           1
            nband           1
           ndtset          21
            ngfft          24      24      24
             nkpt           1
            nline           3
            nstep1         20
            nstep2         20
            nstep3         20
            nstep4         20
            nstep5         20
            nstep6         20
            nstep7         20
            nstep8          0
            nstep9          0
            nstep10        20
            nstep11        20
            nstep12        20
            nstep13        20
            nstep14        20
            nstep15        20
            nstep16        20
            nstep17        20
            nstep18        20
            nstep19        20
            nstep20        20
            nstep21        20
             nsym           1
           ntypat           1
              occ      1.000000
          spgroup           1
           strten1     3.0106877687E-05  3.0106877339E-05  3.0106877328E-05
                       9.1000699164E-14  1.0673852917E-13 -3.7662547779E-13
           strten2     3.0106877687E-05  3.0106877339E-05  3.0106877328E-05
                       9.1000713184E-14  1.0673852831E-13 -3.7662547570E-13
           strten3     3.0106877687E-05  3.0106877339E-05  3.0106877328E-05
                       9.1000709615E-14  1.0673853565E-13 -3.7662547244E-13
           strten4     3.0106877687E-05  3.0106877339E-05  3.0106877328E-05
                       9.1000692009E-14  1.0673853445E-13 -3.7662547411E-13
           strten5     3.0106877687E-05  3.0106877339E-05  3.0106877328E-05
                       9.1000692009E-14  1.0673853445E-13 -3.7662547411E-13
           strten6     3.0106877687E-05  3.0106877339E-05  3.0106877328E-05
                       9.1000709615E-14  1.0673853565E-13 -3.7662547244E-13
           strten7     3.0106877687E-05  3.0106877339E-05  3.0106877328E-05
                       9.1000708285E-14  1.0673853105E-13 -3.7662546915E-13
           strten8     3.0106877687E-05  3.0106877339E-05  3.0106877328E-05
                       9.1000699164E-14  1.0673852917E-13 -3.7662547779E-13
           strten9     3.0106877687E-05  3.0106877339E-05  3.0106877328E-05
                       9.1000713184E-14  1.0673852831E-13 -3.7662547570E-13
           strten10    3.0106877687E-05  3.0106877339E-05  3.0106877328E-05
                       9.1000704112E-14  1.0673852633E-13 -3.7662546839E-13
           strten11    3.0106877687E-05  3.0106877339E-05  3.0106877328E-05
                       9.1000704112E-14  1.0673852633E-13 -3.7662546839E-13
           strten12    3.0106877687E-05  3.0106877339E-05  3.0106877328E-05
                       9.1000704112E-14  1.0673852633E-13 -3.7662546839E-13
           strten13    3.0106877687E-05  3.0106877339E-05  3.0106877328E-05
                       9.1000689958E-14  1.0673852513E-13 -3.7662547033E-13
           strten14    3.0106877687E-05  3.0106877339E-05  3.0106877328E-05
                       9.1000693562E-14  1.0673853219E-13 -3.7662547027E-13
           strten15    3.0106877687E-05  3.0106877339E-05  3.0106877328E-05
                       9.1000693562E-14  1.0673853219E-13 -3.7662547027E-13
           strten16    3.0106877687E-05  3.0106877339E-05  3.0106877328E-05
                       9.1000686506E-14  1.0673852513E-13 -3.7662547006E-13
           strten17    3.0106877687E-05  3.0106877339E-05  3.0106877328E-05
                       9.1000690632E-14  1.0673852845E-13 -3.7662547466E-13
           strten18    3.0106877687E-05  3.0106877339E-05  3.0106877328E-05
                       9.1000690632E-14  1.0673852845E-13 -3.7662547466E-13
           strten19    3.0106877687E-05  3.0106877339E-05  3.0106877328E-05
                       9.1000707564E-14  1.0673852633E-13 -3.7662546866E-13
           strten20    3.0106877687E-05  3.0106877339E-05  3.0106877328E-05
                       9.1000707564E-14  1.0673852633E-13 -3.7662546866E-13
           strten21    3.0106877687E-05  3.0106877339E-05  3.0106877328E-05
                       9.1000707564E-14  1.0673852633E-13 -3.7662546866E-13
           tolwfr      1.00000000E-14
            typat      1
            znucl        1.00000

================================================================================


- Timing analysis has been suppressed with timopt=0



================================================================================

 Suggested references for the acknowledgment of ABINIT usage.

 The users of ABINIT have little formal obligations with respect to the ABINIT group
 (those specified in the GNU General Public License, http://www.gnu.org/copyleft/gpl.txt).
 However, it is common practice in the scientific literature,
 to acknowledge the efforts of people that have made the research possible.
 In this spirit, please find below suggested citations of work written by ABINIT developers,
 corresponding to implementations inside of ABINIT that you have used in the present run.
 Note also that it will be of great value to readers of publications presenting these results,
 to read papers enabling them to understand the theoretical formalism and details
 of the ABINIT implementation.
 For information on why they are suggested, see also http://www.abinit.org/about/?text=acknowledgments.

 [1] ABINIT : First-principles approach of materials and nanosystem properties.
 X. Gonze, B. Amadon, P.-M. Anglade, J.-M. Beuken, F. Bottin, P. Boulanger, F. Bruneval,
 D. Caliste, R. Caracas, M. Cote, T. Deutsch, L. Genovese, Ph. Ghosez, M. Giantomassi
 S. Goedecker, D.R. Hamann, P. Hermet, F. Jollet, G. Jomard, S. Leroux, M. Mancini, S. Mazevet,
 M.J.T. Oliveira, G. Onida, Y. Pouillon, T. Rangel, G.-M. Rignanese, D. Sangalli, R. Shaltaf,
 M. Torrent, M.J. Verstraete, G. Zerah, J.W. Zwanziger
 Computer Phys. Comm. 180, 2582-2615 (2009).
 Comment : the third generic paper describing the ABINIT project.
 Note that a version of this paper, that is not formatted for Computer Phys. Comm. 
 is available at http://www.abinit.org/about/ABINIT_CPC_v10.pdf .
 The licence allows the authors to put it on the Web.

 [2] A brief introduction to the ABINIT software package.
 X. Gonze, G.-M. Rignanese, M. Verstraete, J.-M. Beuken, Y. Pouillon, R. Caracas, F. Jollet,
 M. Torrent, G. Zerah, M. Mikami, Ph. Ghosez, M. Veithen, J.-Y. Raty, V. Olevano, F. Bruneval,
 L. Reining, R. Godby, G. Onida, D.R. Hamann, and D.C. Allan.
 Z. Kristallogr. 220, 558-562 (2005).
 Comment : the second generic paper describing the ABINIT project. Note that this paper
 should be cited especially if you are using the GW part of ABINIT, as several authors
 of this part are not in the list of authors of the first or third paper.
 The .pdf of the latter paper is available at http://www.abinit.org/about/zfk_0505-06_558-562.pdf.
 Note that it should not redistributed (Copyright by Oldenburg Wissenshaftverlag,
 the licence allows the authors to put it on the Web).


 And optionally :

 [3] First-principles computation of material properties : the ABINIT software project. 
 X. Gonze, J.-M. Beuken, R. Caracas, F. Detraux, M. Fuchs, G.-M. Rignanese, L. Sindic,
 M. Verstraete, G. Zerah, F. Jollet, M. Torrent, A. Roy, M. Mikami, Ph. Ghosez, J.-Y. Raty, D.C. Allan.
 Computational Materials Science 25, 478-492 (2002). http://dx.doi.org/10.1016/S0927-0256(02)00325-7
 Comment : the original paper describing the ABINIT project.

 [4] Fast radix 2, 3, 4 and 5 kernels for Fast Fourier Transformations
 on computers with overlapping multiply-add instructions.
 S. Goedecker, SIAM J. on Scientific Computing 18, 1605 (1997).

 [5] Towards a potential-based conjugate gradient algorithm for order-N self-consistent
 total energy calculations.
 X. Gonze, Phys. Rev. B 54, 4383 (1996).
 Comment : The potential-based conjugate-gradient algorithm, used when iscf=5, is not published.
 However, many elements of this algorithm have been explained in the paper above.
-
- Proc.   0 individual time (sec): cpu=          3.0  wall=          3.0

================================================================================

 Calculation completed.
.Delivered   49 WARNINGs and 149 COMMENTs to log file.
+Overall time at end (sec) : cpu=          3.0  wall=          3.0
