
.Version 7.9.3 of ABINIT 
.(MPI version, prepared for a x86_64_linux_gnu4.7 computer) 

.Copyright (C) 1998-2014 ABINIT group . 
 ABINIT comes with ABSOLUTELY NO WARRANTY.
 It is free software, and you are welcome to redistribute it
 under certain conditions (GNU General Public License,
 see ~abinit/COPYING or http://www.gnu.org/copyleft/gpl.txt).

 ABINIT is a project of the Universite Catholique de Louvain,
 Corning Inc. and other collaborators, see ~abinit/doc/developers/contributors.txt .
 Please read ~abinit/doc/users/acknowledgments.html for suggested
 acknowledgments of the ABINIT effort.
 For more information, see http://www.abinit.org .

.Starting date : Sat 30 Aug 2014.
- ( at 22h19 )
  
- input  file    -> t03.in
- output file    -> t03.out
- root for input  files -> t03i
- root for output files -> t03o


 Symmetries : space group F-4 3 m (#216); Bravais cF (face-center cubic)
================================================================================
 Values of the parameters that define the memory need of the present run
   intxc =         1  ionmov =         0    iscf =         5 xclevel =         1
  lmnmax =         4   lnmax =         4   mband =         4  mffmem =         1
P  mgfft =        16   mkmem =         2 mpssoang=         3     mpw =       184
  mqgrid =      3001   natom =         2    nfft =      4096    nkpt =         2
  nloalg =         4  nspden =         1 nspinor =         1  nsppol =         1
    nsym =        24  n1xccc =      2501  ntypat =         1  occopt =         0
================================================================================
P This job should need less than                       1.675 Mbytes of memory.
P Max. in main chain + fourwf.f
P            9 blocks of mpw  integer numbers, for      0.006 Mbytes.
P           59 blocks of mpw  real(dp)  numbers, for      0.083 Mbytes.
P            2 blocks of nfft integer numbers, for      0.031 Mbytes.
P           29 blocks of nfft real(dp)  numbers, for      0.906 Mbytes.
P              Additional     real(dp)  numbers, for      0.411 Mbytes.
P              With residue estimated to be             0.237 Mbytes.
P
P Comparison of the memory needs of different chains
P Main chain + fourwf.f                 1.675 Mbytes.
P Main chain + nonlop.f + opernl.f      1.604 Mbytes.
P XC chain                              1.603 Mbytes.
P mkrho chain                           1.457 Mbytes.
P fourdp chain                          1.455 Mbytes.
- parallel k-point chain                1.376 Mbytes.
P newvtr chain                          1.438 Mbytes.
  Rough estimation (10% accuracy) of disk space for files :
_ WF disk file :      0.024 Mbytes ; DEN or POT disk file :      0.033 Mbytes.
================================================================================

--------------------------------------------------------------------------------
------------- Echo of variables that govern the present computation ------------
--------------------------------------------------------------------------------
-
- outvars: echo of selected default values                                      
-   accesswff0 =  0 , fftalg0 =112 , wfoptalg0 =  0
-
- outvars: echo of global parameters not present in the input file              
-  max_nthreads =    0
-
 -outvars: echo values of preprocessed input variables --------
            acell      1.0263110000E+01  1.0263110000E+01  1.0263110000E+01 Bohr
              amu      2.80855000E+01
           diemac      1.20000000E+01
             ecut      5.80000000E+00 Hartree
           enunit           2
-          fftalg         112
            intxc           1
             iscf           5
              kpt      1.00000000E+00  1.00000000E+00  1.00000000E+00
                       1.00000000E+00  2.00000000E+00  2.00000000E+00
           kptnrm      4.00000000E+00
           kptopt           0
P           mkmem           2
            natom           2
            nband           4
            ngfft          16      16      16
             nkpt           2
            nline           3
            nstep          10
             nsym          24
           ntypat           1
              occ      2.000000  2.000000  2.000000  2.000000
           occopt           0
           prtvol          10
            rprim      0.0000000000E+00  5.0000000000E-01  5.0000000000E-01
                       5.0000000000E-01  0.0000000000E+00  5.0000000000E-01
                       5.0000000000E-01  5.0000000000E-01  0.0000000000E+00
          spgroup         216
           symrel      1  0  0   0  1  0   0  0  1       0  1 -1   1  0 -1   0  0 -1
                       0 -1  1   0 -1  0   1 -1  0      -1  0  0  -1  0  1  -1  1  0
                       0  1  0   0  0  1   1  0  0       1  0 -1   0  0 -1   0  1 -1
                       0 -1  0   1 -1  0   0 -1  1      -1  0  1  -1  1  0  -1  0  0
                       0  0  1   1  0  0   0  1  0       0  0 -1   0  1 -1   1  0 -1
                       1 -1  0   0 -1  1   0 -1  0      -1  1  0  -1  0  0  -1  0  1
                       1  0 -1   0  1 -1   0  0 -1       0  1  0   1  0  0   0  0  1
                      -1  0  1  -1  0  0  -1  1  0       0 -1  0   0 -1  1   1 -1  0
                      -1  1  0  -1  0  1  -1  0  0       1 -1  0   0 -1  0   0 -1  1
                       0  0 -1   1  0 -1   0  1 -1       0  0  1   0  1  0   1  0  0
                       0 -1  1   1 -1  0   0 -1  0      -1  0  0  -1  1  0  -1  0  1
                       1  0  0   0  0  1   0  1  0       0  1 -1   0  0 -1   1  0 -1
           timopt          -1
           tolmxf      1.00000000E-04
           tolwfr      1.00000000E-14
            typat      1  1
              wtk        0.25000    0.75000
           xangst      0.0000000000E+00  0.0000000000E+00  0.0000000000E+00
                       1.3577509753E+00  1.3577509753E+00  1.3577509753E+00
            xcart      0.0000000000E+00  0.0000000000E+00  0.0000000000E+00
                       2.5657775000E+00  2.5657775000E+00  2.5657775000E+00
             xred      0.0000000000E+00  0.0000000000E+00  0.0000000000E+00
                       2.5000000000E-01  2.5000000000E-01  2.5000000000E-01
            znucl       14.00000

================================================================================

 chkinp: Checking input parameters for consistency.

================================================================================
== DATASET  1 ==================================================================
-   nproc =    1

 Exchange-correlation functional for the present dataset will be:
  LDA: new Teter (4/93) with spin-polarized option - ixc=1
 Citation for XC functional:
  S. Goedecker, M. Teter, J. Huetter, PRB 54, 1703 (1996)

 Real(R)+Recip(G) space primitive vectors, cartesian coordinates (Bohr,Bohr^-1):
 R(1)=  0.0000000  5.1315550  5.1315550  G(1)= -0.0974364  0.0974364  0.0974364
 R(2)=  5.1315550  0.0000000  5.1315550  G(2)=  0.0974364 -0.0974364  0.0974364
 R(3)=  5.1315550  5.1315550  0.0000000  G(3)=  0.0974364  0.0974364 -0.0974364
 Unit cell volume ucvol=  2.7025701E+02 bohr^3
 Angles (23,13,12)=  6.00000000E+01  6.00000000E+01  6.00000000E+01 degrees

 getcut: wavevector=  0.0000  0.0000  0.0000  ngfft=  16  16  16
         ecut(hartree)=      5.800   => boxcut(ratio)=   2.03365

--- Pseudopotential description ------------------------------------------------
- pspini: atom type   1  psp file is /home/gonze/ABINIT/ABINITv7.9.3/trunk/7.9.3-private/tests/Psps_for_tests/14si.psp
- pspatm: opening atomic psp file    /home/gonze/ABINIT/ABINITv7.9.3/trunk/7.9.3-private/tests/Psps_for_tests/14si.psp
-   Si  Fri Oct 08 11:18:59 1993
- 14.00000   4.00000    930920                znucl, zion, pspdat
    1    1    2    2      2001   0.00050      pspcod,pspxc,lmax,lloc,mmax,r2well
    0  19.464  25.000    2   1.8971118        l,e99.0,e99.9,nproj,rcpsp
   0.00112760   6.14571089   4.47651660  29.74712295     rms, ekb1, ekb2, epsatm
    1  21.459  28.812    2   1.8971118        l,e99.0,e99.9,nproj,rcpsp
   0.00119946   3.20906540   2.09352485  19.11150542     rms, ekb1, ekb2, epsatm
    2   8.223  21.459    0   1.8971118        l,e99.0,e99.9,nproj,rcpsp
   0.00098688   0.00000000   0.00000000  -3.97301006     rms, ekb1, ekb2, epsatm
    1.70000000000000    0.22513330685109    0.96523597101781   rchrg,fchrg,qchrg
 pspatm: epsatm=   -3.97301006
         --- l  ekb(1:nproj) -->
             0    6.145711    4.476517
             1    3.209065    2.093525
 pspatm: atomic psp has been read  and splines computed

  -6.35681610E+01                                ecore*ucvol(ha*bohr**3)
--------------------------------------------------------------------------------

P newkpt: treating      4 bands with npw=     177 for ikpt=   1 by node    0
P newkpt: treating      4 bands with npw=     184 for ikpt=   2 by node    0

_setup2: Arith. and geom. avg. npw (full set) are     182.250     182.224

================================================================================

     iter   Etot(hartree)      deltaE(h)  residm     vres2

 ETOT  1  -8.5826475111820    -8.583E+00 8.189E-03 1.886E+00

 prteigrs : about to open file t03o_EIG
 Fermi (or HOMO) energy (hartree) =   0.21770   Average Vxc (hartree)=  -0.34889
 Eigenvalues (hartree) for nkpt=   2  k points:
 kpt#   1, nband=  4, wtk=  0.25000, kpt=  0.2500  0.2500  0.2500 (reduced coord)
  -0.16772   0.10028   0.21636   0.21770
 kpt#   2, nband=  4, wtk=  0.75000, kpt=  0.2500  0.5000  0.5000 (reduced coord)
  -0.09756   0.00837   0.11546   0.16309
 Fermi (or HOMO) energy (eV) =   5.92396   Average Vxc (eV)=  -9.49383
 Eigenvalues (   eV  ) for nkpt=   2  k points:
 kpt#   1, nband=  4, wtk=  0.25000, kpt=  0.2500  0.2500  0.2500 (reduced coord)
  -4.56397   2.72880   5.88747   5.92396
 kpt#   2, nband=  4, wtk=  0.75000, kpt=  0.2500  0.5000  0.5000 (reduced coord)
  -2.65469   0.22773   3.14182   4.43798

 ETOT  2  -8.5877885315559    -5.141E-03 1.703E-06 5.197E-02

 prteigrs : about to open file t03o_EIG
 Fermi (or HOMO) energy (hartree) =   0.23711   Average Vxc (hartree)=  -0.35046
 Eigenvalues (hartree) for nkpt=   2  k points:
 kpt#   1, nband=  4, wtk=  0.25000, kpt=  0.2500  0.2500  0.2500 (reduced coord)
  -0.15146   0.11783   0.23711   0.23711
 kpt#   2, nband=  4, wtk=  0.75000, kpt=  0.2500  0.5000  0.5000 (reduced coord)
  -0.07989   0.02620   0.13098   0.18175
 Fermi (or HOMO) energy (eV) =   6.45208   Average Vxc (eV)=  -9.53647
 Eigenvalues (   eV  ) for nkpt=   2  k points:
 kpt#   1, nband=  4, wtk=  0.25000, kpt=  0.2500  0.2500  0.2500 (reduced coord)
  -4.12142   3.20631   6.45207   6.45208
 kpt#   2, nband=  4, wtk=  0.75000, kpt=  0.2500  0.5000  0.5000 (reduced coord)
  -2.17388   0.71295   3.56420   4.94562

 ETOT  3  -8.5878322093825    -4.368E-05 2.563E-07 1.244E-02

 prteigrs : about to open file t03o_EIG
 Fermi (or HOMO) energy (hartree) =   0.23722   Average Vxc (hartree)=  -0.35069
 Eigenvalues (hartree) for nkpt=   2  k points:
 kpt#   1, nband=  4, wtk=  0.25000, kpt=  0.2500  0.2500  0.2500 (reduced coord)
  -0.15196   0.11745   0.23722   0.23722
 kpt#   2, nband=  4, wtk=  0.75000, kpt=  0.2500  0.5000  0.5000 (reduced coord)
  -0.08022   0.02585   0.13032   0.18152
 Fermi (or HOMO) energy (eV) =   6.45522   Average Vxc (eV)=  -9.54276
 Eigenvalues (   eV  ) for nkpt=   2  k points:
 kpt#   1, nband=  4, wtk=  0.25000, kpt=  0.2500  0.2500  0.2500 (reduced coord)
  -4.13502   3.19591   6.45522   6.45522
 kpt#   2, nband=  4, wtk=  0.75000, kpt=  0.2500  0.5000  0.5000 (reduced coord)
  -2.18300   0.70352   3.54630   4.93941

 ETOT  4  -8.5878396622280    -7.453E-06 1.231E-08 1.294E-03

 prteigrs : about to open file t03o_EIG
 Fermi (or HOMO) energy (hartree) =   0.23722   Average Vxc (hartree)=  -0.35069
 Eigenvalues (hartree) for nkpt=   2  k points:
 kpt#   1, nband=  4, wtk=  0.25000, kpt=  0.2500  0.2500  0.2500 (reduced coord)
  -0.15197   0.11742   0.23722   0.23722
 kpt#   2, nband=  4, wtk=  0.75000, kpt=  0.2500  0.5000  0.5000 (reduced coord)
  -0.08022   0.02584   0.13032   0.18158
 Fermi (or HOMO) energy (eV) =   6.45503   Average Vxc (eV)=  -9.54287
 Eigenvalues (   eV  ) for nkpt=   2  k points:
 kpt#   1, nband=  4, wtk=  0.25000, kpt=  0.2500  0.2500  0.2500 (reduced coord)
  -4.13527   3.19529   6.45503   6.45503
 kpt#   2, nband=  4, wtk=  0.75000, kpt=  0.2500  0.5000  0.5000 (reduced coord)
  -2.18293   0.70309   3.54608   4.94113

 ETOT  5  -8.5878402858010    -6.236E-07 2.408E-09 2.559E-04

 prteigrs : about to open file t03o_EIG
 Fermi (or HOMO) energy (hartree) =   0.23744   Average Vxc (hartree)=  -0.35072
 Eigenvalues (hartree) for nkpt=   2  k points:
 kpt#   1, nband=  4, wtk=  0.25000, kpt=  0.2500  0.2500  0.2500 (reduced coord)
  -0.15181   0.11759   0.23744   0.23744
 kpt#   2, nband=  4, wtk=  0.75000, kpt=  0.2500  0.5000  0.5000 (reduced coord)
  -0.08004   0.02601   0.13045   0.18178
 Fermi (or HOMO) energy (eV) =   6.46113   Average Vxc (eV)=  -9.54356
 Eigenvalues (   eV  ) for nkpt=   2  k points:
 kpt#   1, nband=  4, wtk=  0.25000, kpt=  0.2500  0.2500  0.2500 (reduced coord)
  -4.13102   3.19981   6.46113   6.46113
 kpt#   2, nband=  4, wtk=  0.75000, kpt=  0.2500  0.5000  0.5000 (reduced coord)
  -2.17812   0.70776   3.54986   4.94659

 ETOT  6  -8.5878404845873    -1.988E-07 6.537E-10 8.898E-06

 prteigrs : about to open file t03o_EIG
 Fermi (or HOMO) energy (hartree) =   0.23745   Average Vxc (hartree)=  -0.35073
 Eigenvalues (hartree) for nkpt=   2  k points:
 kpt#   1, nband=  4, wtk=  0.25000, kpt=  0.2500  0.2500  0.2500 (reduced coord)
  -0.15180   0.11760   0.23745   0.23745
 kpt#   2, nband=  4, wtk=  0.75000, kpt=  0.2500  0.5000  0.5000 (reduced coord)
  -0.08002   0.02603   0.13045   0.18179
 Fermi (or HOMO) energy (eV) =   6.46122   Average Vxc (eV)=  -9.54380
 Eigenvalues (   eV  ) for nkpt=   2  k points:
 kpt#   1, nband=  4, wtk=  0.25000, kpt=  0.2500  0.2500  0.2500 (reduced coord)
  -4.13060   3.20018   6.46122   6.46122
 kpt#   2, nband=  4, wtk=  0.75000, kpt=  0.2500  0.5000  0.5000 (reduced coord)
  -2.17746   0.70833   3.54973   4.94669

 ETOT  7  -8.5878404919946    -7.407E-09 5.349E-11 3.173E-08

 prteigrs : about to open file t03o_EIG
 Fermi (or HOMO) energy (hartree) =   0.23746   Average Vxc (hartree)=  -0.35073
 Eigenvalues (hartree) for nkpt=   2  k points:
 kpt#   1, nband=  4, wtk=  0.25000, kpt=  0.2500  0.2500  0.2500 (reduced coord)
  -0.15179   0.11762   0.23746   0.23746
 kpt#   2, nband=  4, wtk=  0.75000, kpt=  0.2500  0.5000  0.5000 (reduced coord)
  -0.08001   0.02604   0.13046   0.18180
 Fermi (or HOMO) energy (eV) =   6.46162   Average Vxc (eV)=  -9.54390
 Eigenvalues (   eV  ) for nkpt=   2  k points:
 kpt#   1, nband=  4, wtk=  0.25000, kpt=  0.2500  0.2500  0.2500 (reduced coord)
  -4.13032   3.20049   6.46162   6.46162
 kpt#   2, nband=  4, wtk=  0.75000, kpt=  0.2500  0.5000  0.5000 (reduced coord)
  -2.17710   0.70868   3.54988   4.94700

 ETOT  8  -8.5878404920494    -5.485E-11 1.037E-12 3.828E-09

 prteigrs : about to open file t03o_EIG
 Fermi (or HOMO) energy (hartree) =   0.23746   Average Vxc (hartree)=  -0.35073
 Eigenvalues (hartree) for nkpt=   2  k points:
 kpt#   1, nband=  4, wtk=  0.25000, kpt=  0.2500  0.2500  0.2500 (reduced coord)
  -0.15179   0.11761   0.23746   0.23746
 kpt#   2, nband=  4, wtk=  0.75000, kpt=  0.2500  0.5000  0.5000 (reduced coord)
  -0.08001   0.02604   0.13045   0.18180
 Fermi (or HOMO) energy (eV) =   6.46152   Average Vxc (eV)=  -9.54390
 Eigenvalues (   eV  ) for nkpt=   2  k points:
 kpt#   1, nband=  4, wtk=  0.25000, kpt=  0.2500  0.2500  0.2500 (reduced coord)
  -4.13042   3.20038   6.46152   6.46152
 kpt#   2, nband=  4, wtk=  0.75000, kpt=  0.2500  0.5000  0.5000 (reduced coord)
  -2.17720   0.70857   3.54978   4.94690

 ETOT  9  -8.5878404920562    -6.823E-12 6.728E-14 9.348E-10

 prteigrs : about to open file t03o_EIG
 Fermi (or HOMO) energy (hartree) =   0.23746   Average Vxc (hartree)=  -0.35073
 Eigenvalues (hartree) for nkpt=   2  k points:
 kpt#   1, nband=  4, wtk=  0.25000, kpt=  0.2500  0.2500  0.2500 (reduced coord)
  -0.15179   0.11761   0.23746   0.23746
 kpt#   2, nband=  4, wtk=  0.75000, kpt=  0.2500  0.5000  0.5000 (reduced coord)
  -0.08001   0.02604   0.13045   0.18180
 Fermi (or HOMO) energy (eV) =   6.46152   Average Vxc (eV)=  -9.54390
 Eigenvalues (   eV  ) for nkpt=   2  k points:
 kpt#   1, nband=  4, wtk=  0.25000, kpt=  0.2500  0.2500  0.2500 (reduced coord)
  -4.13042   3.20038   6.46152   6.46152
 kpt#   2, nband=  4, wtk=  0.75000, kpt=  0.2500  0.5000  0.5000 (reduced coord)
  -2.17720   0.70858   3.54978   4.94690

 ETOT 10  -8.5878404920571    -8.384E-13 6.821E-15 5.749E-11

 prteigrs : about to open file t03o_EIG
 Fermi (or HOMO) energy (hartree) =   0.23746   Average Vxc (hartree)=  -0.35073
 Eigenvalues (hartree) for nkpt=   2  k points:
 kpt#   1, nband=  4, wtk=  0.25000, kpt=  0.2500  0.2500  0.2500 (reduced coord)
  -0.15179   0.11761   0.23746   0.23746
 kpt#   2, nband=  4, wtk=  0.75000, kpt=  0.2500  0.5000  0.5000 (reduced coord)
  -0.08001   0.02604   0.13045   0.18180
 Fermi (or HOMO) energy (eV) =   6.46152   Average Vxc (eV)=  -9.54390
 Eigenvalues (   eV  ) for nkpt=   2  k points:
 kpt#   1, nband=  4, wtk=  0.25000, kpt=  0.2500  0.2500  0.2500 (reduced coord)
  -4.13042   3.20038   6.46152   6.46152
 kpt#   2, nband=  4, wtk=  0.75000, kpt=  0.2500  0.5000  0.5000 (reduced coord)
  -2.17720   0.70858   3.54978   4.94690

 At SCF step   10   max residual=  6.82E-15 < tolwfr=  1.00E-14 =>converged.

 Cartesian components of stress tensor (hartree/bohr^3)
  sigma(1 1)= -3.10729231E-05  sigma(3 2)=  0.00000000E+00
  sigma(2 2)= -3.10729231E-05  sigma(3 1)=  0.00000000E+00
  sigma(3 3)= -3.10729231E-05  sigma(2 1)=  0.00000000E+00

================================================================================

 ----iterations are completed or convergence reached----

 Mean square residual over all n,k,spin=   3.9898E-15; max=  6.8215E-15
   0.2500  0.2500  0.2500    1  6.82148E-15 kpt; spin; max resid(k); each band:
  2.03E-15 2.92E-15 6.82E-15 6.82E-15
   0.2500  0.5000  0.5000    1  5.73013E-15 kpt; spin; max resid(k); each band:
  2.81E-15 2.99E-15 1.80E-15 5.73E-15
 reduced coordinates (array xred) for    2 atoms
       0.000000000000      0.000000000000      0.000000000000
       0.250000000000      0.250000000000      0.250000000000
 rms dE/dt=  1.7516E-29; max dE/dt=  0.0000E+00; dE/dt below (all hartree)
    1      -0.000000000000     -0.000000000000      0.000000000000
    2      -0.000000000000     -0.000000000000      0.000000000000

 cartesian coordinates (angstrom) at end:
    1      0.00000000000000     0.00000000000000     0.00000000000000
    2      1.35775097531303     1.35775097531303     1.35775097531303

 cartesian forces (hartree/bohr) at end:
    1     -0.00000000000000     0.00000000000000     0.00000000000000
    2      0.00000000000000    -0.00000000000000     0.00000000000000
 frms,max,avg= 6.6942903E-31 8.1987978E-31   0.000E+00  0.000E+00  0.000E+00 h/b

 cartesian forces (eV/Angstrom) at end:
    1     -0.00000000000000     0.00000000000000     0.00000000000000
    2      0.00000000000000    -0.00000000000000     0.00000000000000
 frms,max,avg= 3.4423422E-29 4.2159910E-29   0.000E+00  0.000E+00  0.000E+00 e/A
 length scales= 10.263110000000 10.263110000000 10.263110000000 bohr
              =  5.431003901252  5.431003901252  5.431003901252 angstroms
 prteigrs : about to open file t03o_EIG
 Fermi (or HOMO) energy (hartree) =   0.23746   Average Vxc (hartree)=  -0.35073
 Eigenvalues (hartree) for nkpt=   2  k points:
 kpt#   1, nband=  4, wtk=  0.25000, kpt=  0.2500  0.2500  0.2500 (reduced coord)
  -0.15179   0.11761   0.23746   0.23746
 kpt#   2, nband=  4, wtk=  0.75000, kpt=  0.2500  0.5000  0.5000 (reduced coord)
  -0.08001   0.02604   0.13045   0.18180
 Fermi (or HOMO) energy (eV) =   6.46152   Average Vxc (eV)=  -9.54390
 Eigenvalues (   eV  ) for nkpt=   2  k points:
 kpt#   1, nband=  4, wtk=  0.25000, kpt=  0.2500  0.2500  0.2500 (reduced coord)
  -4.13042   3.20038   6.46152   6.46152
 kpt#   2, nband=  4, wtk=  0.75000, kpt=  0.2500  0.5000  0.5000 (reduced coord)
  -2.17720   0.70858   3.54978   4.94690
 Total charge density [el/Bohr^3]
,     Maximum=    8.8616E-02  at reduced coord.    0.1250    0.1250    0.6250
,Next maximum=    8.8616E-02  at reduced coord.    0.1250    0.6250    0.1250
,     Minimum=    3.2389E-03  at reduced coord.    0.7500    0.7500    0.7500
,Next minimum=    3.2389E-03  at reduced coord.    0.5000    0.5000    0.5000
,  Integrated=    8.0000E+00

--------------------------------------------------------------------------------
 Components of total free energy (in Hartree) :

    Kinetic energy  =  2.96592938186705E+00
    Hartree energy  =  5.19867102046908E-01
    XC energy       = -3.30418310288968E+00
    Ewald energy    = -8.39791921808003E+00
    PspCore energy  = -2.35213740360010E-01
    Loc. psp. energy= -2.03259262373694E+00
    NL   psp  energy=  1.89627170909565E+00
    >>>>>>>>> Etotal= -8.58784049205707E+00

 Other information on the energy :
    Total energy(eV)= -2.33687024157816E+02 ; Band energy (Ha)=   6.0778230428E-01
--------------------------------------------------------------------------------

          ===> extra information on forces <===
 ewald contribution to reduced grads
    1      -0.000000000000     -0.000000000000     -0.000000000000
    2       0.000000000000      0.000000000000      0.000000000000
 nonlocal contribution to red. grads
    1       0.000000000000     -0.000000000000      0.000000000000
    2      -0.000000000000      0.000000000000      0.000000000000
 local psp contribution to red. grads
    1      -0.000000000002     -0.000000000002     -0.000000000002
    2       0.000000000002      0.000000000002      0.000000000002
 core charge xc contribution to reduced grads
    1       0.000000000002      0.000000000002      0.000000000002
    2      -0.000000000002     -0.000000000002     -0.000000000002
 residual contribution to red. grads
    1       0.000000000000      0.000000000000      0.000000000000
    2       0.000000000000      0.000000000000      0.000000000000

 Cartesian components of stress tensor (hartree/bohr^3)
  sigma(1 1)= -3.10729231E-05  sigma(3 2)=  0.00000000E+00
  sigma(2 2)= -3.10729231E-05  sigma(3 1)=  0.00000000E+00
  sigma(3 3)= -3.10729231E-05  sigma(2 1)=  0.00000000E+00

-Cartesian components of stress tensor (GPa)         [Pressure=  9.1420E-01 GPa]
- sigma(1 1)= -9.14196806E-01  sigma(3 2)=  0.00000000E+00
- sigma(2 2)= -9.14196806E-01  sigma(3 1)=  0.00000000E+00
- sigma(3 3)= -9.14196806E-01  sigma(2 1)=  0.00000000E+00

== END DATASET(S) ==============================================================
================================================================================
  
 -outvars: echo values of variables after computation  --------
            acell      1.0263110000E+01  1.0263110000E+01  1.0263110000E+01 Bohr
              amu      2.80855000E+01
           diemac      1.20000000E+01
             ecut      5.80000000E+00 Hartree
           enunit           2
           etotal     -8.5878404921E+00
            fcart     -8.1987977546E-31  8.1987977546E-31  0.0000000000E+00
                       8.1987977546E-31 -8.1987977546E-31  0.0000000000E+00
-          fftalg         112
            intxc           1
             iscf           5
              kpt      1.00000000E+00  1.00000000E+00  1.00000000E+00
                       1.00000000E+00  2.00000000E+00  2.00000000E+00
           kptnrm      4.00000000E+00
           kptopt           0
P           mkmem           2
            natom           2
            nband           4
            ngfft          16      16      16
             nkpt           2
            nline           3
            nstep          10
             nsym          24
           ntypat           1
              occ      2.000000  2.000000  2.000000  2.000000
           occopt           0
           prtvol          10
            rprim      0.0000000000E+00  5.0000000000E-01  5.0000000000E-01
                       5.0000000000E-01  0.0000000000E+00  5.0000000000E-01
                       5.0000000000E-01  5.0000000000E-01  0.0000000000E+00
          spgroup         216
           strten     -3.1072923098E-05 -3.1072923098E-05 -3.1072923098E-05
                       0.0000000000E+00  0.0000000000E+00  0.0000000000E+00
           symrel      1  0  0   0  1  0   0  0  1       0  1 -1   1  0 -1   0  0 -1
                       0 -1  1   0 -1  0   1 -1  0      -1  0  0  -1  0  1  -1  1  0
                       0  1  0   0  0  1   1  0  0       1  0 -1   0  0 -1   0  1 -1
                       0 -1  0   1 -1  0   0 -1  1      -1  0  1  -1  1  0  -1  0  0
                       0  0  1   1  0  0   0  1  0       0  0 -1   0  1 -1   1  0 -1
                       1 -1  0   0 -1  1   0 -1  0      -1  1  0  -1  0  0  -1  0  1
                       1  0 -1   0  1 -1   0  0 -1       0  1  0   1  0  0   0  0  1
                      -1  0  1  -1  0  0  -1  1  0       0 -1  0   0 -1  1   1 -1  0
                      -1  1  0  -1  0  1  -1  0  0       1 -1  0   0 -1  0   0 -1  1
                       0  0 -1   1  0 -1   0  1 -1       0  0  1   0  1  0   1  0  0
                       0 -1  1   1 -1  0   0 -1  0      -1  0  0  -1  1  0  -1  0  1
                       1  0  0   0  0  1   0  1  0       0  1 -1   0  0 -1   1  0 -1
           timopt          -1
           tolmxf      1.00000000E-04
           tolwfr      1.00000000E-14
            typat      1  1
              wtk        0.25000    0.75000
           xangst      0.0000000000E+00  0.0000000000E+00  0.0000000000E+00
                       1.3577509753E+00  1.3577509753E+00  1.3577509753E+00
            xcart      0.0000000000E+00  0.0000000000E+00  0.0000000000E+00
                       2.5657775000E+00  2.5657775000E+00  2.5657775000E+00
             xred      0.0000000000E+00  0.0000000000E+00  0.0000000000E+00
                       2.5000000000E-01  2.5000000000E-01  2.5000000000E-01
            znucl       14.00000

================================================================================

 Test the timer : 
  a combined call timab(*,1,tsec) + timab(*,2,tsec) is 
- CPU time =    7.0397E-07 sec,    Wall time =    7.0123E-07 sec

- Total cpu        time (s,m,h):          0.7        0.01      0.000
- Total wall clock time (s,m,h):          0.7        0.01      0.000
-
- For major independent code sections, cpu and wall times (sec),
-  as well as % of the time and number of calls for node 0-
-<BEGIN_TIMER mpi_nprocs = 1, omp_nthreads = 1, mpi_rank = 0>
- cpu_time =            0.7, wall_time =            0.7
-
- routine                        cpu     %       wall     %      number of calls  Gflops 
-                                                                  (-1=no count)
- pspini                         0.289  42.0      0.289  42.1              1      -1.00    
- timing timab                   0.137  19.9      0.136  19.9             14      -1.00    
- invars2                        0.121  17.6      0.121  17.6              1      -1.00    
- abinit(2)                      0.028   4.1      0.028   4.1              1      -1.00    
- fourwf%(pot)                   0.025   3.6      0.027   3.9            372      -1.00    
- nonlop(apply)                  0.010   1.5      0.008   1.1            372      -1.00    
- xc:pot/=fourdp                 0.007   1.0      0.007   1.0             11      -1.00    
- fourdp                         0.007   1.0      0.005   0.7             95      -1.00    
- fourwf%(den)                   0.006   0.9      0.003   0.5             80      -1.00    
- scfcv-scprqt                   0.004   0.6      0.003   0.5             10      -1.00    
- symrhg(no FFT)                 0.003   0.4      0.002   0.3             10      -1.00    
- stress                         0.002   0.3      0.002   0.3              1      -1.00    
- forces                         0.002   0.3      0.001   0.2              1      -1.00    
- projbd                         0.001   0.1      0.002   0.3            552      -1.00    
- ewald                          0.001   0.1      0.001   0.1              1      -1.00    
- setsym                         0.001   0.1      0.001   0.1              1      -1.00    
- getghc-other                   0.001   0.1      0.001   0.2             -1      -1.00    
- vtowfk(ssdiag)                 0.001   0.1      0.002   0.3             -1      -1.00    
- mkcore                         0.001   0.1      0.002   0.3              3      -1.00    
- kpgsph                         0.000   0.0      0.000   0.0              4      -1.00    
- vtowfk  (1)                    0.000   0.0      0.000   0.0             20      -1.00    
- ewald2 (+vdw_dftd2)            0.000   0.0      0.001   0.1              1      -1.00    
- status                         0.000   0.0      0.000   0.0             31      -1.00    
- nonlop(forstr)                 0.000   0.0      0.001   0.1              8      -1.00    
- vtowfk3(contrib)               0.000   0.0      0.000   0.0             -1      -1.00    
- cgwf3-O(npw)                   0.000   0.0      0.000   0.0             -1      -1.00    
- vtowfk(contrib)                0.000   0.0      0.001   0.2             20      -1.00    
- inwffil(excl. calls)           0.000   0.0      0.000   0.0              1      -1.00    
- newkpt(excl. rwwf   )          0.000   0.0      0.000   0.0             -1      -1.00    
- vtorho(MPI)                    0.000   0.0      0.000   0.0             10      -1.00    
- others (75)                    0.000   0.0      0.000   0.0             -1      -1.00    
-<END_TIMER>
-
- subtotal                       0.647  94.0      0.644  93.7

- For major independent code sections, cpu and wall times (sec),
- as well as % of the total time and number of calls 

-<BEGIN_TIMER mpi_nprocs = 1, omp_nthreads = 1, mpi_rank = world>
- cpu_time =           0.7, wall_time =           0.7
-
- routine                         cpu     %       wall     %      number of calls Gflops 
-                                                                  (-1=no count)
- pspini                         0.289  42.0      0.289  42.1              1      -1.00    
- timing timab                   0.137  19.9      0.136  19.9             14      -1.00    
- invars2                        0.121  17.6      0.121  17.6              1      -1.00    
- abinit(2)                      0.028   4.1      0.028   4.1              1      -1.00    
- fourwf%(pot)                   0.025   3.6      0.027   3.9            372      -1.00    
- nonlop(apply)                  0.010   1.5      0.008   1.1            372      -1.00    
- xc:pot/=fourdp                 0.007   1.0      0.007   1.0             11      -1.00    
- fourdp                         0.007   1.0      0.005   0.7             95      -1.00    
- fourwf%(den)                   0.006   0.9      0.003   0.5             80      -1.00    
- scfcv-scprqt                   0.004   0.6      0.003   0.5             10      -1.00    
- symrhg(no FFT)                 0.003   0.4      0.002   0.3             10      -1.00    
- stress                         0.002   0.3      0.002   0.3              1      -1.00    
- forces                         0.002   0.3      0.001   0.2              1      -1.00    
- projbd                         0.001   0.1      0.002   0.3            552      -1.00    
- ewald                          0.001   0.1      0.001   0.1              1      -1.00    
- setsym                         0.001   0.1      0.001   0.1              1      -1.00    
- getghc-other                   0.001   0.1      0.001   0.2             -1      -1.00    
- vtowfk(ssdiag)                 0.001   0.1      0.002   0.3             -1      -1.00    
- mkcore                         0.001   0.1      0.002   0.3              3      -1.00    
- kpgsph                         0.000   0.0      0.000   0.0              4      -1.00    
- vtowfk  (1)                    0.000   0.0      0.000   0.0             20      -1.00    
- ewald2 (+vdw_dftd2)            0.000   0.0      0.001   0.1              1      -1.00    
- status                         0.000   0.0      0.000   0.0             31      -1.00    
- nonlop(forstr)                 0.000   0.0      0.001   0.1              8      -1.00    
- vtowfk3(contrib)               0.000   0.0      0.000   0.0             -1      -1.00    
- cgwf3-O(npw)                   0.000   0.0      0.000   0.0             -1      -1.00    
- vtowfk(contrib)                0.000   0.0      0.001   0.2             20      -1.00    
- inwffil(excl. calls)           0.000   0.0      0.000   0.0              1      -1.00    
- newkpt(excl. rwwf   )          0.000   0.0      0.000   0.0             -1      -1.00    
- vtorho(MPI)                    0.000   0.0      0.000   0.0             10      -1.00    
- others (75)                    0.000   0.0      0.000   0.0             -1      -1.00    
-<END_TIMER>

- subtotal                       0.647  94.0      0.644  93.7

 Partitioning of abinit
- abinit                         0.688 100.0      0.687 100.0              1
 
- abinit(1)                      0.010   1.5      0.010   1.5              1
- abinit(2)                      0.028   4.1      0.028   4.1              1
- indefo+macroin+invars2m        0.122  17.7      0.121  17.6              1
- abinit(4)                      0.011   1.6      0.011   1.6              1
- abinit(5)                      0.006   0.9      0.006   0.9              1
- driver                         0.371  53.9      0.371  54.0              1
- abinit(6)                      0.003   0.4      0.003   0.4              1
- timing timab                   0.137  19.9      0.136  19.9             14

- subtotal                       0.688 100.0      0.687 100.0

 Partitioning of driver
- driver                         0.371  53.9      0.371  54.0              1
 
- driver(bef. select case)       0.000   0.0      0.000   0.0              1
- gstateimg                      0.371  53.9      0.371  54.0              1

- subtotal                       0.371  53.9      0.371  54.0

 Partitioning of gstateimg+gstate
- gstateimg                      0.371  53.9      0.371  54.0              1
 
- gstate->kpgsph                 0.001   0.1      0.001   0.1              2
- gstate(pspini)                 0.289  42.0      0.289  42.1              1
- gstate  (2)                    0.000   0.0      0.000   0.0              1
- gstate(...scfcv)               0.080  11.6      0.079  11.5              1
- gstate  (3)                    0.001   0.1      0.001   0.2              1

- subtotal                       0.371  53.9      0.371  54.0

 Partitioning of scfcv
- scfcv                          0.080  11.6      0.079  11.5              1
 
- scfcv(iniloop, setvtr  )       0.003   0.4      0.003   0.4             10
- scfcv(vtorho(f))               0.056   8.1      0.056   8.1             10
- scfcv-scprqt                   0.004   0.6      0.003   0.5             10
- scfcv(rhotov)                  0.010   1.5      0.010   1.4             10
- scfcv(mix pot)                 0.002   0.3      0.003   0.4              9
- scfcv(afterscfloop)            0.004   0.6      0.004   0.6              1
- scfcv(outscfcv)                0.001   0.1      0.001   0.2              1

- subtotal                       0.080  11.6      0.079  11.5

 Partitioning of rhotov
- rhotov                         0.010   1.5      0.010   1.4             10
 
- rhotov(rhohxc)                 0.010   1.5      0.009   1.3             10
- rhotov(other)                  0.000   0.0      0.000   0.1             10

- subtotal                       0.010   1.5      0.010   1.4

 Partitioning of vtorho
- vtorho                         0.056   8.1      0.056   8.1             10
 
- vtorho(bef. spin loop)         0.000   0.0      0.000   0.0             10
- vtorho(bef. vtowfk)            0.001   0.1      0.001   0.2             20
- vtowfk                         0.051   7.4      0.050   7.3             20
- vtorho(mkrho 2)                0.004   0.6      0.003   0.5             20

- subtotal                       0.056   8.1      0.056   8.1

 Partitioning of vtowfk
- vtowfk                         0.051   7.4      0.050   7.3             20
 
- vtowfk  (1)                    0.000   0.0      0.000   0.0             20
- cgwf                           0.044   6.4      0.043   6.3             24
- vtowfk(subdiago)               0.000   0.0      0.001   0.1             24
- vtowfk(pw_orthon)              0.000   0.0      0.000   0.1             24
- vtowfk(2)                      0.001   0.1      0.001   0.1             -1
- fourwf%vtowfk                  0.006   0.9      0.003   0.5             80
- vtowfk(3)                      0.000   0.0      0.001   0.2             -1

- subtotal                       0.051   7.4      0.050   7.3

 Partitioning of cgwf
- cgwf                           0.044   6.4      0.043   6.3             24
 
- getghc%cgwf                    0.036   5.2      0.036   5.2            372
- cgwf-O(npw)                    0.007   1.0      0.006   0.8             -1
- projbd%cgwf                    0.001   0.1      0.002   0.3            552

- subtotal                       0.044   6.4      0.043   6.3

 Partitioning of getghc
- getghc                         0.036   5.2      0.036   5.2            372
 
- fourwf%getghc                  0.025   3.6      0.027   3.9            372
- nonlop%getghc                  0.010   1.5      0.008   1.1            372
- getghc-other                   0.001   0.1      0.001   0.2             -1

- subtotal                       0.036   5.2      0.036   5.2

 Partitioning of fourwf (upwards partitioning)
- fourwf                         0.031   4.5      0.030   4.4            452
 
- fourwf%getghc                  0.025   3.6      0.027   3.9            372
- fourwf%vtowfk                  0.006   0.9      0.003   0.5             80

- subtotal                       0.031   4.5      0.030   4.4

 Partitioning of inwffil
- inwffil                        0.000   0.0      0.000   0.0              1
 

- subtotal                       0.000   0.0      0.000   0.0

 Partitioning of newkpt
- newkpt                         0.000   0.0      0.000   0.0              1
 

- subtotal                       0.000   0.0      0.000   0.0

 Partitioning of newvtr
- newvtr                         0.002   0.3      0.003   0.4              9
 
- newvtr(call prcref_PMA)        0.001   0.1      0.001   0.2              9
- newvtr(aft. prcref_PMA)        0.001   0.1      0.001   0.2              9
- (other)                        0.000   0.0      0.000   0.0             -1

- subtotal                       0.002   0.3      0.003   0.4

 Partitioning of  fourdp (upwards partitioning)
- fourdp                         0.007   1.0      0.005   0.7             95
 
- fourdp%(other)                 0.007   1.0      0.005   0.7             95

- subtotal                       0.007   1.0      0.005   0.7

 Partitioning of afterscfloop
- afterscfloop                   0.004   0.6      0.004   0.6              1
 
- afterscfloop(forstr)           0.004   0.6      0.004   0.6              1

- subtotal                       0.004   0.6      0.004   0.6

 Partitioning of forstr
- forstr                         0.004   0.6      0.004   0.6              1
 
- forstr(forstrnps)              0.000   0.0      0.001   0.1              1
- forstr(forces)                 0.002   0.3      0.001   0.2              1
- forstr(stress)                 0.002   0.3      0.002   0.3              1

- subtotal                       0.004   0.6      0.004   0.6

 Partitioning of forstrnps
- forstrnps                      0.000   0.0      0.001   0.1              1
 
- forstrnps(bef.loop band)       0.000   0.0      0.000   0.0              2
- forstrnps(nonlop+prep_ba       0.000   0.0      0.001   0.1              8

- subtotal                       0.000   0.0      0.001   0.1

 Partitioning of outscfcv
- outscfcv                       0.001   0.1      0.001   0.2              1
 
- outscfcv([PAW]prtden)          0.000   0.0      0.000   0.0              1

- subtotal                       0.000   0.0      0.000   0.0
-
-Synchronisation (=leave_test) and MPI calls 
- communic.MPI                   0.000   0.0      0.000   0.0            548
-
- forstrnps:synchr               0.000   0.0      0.000   0.0              2
-
- subtotal                       0.000   0.0      0.000   0.0

 Additional information
- timana(1)                      0.000   0.0      0.000   0.0              1
- total timab                    0.139  20.2      0.139  20.2         197850
- fourwf                         0.031   4.5      0.030   4.4            452
- mklocl(2)                      0.000   0.0      0.000   0.0              1
- status                         0.000   0.0      0.000   0.0             31
- nonlop(forstr)                 0.000   0.0      0.001   0.1              8
- nonlop(total)                  0.010   1.5      0.008   1.2            380
- xc:fourdp                      0.004   0.6      0.002   0.3             44


 Detailed analysis of some time consuming routines 
                                  tcpu    ncalls  tcpu/ncalls    ndata tcpu/ncalls/ndata
                                 (sec)                (msec)              (microsec)
- fourwf%(pot)                   0.025       372       0.067      8192       0.008
- fourwf%(den)                   0.006        80       0.075      4096       0.018
- fourdp                         0.007        95       0.074      4096       0.018
- nonlop(apply)                  0.010       372       0.027       360       0.075
- nonlop(forces)                 0.000         0
- nonlop(forstr)                 0.000         8       0.000       360       0.000
- projbd                         0.001       552       0.002       722       0.003
- xc:pot/=fourdp                 0.007        11       0.636      4096       0.155

================================================================================

 Suggested references for the acknowledgment of ABINIT usage.

 The users of ABINIT have little formal obligations with respect to the ABINIT group
 (those specified in the GNU General Public License, http://www.gnu.org/copyleft/gpl.txt).
 However, it is common practice in the scientific literature,
 to acknowledge the efforts of people that have made the research possible.
 In this spirit, please find below suggested citations of work written by ABINIT developers,
 corresponding to implementations inside of ABINIT that you have used in the present run.
 Note also that it will be of great value to readers of publications presenting these results,
 to read papers enabling them to understand the theoretical formalism and details
 of the ABINIT implementation.
 For information on why they are suggested, see also http://www.abinit.org/about/?text=acknowledgments.

 [1] ABINIT : First-principles approach of materials and nanosystem properties.
 X. Gonze, B. Amadon, P.-M. Anglade, J.-M. Beuken, F. Bottin, P. Boulanger, F. Bruneval,
 D. Caliste, R. Caracas, M. Cote, T. Deutsch, L. Genovese, Ph. Ghosez, M. Giantomassi
 S. Goedecker, D.R. Hamann, P. Hermet, F. Jollet, G. Jomard, S. Leroux, M. Mancini, S. Mazevet,
 M.J.T. Oliveira, G. Onida, Y. Pouillon, T. Rangel, G.-M. Rignanese, D. Sangalli, R. Shaltaf,
 M. Torrent, M.J. Verstraete, G. Zerah, J.W. Zwanziger
 Computer Phys. Comm. 180, 2582-2615 (2009).
 Comment : the third generic paper describing the ABINIT project.
 Note that a version of this paper, that is not formatted for Computer Phys. Comm. 
 is available at http://www.abinit.org/about/ABINIT_CPC_v10.pdf .
 The licence allows the authors to put it on the Web.

 [2] A brief introduction to the ABINIT software package.
 X. Gonze, G.-M. Rignanese, M. Verstraete, J.-M. Beuken, Y. Pouillon, R. Caracas, F. Jollet,
 M. Torrent, G. Zerah, M. Mikami, Ph. Ghosez, M. Veithen, J.-Y. Raty, V. Olevano, F. Bruneval,
 L. Reining, R. Godby, G. Onida, D.R. Hamann, and D.C. Allan.
 Z. Kristallogr. 220, 558-562 (2005).
 Comment : the second generic paper describing the ABINIT project. Note that this paper
 should be cited especially if you are using the GW part of ABINIT, as several authors
 of this part are not in the list of authors of the first or third paper.
 The .pdf of the latter paper is available at http://www.abinit.org/about/zfk_0505-06_558-562.pdf.
 Note that it should not redistributed (Copyright by Oldenburg Wissenshaftverlag,
 the licence allows the authors to put it on the Web).


 And optionally :

 [3] First-principles computation of material properties : the ABINIT software project. 
 X. Gonze, J.-M. Beuken, R. Caracas, F. Detraux, M. Fuchs, G.-M. Rignanese, L. Sindic,
 M. Verstraete, G. Zerah, F. Jollet, M. Torrent, A. Roy, M. Mikami, Ph. Ghosez, J.-Y. Raty, D.C. Allan.
 Computational Materials Science 25, 478-492 (2002). http://dx.doi.org/10.1016/S0927-0256(02)00325-7
 Comment : the original paper describing the ABINIT project.

 [4] Fast radix 2, 3, 4 and 5 kernels for Fast Fourier Transformations
 on computers with overlapping multiply-add instructions.
 S. Goedecker, SIAM J. on Scientific Computing 18, 1605 (1997).

 [5] Towards a potential-based conjugate gradient algorithm for order-N self-consistent
 total energy calculations.
 X. Gonze, Phys. Rev. B 54, 4383 (1996).
 Comment : The potential-based conjugate-gradient algorithm, used when iscf=5, is not published.
 However, many elements of this algorithm have been explained in the paper above.
-
- Proc.   0 individual time (sec): cpu=          0.7  wall=          0.7

================================================================================

 Calculation completed.
.Delivered    6 WARNINGs and   0 COMMENTs to log file.
+Overall time at end (sec) : cpu=          0.7  wall=          0.7
