
.Version 7.9.3 of ABINIT 
.(MPI version, prepared for a x86_64_linux_gnu4.7 computer) 

.Copyright (C) 1998-2014 ABINIT group . 
 ABINIT comes with ABSOLUTELY NO WARRANTY.
 It is free software, and you are welcome to redistribute it
 under certain conditions (GNU General Public License,
 see ~abinit/COPYING or http://www.gnu.org/copyleft/gpl.txt).

 ABINIT is a project of the Universite Catholique de Louvain,
 Corning Inc. and other collaborators, see ~abinit/doc/developers/contributors.txt .
 Please read ~abinit/doc/users/acknowledgments.html for suggested
 acknowledgments of the ABINIT effort.
 For more information, see http://www.abinit.org .

.Starting date : Sat 30 Aug 2014.
- ( at 22h19 )
  
- input  file    -> t27.in
- output file    -> t27.out
- root for input  files -> t27i
- root for output files -> t27o


 Symmetries : space group P1 (#  1); Bravais aP (primitive triclinic)
================================================================================
 Values of the parameters that define the memory need of the present run
   intxc =         1  ionmov =         0    iscf =         3 xclevel =         1
  lmnmax =         2   lnmax =         2   mband =        16  mffmem =         1
P  mgfft =        16   mkmem =         4 mpssoang=         3     mpw =       272
  mqgrid =      3001   natom =         8    nfft =      4096    nkpt =         4
  nloalg =         4  nspden =         1 nspinor =         1  nsppol =         1
    nsym =         1  n1xccc =      2501  ntypat =         1  occopt =         0
================================================================================
P This job should need less than                       1.646 Mbytes of memory.
P Max. in main chain + fourwf.f
P           15 blocks of mpw  integer numbers, for      0.016 Mbytes.
P          167 blocks of mpw  real(dp)  numbers, for      0.347 Mbytes.
P           21 blocks of nfft real(dp)  numbers, for      0.656 Mbytes.
P              Additional     real(dp)  numbers, for      0.355 Mbytes.
P              With residue estimated to be             0.272 Mbytes.
P
P Comparison of the memory needs of different chains
P Main chain + fourwf.f                 1.646 Mbytes.
P Main chain + nonlop.f + opernl.f      1.579 Mbytes.
P XC chain                              1.526 Mbytes.
P mkrho chain                           1.383 Mbytes.
P fourdp chain                          1.308 Mbytes.
- parallel k-point chain                1.301 Mbytes.
P newvtr chain                          1.362 Mbytes.
  Rough estimation (10% accuracy) of disk space for files :
_ WF disk file :      0.268 Mbytes ; DEN or POT disk file :      0.033 Mbytes.
================================================================================

--------------------------------------------------------------------------------
------------- Echo of variables that govern the present computation ------------
--------------------------------------------------------------------------------
-
- outvars: echo of selected default values                                      
-   accesswff0 =  0 , fftalg0 =112 , wfoptalg0 =  0
-
- outvars: echo of global parameters not present in the input file              
-  max_nthreads =    0
-
 -outvars: echo values of preprocessed input variables --------
            acell      1.0263110000E+01  1.0263110000E+01  1.0263110000E+01 Bohr
              amu      2.80855000E+01
           diemac      1.20000000E+01
             ecut      2.99000000E+00 Hartree
           enunit           2
-          fftalg         112
            intxc           1
             iscf           3
              kpt      1.00000000E+00  1.00000000E+00  1.00000000E+00
                      -1.00000000E+00  1.00000000E+00  1.00000000E+00
                       1.00000000E+00 -1.00000000E+00  1.00000000E+00
                       1.00000000E+00  1.00000000E+00 -1.00000000E+00
           kptnrm      4.00000000E+00
           kptopt           0
P           mkmem           4
            natom           8
            nband          16
            ngfft          16      16      16
             nkpt           4
            nline           2
            nstep          15
             nsym           1
           ntypat           1
              occ      2.000000  2.000000  2.000000  2.000000  2.000000  2.000000
                       2.000000  2.000000  2.000000  2.000000  2.000000  2.000000
                       2.000000  2.000000  2.000000  2.000000
           occopt           0
           ortalg           4
           prtgeo           4
           prtpot           1
           prtvol          10
          spgroup           1
           timopt          -1
           tolwfr      1.00000000E-13
            typat      1  1  1  1  1  1  1  1
              wtk        0.25000    0.25000    0.25000    0.25000
           xangst      0.0000000000E+00  0.0000000000E+00  0.0000000000E+00
                       1.3577509753E+00  1.3577509753E+00  1.3577509753E+00
                       0.0000000000E+00  2.7155019506E+00  2.7155019506E+00
                       1.3577509753E+00  4.0732529259E+00  4.0732529259E+00
                       2.7155019506E+00  0.0000000000E+00  2.7155019506E+00
                       4.0732529259E+00  1.3577509753E+00  4.0732529259E+00
                       2.7155019506E+00  2.7155019506E+00  0.0000000000E+00
                       4.0732529259E+00  4.0732529259E+00  1.3577509753E+00
            xcart      0.0000000000E+00  0.0000000000E+00  0.0000000000E+00
                       2.5657775000E+00  2.5657775000E+00  2.5657775000E+00
                       0.0000000000E+00  5.1315550000E+00  5.1315550000E+00
                       2.5657775000E+00  7.6973325000E+00  7.6973325000E+00
                       5.1315550000E+00  0.0000000000E+00  5.1315550000E+00
                       7.6973325000E+00  2.5657775000E+00  7.6973325000E+00
                       5.1315550000E+00  5.1315550000E+00  0.0000000000E+00
                       7.6973325000E+00  7.6973325000E+00  2.5657775000E+00
             xred      0.0000000000E+00  0.0000000000E+00  0.0000000000E+00
                       2.5000000000E-01  2.5000000000E-01  2.5000000000E-01
                       0.0000000000E+00  5.0000000000E-01  5.0000000000E-01
                       2.5000000000E-01  7.5000000000E-01  7.5000000000E-01
                       5.0000000000E-01  0.0000000000E+00  5.0000000000E-01
                       7.5000000000E-01  2.5000000000E-01  7.5000000000E-01
                       5.0000000000E-01  5.0000000000E-01  0.0000000000E+00
                       7.5000000000E-01  7.5000000000E-01  2.5000000000E-01
            znucl       14.00000

================================================================================

 chkinp: Checking input parameters for consistency.

================================================================================
== DATASET  1 ==================================================================
-   nproc =    1

 Exchange-correlation functional for the present dataset will be:
  LDA: new Teter (4/93) with spin-polarized option - ixc=1
 Citation for XC functional:
  S. Goedecker, M. Teter, J. Huetter, PRB 54, 1703 (1996)

 Real(R)+Recip(G) space primitive vectors, cartesian coordinates (Bohr,Bohr^-1):
 R(1)= 10.2631100  0.0000000  0.0000000  G(1)=  0.0974364  0.0000000  0.0000000
 R(2)=  0.0000000 10.2631100  0.0000000  G(2)=  0.0000000  0.0974364  0.0000000
 R(3)=  0.0000000  0.0000000 10.2631100  G(3)=  0.0000000  0.0000000  0.0974364
 Unit cell volume ucvol=  1.0810280E+03 bohr^3
 Angles (23,13,12)=  9.00000000E+01  9.00000000E+01  9.00000000E+01 degrees

 getcut: wavevector=  0.0000  0.0000  0.0000  ngfft=  16  16  16
         ecut(hartree)=      2.990   => boxcut(ratio)=   2.00281

--- Pseudopotential description ------------------------------------------------
- pspini: atom type   1  psp file is /home/gonze/ABINIT/ABINITv7.9.3/trunk/7.9.3-private/tests/Psps_for_tests/14si.pspnc
- pspatm: opening atomic psp file    /home/gonze/ABINIT/ABINITv7.9.3/trunk/7.9.3-private/tests/Psps_for_tests/14si.pspnc
-  Troullier-Martins psp for element  Si        Thu Oct 27 17:31:21 EDT 1994
- 14.00000   4.00000    940714                znucl, zion, pspdat
    1    1    2    2      2001   0.00000      pspcod,pspxc,lmax,lloc,mmax,r2well
    0   5.907  14.692    1   2.0872718        l,e99.0,e99.9,nproj,rcpsp
   0.00000000   0.00000000   0.00000000   0.00000000     rms, ekb1, ekb2, epsatm
    1   2.617   4.181    1   2.0872718        l,e99.0,e99.9,nproj,rcpsp
   0.00000000   0.00000000   0.00000000   0.00000000     rms, ekb1, ekb2, epsatm
    2   0.000   0.000    0   2.0872718        l,e99.0,e99.9,nproj,rcpsp
   0.00000000   0.00000000   0.00000000   0.00000000     rms, ekb1, ekb2, epsatm
    1.80626423934776    0.22824404341771    1.17378968127746   rchrg,fchrg,qchrg
 pspatm: epsatm=    1.43386982
         --- l  ekb(1:nproj) -->
             0    3.287949
             1    1.849886
 pspatm: atomic psp has been read  and splines computed

   3.67070674E+02                                ecore*ucvol(ha*bohr**3)
--------------------------------------------------------------------------------

P newkpt: treating     16 bands with npw=     272 for ikpt=   1 by node    0
P newkpt: treating     16 bands with npw=     272 for ikpt=   2 by node    0
P newkpt: treating     16 bands with npw=     272 for ikpt=   3 by node    0
P newkpt: treating     16 bands with npw=     272 for ikpt=   4 by node    0

_setup2: Arith. and geom. avg. npw (full set) are     272.000     272.000

================================================================================

     iter   Etot(hartree)      deltaE(h)  residm     vres2

 ETOT  1  -35.029572665899    -3.503E+01 1.426E-02 1.877E+00

 prteigrs : about to open file t27o_EIG
 Fermi (or HOMO) energy (hartree) =   0.26853   Average Vxc (hartree)=  -0.35232
 Eigenvalues (hartree) for nkpt=   4  k points:
 kpt#   1, nband= 16, wtk=  0.25000, kpt=  0.2500  0.2500  0.2500 (reduced coord)
  -0.20469  -0.13437  -0.13431  -0.13428  -0.03285  -0.03282  -0.03273   0.05467
   0.06708   0.06718   0.06788   0.11191   0.11294   0.11377   0.16988   0.20122
 kpt#   2, nband= 16, wtk=  0.25000, kpt= -0.2500  0.2500  0.2500 (reduced coord)
  -0.20471  -0.13435  -0.13433  -0.13426  -0.03288  -0.03286  -0.03226   0.05501
   0.06720   0.06731   0.06826   0.11199   0.11238   0.11978   0.17905   0.25573
 kpt#   3, nband= 16, wtk=  0.25000, kpt=  0.2500 -0.2500  0.2500 (reduced coord)
  -0.20475  -0.13439  -0.13436  -0.13424  -0.03285  -0.03283  -0.03279   0.05479
   0.06712   0.06725   0.06750   0.11181   0.11210   0.11301   0.16838   0.19801
 kpt#   4, nband= 16, wtk=  0.25000, kpt=  0.2500  0.2500 -0.2500 (reduced coord)
  -0.20474  -0.13439  -0.13436  -0.13414  -0.03287  -0.03281  -0.03259   0.05568
   0.06711   0.06732   0.06820   0.11217   0.11348   0.11507   0.18013   0.26853
 Fermi (or HOMO) energy (eV) =   7.30719   Average Vxc (eV)=  -9.58716
 Eigenvalues (   eV  ) for nkpt=   4  k points:
 kpt#   1, nband= 16, wtk=  0.25000, kpt=  0.2500  0.2500  0.2500 (reduced coord)
  -5.56987  -3.65636  -3.65481  -3.65382  -0.89398  -0.89310  -0.89068   1.48776
   1.82537   1.82808   1.84702   3.04531   3.07335   3.09573   4.62258   5.47545
 kpt#   2, nband= 16, wtk=  0.25000, kpt= -0.2500  0.2500  0.2500 (reduced coord)
  -5.57057  -3.65588  -3.65541  -3.65341  -0.89465  -0.89417  -0.87790   1.49694
   1.82866   1.83152   1.85733   3.04748   3.05804   3.25949   4.87207   6.95865
 kpt#   3, nband= 16, wtk=  0.25000, kpt=  0.2500 -0.2500  0.2500 (reduced coord)
  -5.57142  -3.65688  -3.65605  -3.65274  -0.89387  -0.89345  -0.89224   1.49102
   1.82631   1.83004   1.83680   3.04260   3.05043   3.07505   4.58188   5.38823
 kpt#   4, nband= 16, wtk=  0.25000, kpt=  0.2500  0.2500 -0.2500 (reduced coord)
  -5.57126  -3.65692  -3.65620  -3.65023  -0.89439  -0.89282  -0.88673   1.51515
   1.82623   1.83195   1.85574   3.05242   3.08800   3.13113   4.90172   7.30719

 ETOT  2  -35.187612012259    -1.580E-01 1.842E-03 5.385E-01

 prteigrs : about to open file t27o_EIG
 Fermi (or HOMO) energy (hartree) =   0.18690   Average Vxc (hartree)=  -0.35200
 Eigenvalues (hartree) for nkpt=   4  k points:
 kpt#   1, nband= 16, wtk=  0.25000, kpt=  0.2500  0.2500  0.2500 (reduced coord)
  -0.18989  -0.12139  -0.11779  -0.11615  -0.01848  -0.01695  -0.01439   0.06997
   0.07926   0.08179   0.08359   0.12770   0.12941   0.13125   0.18338   0.18646
 kpt#   2, nband= 16, wtk=  0.25000, kpt= -0.2500  0.2500  0.2500 (reduced coord)
  -0.18983  -0.12121  -0.11826  -0.11621  -0.01785  -0.01650  -0.01419   0.06941
   0.07882   0.08123   0.08273   0.12797   0.12998   0.13105   0.18445   0.18690
 kpt#   3, nband= 16, wtk=  0.25000, kpt=  0.2500 -0.2500  0.2500 (reduced coord)
  -0.19011  -0.11917  -0.11859  -0.11650  -0.01919  -0.01815  -0.01673   0.07251
   0.08289   0.08315   0.08510   0.12685   0.12840   0.12969   0.18369   0.18416
 kpt#   4, nband= 16, wtk=  0.25000, kpt=  0.2500  0.2500 -0.2500 (reduced coord)
  -0.18988  -0.11942  -0.11885  -0.11729  -0.01813  -0.01660  -0.01442   0.07004
   0.08025   0.08099   0.08239   0.12830   0.12931   0.13072   0.18422   0.18670
 Fermi (or HOMO) energy (eV) =   5.08583   Average Vxc (eV)=  -9.57829
 Eigenvalues (   eV  ) for nkpt=   4  k points:
 kpt#   1, nband= 16, wtk=  0.25000, kpt=  0.2500  0.2500  0.2500 (reduced coord)
  -5.16711  -3.30326  -3.20523  -3.16072  -0.50291  -0.46111  -0.39155   1.90386
   2.15676   2.22550   2.27448   3.47483   3.52135   3.57161   4.98994   5.07391
 kpt#   2, nband= 16, wtk=  0.25000, kpt= -0.2500  0.2500  0.2500 (reduced coord)
  -5.16548  -3.29838  -3.21809  -3.16218  -0.48586  -0.44894  -0.38608   1.88867
   2.14471   2.21040   2.25115   3.48234   3.53705   3.56593   5.01912   5.08583
 kpt#   3, nband= 16, wtk=  0.25000, kpt=  0.2500 -0.2500  0.2500 (reduced coord)
  -5.17316  -3.24279  -3.22697  -3.17019  -0.52213  -0.49387  -0.45517   1.97321
   2.25560   2.26271   2.31562   3.45189   3.49403   3.52905   4.99853   5.01132
 kpt#   4, nband= 16, wtk=  0.25000, kpt=  0.2500  0.2500 -0.2500 (reduced coord)
  -5.16678  -3.24953  -3.23416  -3.19164  -0.49338  -0.45177  -0.39250   1.90596
   2.18374   2.20386   2.24197   3.49113   3.51861   3.55712   5.01286   5.08043

 ETOT  3  -35.191343051529    -3.731E-03 1.199E-04 2.004E-02

 prteigrs : about to open file t27o_EIG
 Fermi (or HOMO) energy (hartree) =   0.18885   Average Vxc (hartree)=  -0.35259
 Eigenvalues (hartree) for nkpt=   4  k points:
 kpt#   1, nband= 16, wtk=  0.25000, kpt=  0.2500  0.2500  0.2500 (reduced coord)
  -0.18692  -0.11551  -0.11512  -0.11450  -0.01369  -0.01354  -0.01332   0.07386
   0.08397   0.08429   0.08471   0.13242   0.13272   0.13287   0.18873   0.18879
 kpt#   2, nband= 16, wtk=  0.25000, kpt= -0.2500  0.2500  0.2500 (reduced coord)
  -0.18693  -0.11551  -0.11508  -0.11453  -0.01371  -0.01356  -0.01332   0.07389
   0.08401   0.08432   0.08473   0.13239   0.13268   0.13288   0.18874   0.18885
 kpt#   3, nband= 16, wtk=  0.25000, kpt=  0.2500 -0.2500  0.2500 (reduced coord)
  -0.18693  -0.11539  -0.11495  -0.11478  -0.01369  -0.01351  -0.01343   0.07388
   0.08414   0.08442   0.08454   0.13250   0.13262   0.13283   0.18873   0.18880
 kpt#   4, nband= 16, wtk=  0.25000, kpt=  0.2500  0.2500 -0.2500 (reduced coord)
  -0.18693  -0.11521  -0.11498  -0.11493  -0.01362  -0.01352  -0.01345   0.07389
   0.08422   0.08436   0.08447   0.13260   0.13262   0.13272   0.18873   0.18881
 Fermi (or HOMO) energy (eV) =   5.13874   Average Vxc (eV)=  -9.59446
 Eigenvalues (   eV  ) for nkpt=   4  k points:
 kpt#   1, nband= 16, wtk=  0.25000, kpt=  0.2500  0.2500  0.2500 (reduced coord)
  -5.08646  -3.14325  -3.13269  -3.11558  -0.37264  -0.36843  -0.36239   2.00974
   2.28505   2.29353   2.30521   3.60322   3.61159   3.61551   5.13554   5.13726
 kpt#   2, nband= 16, wtk=  0.25000, kpt= -0.2500  0.2500  0.2500 (reduced coord)
  -5.08651  -3.14323  -3.13136  -3.11663  -0.37318  -0.36912  -0.36243   2.01055
   2.28611   2.29441   2.30562   3.60253   3.61050   3.61577   5.13581   5.13874
 kpt#   3, nband= 16, wtk=  0.25000, kpt=  0.2500 -0.2500  0.2500 (reduced coord)
  -5.08660  -3.13987  -3.12782  -3.12320  -0.37251  -0.36770  -0.36538   2.01043
   2.28951   2.29707   2.30037   3.60545   3.60890   3.61444   5.13571   5.13753
 kpt#   4, nband= 16, wtk=  0.25000, kpt=  0.2500  0.2500 -0.2500 (reduced coord)
  -5.08652  -3.13514  -3.12884  -3.12735  -0.37054  -0.36799  -0.36600   2.01077
   2.29182   2.29566   2.29842   3.60822   3.60885   3.61146   5.13572   5.13788

 ETOT  4  -35.191549782401    -2.067E-04 1.130E-05 1.736E-03

 prteigrs : about to open file t27o_EIG
 Fermi (or HOMO) energy (hartree) =   0.18875   Average Vxc (hartree)=  -0.35266
 Eigenvalues (hartree) for nkpt=   4  k points:
 kpt#   1, nband= 16, wtk=  0.25000, kpt=  0.2500  0.2500  0.2500 (reduced coord)
  -0.18711  -0.11531  -0.11517  -0.11503  -0.01373  -0.01365  -0.01361   0.07373
   0.08400   0.08410   0.08422   0.13249   0.13256   0.13265   0.18871   0.18875
 kpt#   2, nband= 16, wtk=  0.25000, kpt= -0.2500  0.2500  0.2500 (reduced coord)
  -0.18711  -0.11530  -0.11516  -0.11504  -0.01373  -0.01366  -0.01361   0.07373
   0.08401   0.08411   0.08421   0.13249   0.13256   0.13264   0.18871   0.18875
 kpt#   3, nband= 16, wtk=  0.25000, kpt=  0.2500 -0.2500  0.2500 (reduced coord)
  -0.18711  -0.11523  -0.11517  -0.11508  -0.01374  -0.01369  -0.01364   0.07376
   0.08408   0.08413   0.08422   0.13250   0.13255   0.13261   0.18871   0.18873
 kpt#   4, nband= 16, wtk=  0.25000, kpt=  0.2500  0.2500 -0.2500 (reduced coord)
  -0.18711  -0.11522  -0.11518  -0.11511  -0.01369  -0.01366  -0.01363   0.07372
   0.08405   0.08409   0.08415   0.13255   0.13256   0.13261   0.18872   0.18875
 Fermi (or HOMO) energy (eV) =   5.13625   Average Vxc (eV)=  -9.59643
 Eigenvalues (   eV  ) for nkpt=   4  k points:
 kpt#   1, nband= 16, wtk=  0.25000, kpt=  0.2500  0.2500  0.2500 (reduced coord)
  -5.09154  -3.13761  -3.13381  -3.13020  -0.37369  -0.37154  -0.37032   2.00624
   2.28586   2.28848   2.29185   3.60526   3.60702   3.60972   5.13507   5.13614
 kpt#   2, nband= 16, wtk=  0.25000, kpt= -0.2500  0.2500  0.2500 (reduced coord)
  -5.09155  -3.13753  -3.13356  -3.13049  -0.37351  -0.37174  -0.37048   2.00634
   2.28614   2.28879   2.29158   3.60527   3.60722   3.60932   5.13514   5.13625
 kpt#   3, nband= 16, wtk=  0.25000, kpt=  0.2500 -0.2500  0.2500 (reduced coord)
  -5.09163  -3.13560  -3.13402  -3.13147  -0.37386  -0.37250  -0.37109   2.00705
   2.28803   2.28921   2.29174   3.60559   3.60685   3.60843   5.13511   5.13563
 kpt#   4, nband= 16, wtk=  0.25000, kpt=  0.2500  0.2500 -0.2500 (reduced coord)
  -5.09151  -3.13536  -3.13416  -3.13228  -0.37247  -0.37164  -0.37077   2.00594
   2.28710   2.28820   2.28989   3.60674   3.60711   3.60854   5.13539   5.13625

 ETOT  5  -35.191569516091    -1.973E-05 1.380E-06 1.917E-04

 prteigrs : about to open file t27o_EIG
 Fermi (or HOMO) energy (hartree) =   0.18882   Average Vxc (hartree)=  -0.35269
 Eigenvalues (hartree) for nkpt=   4  k points:
 kpt#   1, nband= 16, wtk=  0.25000, kpt=  0.2500  0.2500  0.2500 (reduced coord)
  -0.18707  -0.11515  -0.11511  -0.11505  -0.01363  -0.01361  -0.01359   0.07379
   0.08411   0.08414   0.08418   0.13261   0.13264   0.13265   0.18881   0.18882
 kpt#   2, nband= 16, wtk=  0.25000, kpt= -0.2500  0.2500  0.2500 (reduced coord)
  -0.18707  -0.11514  -0.11511  -0.11506  -0.01363  -0.01362  -0.01359   0.07379
   0.08411   0.08414   0.08419   0.13260   0.13264   0.13265   0.18881   0.18882
 kpt#   3, nband= 16, wtk=  0.25000, kpt=  0.2500 -0.2500  0.2500 (reduced coord)
  -0.18707  -0.11514  -0.11510  -0.11508  -0.01362  -0.01361  -0.01360   0.07378
   0.08412   0.08414   0.08416   0.13262   0.13263   0.13266   0.18882   0.18882
 kpt#   4, nband= 16, wtk=  0.25000, kpt=  0.2500  0.2500 -0.2500 (reduced coord)
  -0.18707  -0.11512  -0.11510  -0.11509  -0.01362  -0.01361  -0.01361   0.07379
   0.08413   0.08415   0.08416   0.13263   0.13263   0.13264   0.18881   0.18882
 Fermi (or HOMO) energy (eV) =   5.13811   Average Vxc (eV)=  -9.59714
 Eigenvalues (   eV  ) for nkpt=   4  k points:
 kpt#   1, nband= 16, wtk=  0.25000, kpt=  0.2500  0.2500  0.2500 (reduced coord)
  -5.09034  -3.13333  -3.13231  -3.13078  -0.37082  -0.37036  -0.36992   2.00784
   2.28873   2.28958   2.29069   3.60837   3.60923   3.60973   5.13776   5.13810
 kpt#   2, nband= 16, wtk=  0.25000, kpt= -0.2500  0.2500  0.2500 (reduced coord)
  -5.09034  -3.13325  -3.13231  -3.13082  -0.37085  -0.37053  -0.36989   2.00793
   2.28886   2.28960   2.29082   3.60834   3.60919   3.60966   5.13776   5.13805
 kpt#   3, nband= 16, wtk=  0.25000, kpt=  0.2500 -0.2500  0.2500 (reduced coord)
  -5.09033  -3.13309  -3.13195  -3.13141  -0.37067  -0.37026  -0.36999   2.00770
   2.28895   2.28969   2.29007   3.60866   3.60910   3.60975   5.13796   5.13811
 kpt#   4, nband= 16, wtk=  0.25000, kpt=  0.2500  0.2500 -0.2500 (reduced coord)
  -5.09035  -3.13256  -3.13197  -3.13183  -0.37067  -0.37038  -0.37024   2.00795
   2.28937   2.28983   2.29010   3.60893   3.60898   3.60928   5.13775   5.13802

 ETOT  6  -35.191571680067    -2.164E-06 1.328E-07 2.121E-05

 prteigrs : about to open file t27o_EIG
 Fermi (or HOMO) energy (hartree) =   0.18883   Average Vxc (hartree)=  -0.35269
 Eigenvalues (hartree) for nkpt=   4  k points:
 kpt#   1, nband= 16, wtk=  0.25000, kpt=  0.2500  0.2500  0.2500 (reduced coord)
  -0.18706  -0.11511  -0.11510  -0.11508  -0.01361  -0.01360  -0.01360   0.07379
   0.08413   0.08414   0.08416   0.13263   0.13264   0.13265   0.18883   0.18883
 kpt#   2, nband= 16, wtk=  0.25000, kpt= -0.2500  0.2500  0.2500 (reduced coord)
  -0.18706  -0.11511  -0.11509  -0.11508  -0.01361  -0.01360  -0.01360   0.07379
   0.08413   0.08414   0.08415   0.13263   0.13264   0.13265   0.18883   0.18883
 kpt#   3, nband= 16, wtk=  0.25000, kpt=  0.2500 -0.2500  0.2500 (reduced coord)
  -0.18706  -0.11510  -0.11510  -0.11509  -0.01361  -0.01361  -0.01360   0.07379
   0.08414   0.08414   0.08416   0.13264   0.13264   0.13265   0.18883   0.18883
 kpt#   4, nband= 16, wtk=  0.25000, kpt=  0.2500  0.2500 -0.2500 (reduced coord)
  -0.18706  -0.11510  -0.11510  -0.11509  -0.01361  -0.01360  -0.01360   0.07379
   0.08414   0.08414   0.08415   0.13264   0.13264   0.13265   0.18883   0.18883
 Fermi (or HOMO) energy (eV) =   5.13834   Average Vxc (eV)=  -9.59728
 Eigenvalues (   eV  ) for nkpt=   4  k points:
 kpt#   1, nband= 16, wtk=  0.25000, kpt=  0.2500  0.2500  0.2500 (reduced coord)
  -5.09025  -3.13233  -3.13192  -3.13153  -0.37038  -0.37018  -0.37005   2.00800
   2.28938   2.28965   2.29001   3.60914   3.60934   3.60961   5.13825   5.13834
 kpt#   2, nband= 16, wtk=  0.25000, kpt= -0.2500  0.2500  0.2500 (reduced coord)
  -5.09025  -3.13233  -3.13189  -3.13156  -0.37036  -0.37016  -0.37007   2.00799
   2.28937   2.28967   2.28997   3.60916   3.60935   3.60957   5.13825   5.13834
 kpt#   3, nband= 16, wtk=  0.25000, kpt=  0.2500 -0.2500  0.2500 (reduced coord)
  -5.09026  -3.13213  -3.13195  -3.13166  -0.37040  -0.37024  -0.37010   2.00805
   2.28955   2.28970   2.28998   3.60921   3.60932   3.60949   5.13826   5.13830
 kpt#   4, nband= 16, wtk=  0.25000, kpt=  0.2500  0.2500 -0.2500 (reduced coord)
  -5.09025  -3.13212  -3.13194  -3.13174  -0.37027  -0.37018  -0.37009   2.00797
   2.28949   2.28962   2.28982   3.60928   3.60934   3.60950   5.13827   5.13834

 ETOT  7  -35.191571929767    -2.497E-07 1.835E-08 2.404E-06

 prteigrs : about to open file t27o_EIG
 Fermi (or HOMO) energy (hartree) =   0.18884   Average Vxc (hartree)=  -0.35270
 Eigenvalues (hartree) for nkpt=   4  k points:
 kpt#   1, nband= 16, wtk=  0.25000, kpt=  0.2500  0.2500  0.2500 (reduced coord)
  -0.18706  -0.11509  -0.11509  -0.11508  -0.01360  -0.01360  -0.01360   0.07380
   0.08414   0.08415   0.08415   0.13265   0.13265   0.13265   0.18884   0.18884
 kpt#   2, nband= 16, wtk=  0.25000, kpt= -0.2500  0.2500  0.2500 (reduced coord)
  -0.18706  -0.11509  -0.11509  -0.11508  -0.01360  -0.01360  -0.01360   0.07380
   0.08414   0.08415   0.08415   0.13265   0.13265   0.13265   0.18884   0.18884
 kpt#   3, nband= 16, wtk=  0.25000, kpt=  0.2500 -0.2500  0.2500 (reduced coord)
  -0.18706  -0.11509  -0.11509  -0.11509  -0.01360  -0.01360  -0.01360   0.07380
   0.08415   0.08415   0.08415   0.13265   0.13265   0.13265   0.18884   0.18884
 kpt#   4, nband= 16, wtk=  0.25000, kpt=  0.2500  0.2500 -0.2500 (reduced coord)
  -0.18706  -0.11509  -0.11509  -0.11509  -0.01360  -0.01360  -0.01360   0.07380
   0.08415   0.08415   0.08415   0.13265   0.13265   0.13265   0.18884   0.18884
 Fermi (or HOMO) energy (eV) =   5.13854   Average Vxc (eV)=  -9.59734
 Eigenvalues (   eV  ) for nkpt=   4  k points:
 kpt#   1, nband= 16, wtk=  0.25000, kpt=  0.2500  0.2500  0.2500 (reduced coord)
  -5.09011  -3.13187  -3.13176  -3.13160  -0.37008  -0.37003  -0.36999   2.00816
   2.28968   2.28977   2.28989   3.60947   3.60957   3.60962   5.13852   5.13854
 kpt#   2, nband= 16, wtk=  0.25000, kpt= -0.2500  0.2500  0.2500 (reduced coord)
  -5.09011  -3.13186  -3.13176  -3.13160  -0.37008  -0.37005  -0.36998   2.00816
   2.28969   2.28977   2.28991   3.60947   3.60957   3.60961   5.13852   5.13853
 kpt#   3, nband= 16, wtk=  0.25000, kpt=  0.2500 -0.2500  0.2500 (reduced coord)
  -5.09011  -3.13185  -3.13172  -3.13166  -0.37007  -0.37003  -0.37000   2.00815
   2.28972   2.28979   2.28984   3.60949   3.60955   3.60962   5.13853   5.13854
 kpt#   4, nband= 16, wtk=  0.25000, kpt=  0.2500  0.2500 -0.2500 (reduced coord)
  -5.09011  -3.13179  -3.13173  -3.13171  -0.37006  -0.37003  -0.37002   2.00817
   2.28975   2.28979   2.28983   3.60953   3.60954   3.60957   5.13852   5.13853

 ETOT  8  -35.191571958174    -2.841E-08 1.713E-09 2.682E-07

 prteigrs : about to open file t27o_EIG
 Fermi (or HOMO) energy (hartree) =   0.18884   Average Vxc (hartree)=  -0.35270
 Eigenvalues (hartree) for nkpt=   4  k points:
 kpt#   1, nband= 16, wtk=  0.25000, kpt=  0.2500  0.2500  0.2500 (reduced coord)
  -0.18706  -0.11509  -0.11509  -0.11509  -0.01360  -0.01360  -0.01360   0.07380
   0.08415   0.08415   0.08415   0.13265   0.13265   0.13265   0.18884   0.18884
 kpt#   2, nband= 16, wtk=  0.25000, kpt= -0.2500  0.2500  0.2500 (reduced coord)
  -0.18706  -0.11509  -0.11509  -0.11509  -0.01360  -0.01360  -0.01360   0.07380
   0.08415   0.08415   0.08415   0.13265   0.13265   0.13265   0.18884   0.18884
 kpt#   3, nband= 16, wtk=  0.25000, kpt=  0.2500 -0.2500  0.2500 (reduced coord)
  -0.18706  -0.11509  -0.11509  -0.11509  -0.01360  -0.01360  -0.01360   0.07380
   0.08415   0.08415   0.08415   0.13265   0.13265   0.13265   0.18884   0.18884
 kpt#   4, nband= 16, wtk=  0.25000, kpt=  0.2500  0.2500 -0.2500 (reduced coord)
  -0.18706  -0.11509  -0.11509  -0.11509  -0.01360  -0.01360  -0.01360   0.07380
   0.08415   0.08415   0.08415   0.13265   0.13265   0.13265   0.18884   0.18884
 Fermi (or HOMO) energy (eV) =   5.13859   Average Vxc (eV)=  -9.59735
 Eigenvalues (   eV  ) for nkpt=   4  k points:
 kpt#   1, nband= 16, wtk=  0.25000, kpt=  0.2500  0.2500  0.2500 (reduced coord)
  -5.09008  -3.13174  -3.13170  -3.13166  -0.37001  -0.36999  -0.36998   2.00820
   2.28978   2.28980   2.28984   3.60958   3.60960   3.60963   5.13858   5.13859
 kpt#   2, nband= 16, wtk=  0.25000, kpt= -0.2500  0.2500  0.2500 (reduced coord)
  -5.09008  -3.13174  -3.13169  -3.13166  -0.37001  -0.36999  -0.36998   2.00819
   2.28977   2.28980   2.28984   3.60958   3.60960   3.60962   5.13858   5.13859
 kpt#   3, nband= 16, wtk=  0.25000, kpt=  0.2500 -0.2500  0.2500 (reduced coord)
  -5.09008  -3.13172  -3.13170  -3.13167  -0.37002  -0.37000  -0.36998   2.00820
   2.28979   2.28981   2.28984   3.60958   3.60959   3.60962   5.13858   5.13859
 kpt#   4, nband= 16, wtk=  0.25000, kpt=  0.2500  0.2500 -0.2500 (reduced coord)
  -5.09008  -3.13172  -3.13170  -3.13168  -0.37000  -0.36999  -0.36998   2.00819
   2.28978   2.28980   2.28982   3.60959   3.60960   3.60962   5.13859   5.13859

 ETOT  9  -35.191571961502    -3.328E-09 2.388E-10 4.141E-08

 prteigrs : about to open file t27o_EIG
 Fermi (or HOMO) energy (hartree) =   0.18884   Average Vxc (hartree)=  -0.35270
 Eigenvalues (hartree) for nkpt=   4  k points:
 kpt#   1, nband= 16, wtk=  0.25000, kpt=  0.2500  0.2500  0.2500 (reduced coord)
  -0.18706  -0.11509  -0.11509  -0.11509  -0.01360  -0.01360  -0.01360   0.07380
   0.08415   0.08415   0.08415   0.13265   0.13265   0.13265   0.18884   0.18884
 kpt#   2, nband= 16, wtk=  0.25000, kpt= -0.2500  0.2500  0.2500 (reduced coord)
  -0.18706  -0.11509  -0.11509  -0.11509  -0.01360  -0.01360  -0.01360   0.07380
   0.08415   0.08415   0.08415   0.13265   0.13265   0.13265   0.18884   0.18884
 kpt#   3, nband= 16, wtk=  0.25000, kpt=  0.2500 -0.2500  0.2500 (reduced coord)
  -0.18706  -0.11509  -0.11509  -0.11509  -0.01360  -0.01360  -0.01360   0.07380
   0.08415   0.08415   0.08415   0.13265   0.13265   0.13265   0.18884   0.18884
 kpt#   4, nband= 16, wtk=  0.25000, kpt=  0.2500  0.2500 -0.2500 (reduced coord)
  -0.18706  -0.11509  -0.11509  -0.11509  -0.01360  -0.01360  -0.01360   0.07380
   0.08415   0.08415   0.08415   0.13265   0.13265   0.13265   0.18884   0.18884
 Fermi (or HOMO) energy (eV) =   5.13862   Average Vxc (eV)=  -9.59736
 Eigenvalues (   eV  ) for nkpt=   4  k points:
 kpt#   1, nband= 16, wtk=  0.25000, kpt=  0.2500  0.2500  0.2500 (reduced coord)
  -5.09006  -3.13169  -3.13168  -3.13166  -0.36998  -0.36998  -0.36997   2.00821
   2.28980   2.28982   2.28983   3.60961   3.60962   3.60963   5.13861   5.13862
 kpt#   2, nband= 16, wtk=  0.25000, kpt= -0.2500  0.2500  0.2500 (reduced coord)
  -5.09006  -3.13169  -3.13168  -3.13166  -0.36998  -0.36998  -0.36997   2.00821
   2.28981   2.28981   2.28983   3.60961   3.60962   3.60963   5.13861   5.13862
 kpt#   3, nband= 16, wtk=  0.25000, kpt=  0.2500 -0.2500  0.2500 (reduced coord)
  -5.09006  -3.13169  -3.13167  -3.13167  -0.36998  -0.36998  -0.36997   2.00821
   2.28981   2.28982   2.28983   3.60961   3.60962   3.60963   5.13861   5.13862
 kpt#   4, nband= 16, wtk=  0.25000, kpt=  0.2500  0.2500 -0.2500 (reduced coord)
  -5.09006  -3.13168  -3.13168  -3.13167  -0.36998  -0.36998  -0.36997   2.00821
   2.28981   2.28982   2.28982   3.60962   3.60962   3.60962   5.13861   5.13861

 ETOT 10  -35.191571961931    -4.291E-10 2.338E-11 3.807E-09

 prteigrs : about to open file t27o_EIG
 Fermi (or HOMO) energy (hartree) =   0.18884   Average Vxc (hartree)=  -0.35270
 Eigenvalues (hartree) for nkpt=   4  k points:
 kpt#   1, nband= 16, wtk=  0.25000, kpt=  0.2500  0.2500  0.2500 (reduced coord)
  -0.18706  -0.11509  -0.11509  -0.11509  -0.01360  -0.01360  -0.01360   0.07380
   0.08415   0.08415   0.08415   0.13265   0.13265   0.13265   0.18884   0.18884
 kpt#   2, nband= 16, wtk=  0.25000, kpt= -0.2500  0.2500  0.2500 (reduced coord)
  -0.18706  -0.11509  -0.11509  -0.11509  -0.01360  -0.01360  -0.01360   0.07380
   0.08415   0.08415   0.08415   0.13265   0.13265   0.13265   0.18884   0.18884
 kpt#   3, nband= 16, wtk=  0.25000, kpt=  0.2500 -0.2500  0.2500 (reduced coord)
  -0.18706  -0.11509  -0.11509  -0.11509  -0.01360  -0.01360  -0.01360   0.07380
   0.08415   0.08415   0.08415   0.13265   0.13265   0.13265   0.18884   0.18884
 kpt#   4, nband= 16, wtk=  0.25000, kpt=  0.2500  0.2500 -0.2500 (reduced coord)
  -0.18706  -0.11509  -0.11509  -0.11509  -0.01360  -0.01360  -0.01360   0.07380
   0.08415   0.08415   0.08415   0.13265   0.13265   0.13265   0.18884   0.18884
 Fermi (or HOMO) energy (eV) =   5.13862   Average Vxc (eV)=  -9.59736
 Eigenvalues (   eV  ) for nkpt=   4  k points:
 kpt#   1, nband= 16, wtk=  0.25000, kpt=  0.2500  0.2500  0.2500 (reduced coord)
  -5.09006  -3.13168  -3.13167  -3.13167  -0.36997  -0.36997  -0.36997   2.00822
   2.28982   2.28982   2.28982   3.60962   3.60963   3.60963   5.13862   5.13862
 kpt#   2, nband= 16, wtk=  0.25000, kpt= -0.2500  0.2500  0.2500 (reduced coord)
  -5.09006  -3.13168  -3.13167  -3.13167  -0.36997  -0.36997  -0.36997   2.00822
   2.28982   2.28982   2.28982   3.60962   3.60963   3.60963   5.13862   5.13862
 kpt#   3, nband= 16, wtk=  0.25000, kpt=  0.2500 -0.2500  0.2500 (reduced coord)
  -5.09006  -3.13167  -3.13167  -3.13167  -0.36997  -0.36997  -0.36997   2.00822
   2.28982   2.28982   2.28982   3.60963   3.60963   3.60963   5.13862   5.13862
 kpt#   4, nband= 16, wtk=  0.25000, kpt=  0.2500  0.2500 -0.2500 (reduced coord)
  -5.09006  -3.13167  -3.13167  -3.13167  -0.36997  -0.36997  -0.36997   2.00822
   2.28982   2.28982   2.28982   3.60963   3.60963   3.60963   5.13862   5.13862

 ETOT 11  -35.191571961980    -4.867E-11 3.153E-12 3.823E-10

 prteigrs : about to open file t27o_EIG
 Fermi (or HOMO) energy (hartree) =   0.18884   Average Vxc (hartree)=  -0.35270
 Eigenvalues (hartree) for nkpt=   4  k points:
 kpt#   1, nband= 16, wtk=  0.25000, kpt=  0.2500  0.2500  0.2500 (reduced coord)
  -0.18706  -0.11509  -0.11509  -0.11509  -0.01360  -0.01360  -0.01360   0.07380
   0.08415   0.08415   0.08415   0.13265   0.13265   0.13265   0.18884   0.18884
 kpt#   2, nband= 16, wtk=  0.25000, kpt= -0.2500  0.2500  0.2500 (reduced coord)
  -0.18706  -0.11509  -0.11509  -0.11509  -0.01360  -0.01360  -0.01360   0.07380
   0.08415   0.08415   0.08415   0.13265   0.13265   0.13265   0.18884   0.18884
 kpt#   3, nband= 16, wtk=  0.25000, kpt=  0.2500 -0.2500  0.2500 (reduced coord)
  -0.18706  -0.11509  -0.11509  -0.11509  -0.01360  -0.01360  -0.01360   0.07380
   0.08415   0.08415   0.08415   0.13265   0.13265   0.13265   0.18884   0.18884
 kpt#   4, nband= 16, wtk=  0.25000, kpt=  0.2500  0.2500 -0.2500 (reduced coord)
  -0.18706  -0.11509  -0.11509  -0.11509  -0.01360  -0.01360  -0.01360   0.07380
   0.08415   0.08415   0.08415   0.13265   0.13265   0.13265   0.18884   0.18884
 Fermi (or HOMO) energy (eV) =   5.13862   Average Vxc (eV)=  -9.59736
 Eigenvalues (   eV  ) for nkpt=   4  k points:
 kpt#   1, nband= 16, wtk=  0.25000, kpt=  0.2500  0.2500  0.2500 (reduced coord)
  -5.09006  -3.13167  -3.13167  -3.13167  -0.36997  -0.36997  -0.36997   2.00822
   2.28982   2.28982   2.28982   3.60963   3.60963   3.60963   5.13862   5.13862
 kpt#   2, nband= 16, wtk=  0.25000, kpt= -0.2500  0.2500  0.2500 (reduced coord)
  -5.09006  -3.13167  -3.13167  -3.13167  -0.36997  -0.36997  -0.36997   2.00822
   2.28982   2.28982   2.28982   3.60963   3.60963   3.60963   5.13862   5.13862
 kpt#   3, nband= 16, wtk=  0.25000, kpt=  0.2500 -0.2500  0.2500 (reduced coord)
  -5.09006  -3.13167  -3.13167  -3.13167  -0.36997  -0.36997  -0.36997   2.00822
   2.28982   2.28982   2.28982   3.60963   3.60963   3.60963   5.13862   5.13862
 kpt#   4, nband= 16, wtk=  0.25000, kpt=  0.2500  0.2500 -0.2500 (reduced coord)
  -5.09006  -3.13167  -3.13167  -3.13167  -0.36997  -0.36997  -0.36997   2.00822
   2.28982   2.28982   2.28982   3.60963   3.60963   3.60963   5.13862   5.13862

 ETOT 12  -35.191571961984    -4.583E-12 3.228E-13 4.331E-11

 prteigrs : about to open file t27o_EIG
 Fermi (or HOMO) energy (hartree) =   0.18884   Average Vxc (hartree)=  -0.35270
 Eigenvalues (hartree) for nkpt=   4  k points:
 kpt#   1, nband= 16, wtk=  0.25000, kpt=  0.2500  0.2500  0.2500 (reduced coord)
  -0.18706  -0.11509  -0.11509  -0.11509  -0.01360  -0.01360  -0.01360   0.07380
   0.08415   0.08415   0.08415   0.13265   0.13265   0.13265   0.18884   0.18884
 kpt#   2, nband= 16, wtk=  0.25000, kpt= -0.2500  0.2500  0.2500 (reduced coord)
  -0.18706  -0.11509  -0.11509  -0.11509  -0.01360  -0.01360  -0.01360   0.07380
   0.08415   0.08415   0.08415   0.13265   0.13265   0.13265   0.18884   0.18884
 kpt#   3, nband= 16, wtk=  0.25000, kpt=  0.2500 -0.2500  0.2500 (reduced coord)
  -0.18706  -0.11509  -0.11509  -0.11509  -0.01360  -0.01360  -0.01360   0.07380
   0.08415   0.08415   0.08415   0.13265   0.13265   0.13265   0.18884   0.18884
 kpt#   4, nband= 16, wtk=  0.25000, kpt=  0.2500  0.2500 -0.2500 (reduced coord)
  -0.18706  -0.11509  -0.11509  -0.11509  -0.01360  -0.01360  -0.01360   0.07380
   0.08415   0.08415   0.08415   0.13265   0.13265   0.13265   0.18884   0.18884
 Fermi (or HOMO) energy (eV) =   5.13863   Average Vxc (eV)=  -9.59736
 Eigenvalues (   eV  ) for nkpt=   4  k points:
 kpt#   1, nband= 16, wtk=  0.25000, kpt=  0.2500  0.2500  0.2500 (reduced coord)
  -5.09006  -3.13167  -3.13167  -3.13167  -0.36997  -0.36997  -0.36997   2.00822
   2.28982   2.28982   2.28982   3.60963   3.60963   3.60963   5.13862   5.13863
 kpt#   2, nband= 16, wtk=  0.25000, kpt= -0.2500  0.2500  0.2500 (reduced coord)
  -5.09006  -3.13167  -3.13167  -3.13167  -0.36997  -0.36997  -0.36997   2.00822
   2.28982   2.28982   2.28982   3.60963   3.60963   3.60963   5.13863   5.13863
 kpt#   3, nband= 16, wtk=  0.25000, kpt=  0.2500 -0.2500  0.2500 (reduced coord)
  -5.09006  -3.13167  -3.13167  -3.13167  -0.36997  -0.36997  -0.36997   2.00822
   2.28982   2.28982   2.28982   3.60963   3.60963   3.60963   5.13863   5.13863
 kpt#   4, nband= 16, wtk=  0.25000, kpt=  0.2500  0.2500 -0.2500 (reduced coord)
  -5.09006  -3.13167  -3.13167  -3.13167  -0.36997  -0.36997  -0.36997   2.00822
   2.28982   2.28982   2.28982   3.60963   3.60963   3.60963   5.13863   5.13863

 ETOT 13  -35.191571961984    -1.705E-13 8.757E-14 8.246E-12

 prteigrs : about to open file t27o_EIG
 Fermi (or HOMO) energy (hartree) =   0.18884   Average Vxc (hartree)=  -0.35270
 Eigenvalues (hartree) for nkpt=   4  k points:
 kpt#   1, nband= 16, wtk=  0.25000, kpt=  0.2500  0.2500  0.2500 (reduced coord)
  -0.18706  -0.11509  -0.11509  -0.11509  -0.01360  -0.01360  -0.01360   0.07380
   0.08415   0.08415   0.08415   0.13265   0.13265   0.13265   0.18884   0.18884
 kpt#   2, nband= 16, wtk=  0.25000, kpt= -0.2500  0.2500  0.2500 (reduced coord)
  -0.18706  -0.11509  -0.11509  -0.11509  -0.01360  -0.01360  -0.01360   0.07380
   0.08415   0.08415   0.08415   0.13265   0.13265   0.13265   0.18884   0.18884
 kpt#   3, nband= 16, wtk=  0.25000, kpt=  0.2500 -0.2500  0.2500 (reduced coord)
  -0.18706  -0.11509  -0.11509  -0.11509  -0.01360  -0.01360  -0.01360   0.07380
   0.08415   0.08415   0.08415   0.13265   0.13265   0.13265   0.18884   0.18884
 kpt#   4, nband= 16, wtk=  0.25000, kpt=  0.2500  0.2500 -0.2500 (reduced coord)
  -0.18706  -0.11509  -0.11509  -0.11509  -0.01360  -0.01360  -0.01360   0.07380
   0.08415   0.08415   0.08415   0.13265   0.13265   0.13265   0.18884   0.18884
 Fermi (or HOMO) energy (eV) =   5.13863   Average Vxc (eV)=  -9.59736
 Eigenvalues (   eV  ) for nkpt=   4  k points:
 kpt#   1, nband= 16, wtk=  0.25000, kpt=  0.2500  0.2500  0.2500 (reduced coord)
  -5.09006  -3.13167  -3.13167  -3.13167  -0.36997  -0.36997  -0.36997   2.00822
   2.28982   2.28982   2.28982   3.60963   3.60963   3.60963   5.13863   5.13863
 kpt#   2, nband= 16, wtk=  0.25000, kpt= -0.2500  0.2500  0.2500 (reduced coord)
  -5.09006  -3.13167  -3.13167  -3.13167  -0.36997  -0.36997  -0.36997   2.00822
   2.28982   2.28982   2.28982   3.60963   3.60963   3.60963   5.13863   5.13863
 kpt#   3, nband= 16, wtk=  0.25000, kpt=  0.2500 -0.2500  0.2500 (reduced coord)
  -5.09006  -3.13167  -3.13167  -3.13167  -0.36997  -0.36997  -0.36997   2.00822
   2.28982   2.28982   2.28982   3.60963   3.60963   3.60963   5.13863   5.13863
 kpt#   4, nband= 16, wtk=  0.25000, kpt=  0.2500  0.2500 -0.2500 (reduced coord)
  -5.09006  -3.13167  -3.13167  -3.13167  -0.36997  -0.36997  -0.36997   2.00822
   2.28982   2.28982   2.28982   3.60963   3.60963   3.60963   5.13863   5.13863

 At SCF step   13   max residual=  8.76E-14 < tolwfr=  1.00E-13 =>converged.

 Cartesian components of stress tensor (hartree/bohr^3)
  sigma(1 1)=  3.74713190E-04  sigma(3 2)=  1.21231928E-10
  sigma(2 2)=  3.74713175E-04  sigma(3 1)= -8.17888923E-11
  sigma(3 3)=  3.74713182E-04  sigma(2 1)=  1.26951776E-10

 bonds_lgth_angles : about to open file t27o_GEO
================================================================================

 ----iterations are completed or convergence reached----

 Mean square residual over all n,k,spin=   2.0986E-14; max=  8.7568E-14
   0.2500  0.2500  0.2500    1  6.03324E-14 kpt; spin; max resid(k); each band:
  1.72E-14 1.56E-14 1.66E-14 1.78E-14 1.34E-14 1.45E-14 1.65E-14 1.88E-14
  1.29E-14 2.01E-14 2.69E-14 1.21E-14 1.63E-14 1.51E-14 6.03E-14 4.26E-14
  -0.2500  0.2500  0.2500    1  4.00195E-14 kpt; spin; max resid(k); each band:
  1.66E-14 1.59E-14 1.71E-14 1.59E-14 1.40E-14 1.51E-14 1.51E-14 2.09E-14
  2.16E-14 1.68E-14 2.30E-14 1.39E-14 1.65E-14 1.49E-14 4.00E-14 3.90E-14
   0.2500 -0.2500  0.2500    1  8.75679E-14 kpt; spin; max resid(k); each band:
  1.75E-14 1.45E-14 1.45E-14 1.78E-14 1.35E-14 1.29E-14 2.06E-14 1.78E-14
  1.36E-14 1.73E-14 2.84E-14 1.26E-14 1.58E-14 2.15E-14 4.43E-14 8.76E-14
   0.2500  0.2500 -0.2500    1  5.65791E-14 kpt; spin; max resid(k); each band:
  1.75E-14 1.61E-14 1.59E-14 1.73E-14 1.42E-14 1.37E-14 1.83E-14 1.87E-14
  1.78E-14 2.24E-14 2.32E-14 1.05E-14 1.32E-14 1.77E-14 2.67E-14 5.66E-14
 reduced coordinates (array xred) for    8 atoms
       0.000000000000      0.000000000000      0.000000000000
       0.250000000000      0.250000000000      0.250000000000
       0.000000000000      0.500000000000      0.500000000000
       0.250000000000      0.750000000000      0.750000000000
       0.500000000000      0.000000000000      0.500000000000
       0.750000000000      0.250000000000      0.750000000000
       0.500000000000      0.500000000000      0.000000000000
       0.750000000000      0.750000000000      0.250000000000
 rms dE/dt=  6.3524E-07; max dE/dt=  1.3576E-06; dE/dt below (all hartree)
    1      -0.000000509487     -0.000000377490      0.000000394350
    2      -0.000000234600      0.000000621434      0.000000651727
    3       0.000000358409      0.000000275143     -0.000000471234
    4       0.000000639147     -0.000000960996     -0.000000746642
    5      -0.000000355303     -0.000000709143     -0.000000429561
    6       0.000000526708      0.000001357568      0.000000008183
    7       0.000000347455      0.000000997111      0.000000334321
    8      -0.000000670528     -0.000001129818      0.000000241903

 cartesian coordinates (angstrom) at end:
    1      0.00000000000000     0.00000000000000     0.00000000000000
    2      1.35775097531303     1.35775097531303     1.35775097531303
    3      0.00000000000000     2.71550195062606     2.71550195062606
    4      1.35775097531303     4.07325292593909     4.07325292593909
    5      2.71550195062606     0.00000000000000     2.71550195062606
    6      4.07325292593909     1.35775097531303     4.07325292593909
    7      2.71550195062606     2.71550195062606     0.00000000000000
    8      4.07325292593909     4.07325292593909     1.35775097531303

 cartesian forces (hartree/bohr) at end:
    1      0.00000005088247     0.00000003768018    -0.00000003863051
    2      0.00000002409847    -0.00000005965133    -0.00000006370835
    3     -0.00000003368219    -0.00000002590996     0.00000004570881
    4     -0.00000006103628     0.00000009453490     0.00000007254363
    5      0.00000003585937     0.00000006999527     0.00000004164836
    6     -0.00000005008064    -0.00000013137750    -0.00000000100380
    7     -0.00000003261488    -0.00000009625589    -0.00000003278151
    8      0.00000006657369     0.00000011098433    -0.00000002377663
 frms,max,avg= 6.1889107E-08 1.3137750E-07  -1.240E-09 -8.990E-10  2.065E-10 h/b

 cartesian forces (eV/Angstrom) at end:
    1      0.00000261648138     0.00000193759261    -0.00000198646041
    2      0.00000123919321    -0.00000306739444    -0.00000327601495
    3     -0.00000173200792    -0.00000133234352     0.00000235044141
    4     -0.00000313861145     0.00000486117967     0.00000373034303
    5      0.00000184396290     0.00000359930110     0.00000214164449
    6     -0.00000257525006    -0.00000675570208    -0.00000005161732
    7     -0.00000167712458    -0.00000494967650    -0.00000168569278
    8      0.00000342335653     0.00000570704316    -0.00000122264346
 frms,max,avg= 3.1824656E-06 6.7557021E-06  -6.376E-08 -4.623E-08  1.062E-08 e/A
 length scales= 10.263110000000 10.263110000000 10.263110000000 bohr
              =  5.431003901252  5.431003901252  5.431003901252 angstroms
 prteigrs : about to open file t27o_EIG
 Fermi (or HOMO) energy (hartree) =   0.18884   Average Vxc (hartree)=  -0.35270
 Eigenvalues (hartree) for nkpt=   4  k points:
 kpt#   1, nband= 16, wtk=  0.25000, kpt=  0.2500  0.2500  0.2500 (reduced coord)
  -0.18706  -0.11509  -0.11509  -0.11509  -0.01360  -0.01360  -0.01360   0.07380
   0.08415   0.08415   0.08415   0.13265   0.13265   0.13265   0.18884   0.18884
 kpt#   2, nband= 16, wtk=  0.25000, kpt= -0.2500  0.2500  0.2500 (reduced coord)
  -0.18706  -0.11509  -0.11509  -0.11509  -0.01360  -0.01360  -0.01360   0.07380
   0.08415   0.08415   0.08415   0.13265   0.13265   0.13265   0.18884   0.18884
 kpt#   3, nband= 16, wtk=  0.25000, kpt=  0.2500 -0.2500  0.2500 (reduced coord)
  -0.18706  -0.11509  -0.11509  -0.11509  -0.01360  -0.01360  -0.01360   0.07380
   0.08415   0.08415   0.08415   0.13265   0.13265   0.13265   0.18884   0.18884
 kpt#   4, nband= 16, wtk=  0.25000, kpt=  0.2500  0.2500 -0.2500 (reduced coord)
  -0.18706  -0.11509  -0.11509  -0.11509  -0.01360  -0.01360  -0.01360   0.07380
   0.08415   0.08415   0.08415   0.13265   0.13265   0.13265   0.18884   0.18884
 Fermi (or HOMO) energy (eV) =   5.13863   Average Vxc (eV)=  -9.59736
 Eigenvalues (   eV  ) for nkpt=   4  k points:
 kpt#   1, nband= 16, wtk=  0.25000, kpt=  0.2500  0.2500  0.2500 (reduced coord)
  -5.09006  -3.13167  -3.13167  -3.13167  -0.36997  -0.36997  -0.36997   2.00822
   2.28982   2.28982   2.28982   3.60963   3.60963   3.60963   5.13863   5.13863
 kpt#   2, nband= 16, wtk=  0.25000, kpt= -0.2500  0.2500  0.2500 (reduced coord)
  -5.09006  -3.13167  -3.13167  -3.13167  -0.36997  -0.36997  -0.36997   2.00822
   2.28982   2.28982   2.28982   3.60963   3.60963   3.60963   5.13863   5.13863
 kpt#   3, nband= 16, wtk=  0.25000, kpt=  0.2500 -0.2500  0.2500 (reduced coord)
  -5.09006  -3.13167  -3.13167  -3.13167  -0.36997  -0.36997  -0.36997   2.00822
   2.28982   2.28982   2.28982   3.60963   3.60963   3.60963   5.13863   5.13863
 kpt#   4, nband= 16, wtk=  0.25000, kpt=  0.2500  0.2500 -0.2500 (reduced coord)
  -5.09006  -3.13167  -3.13167  -3.13167  -0.36997  -0.36997  -0.36997   2.00822
   2.28982   2.28982   2.28982   3.60963   3.60963   3.60963   5.13863   5.13863
 Total charge density [el/Bohr^3]
,     Maximum=    8.7993E-02  at reduced coord.    0.1250    0.8750    0.8750
,Next maximum=    8.7993E-02  at reduced coord.    0.1250    0.1250    0.1250
,     Minimum=    3.4763E-03  at reduced coord.    0.5000    0.5000    0.5000
,Next minimum=    3.4763E-03  at reduced coord.    0.2500    0.7500    0.2500
,  Integrated=    3.2000E+01

--------------------------------------------------------------------------------
 Components of total free energy (in Hartree) :

    Kinetic energy  =  1.16819744191122E+01
    Hartree energy  =  2.12455606607027E+00
    XC energy       = -1.41070087132833E+01
    Ewald energy    = -3.35916768723201E+01
    PspCore energy  =  3.39557039532177E-01
    Loc. psp. energy= -9.85492436039745E+00
    NL   psp  energy=  8.21595045930202E+00
    >>>>>>>>> Etotal= -3.51915719619843E+01

 Other information on the energy :
    Total energy(eV)= -9.57611373294367E+02 ; Band energy (Ha)=   1.0575628782E+00
--------------------------------------------------------------------------------

          ===> extra information on forces <===
 ewald contribution to reduced grads
    1      -0.000000000000     -0.000000000000     -0.000000000000
    2      -0.000000000000     -0.000000000000      0.000000000000
    3       0.000000000000     -0.000000000000     -0.000000000000
    4      -0.000000000000      0.000000000000      0.000000000000
    5      -0.000000000000      0.000000000000     -0.000000000000
    6       0.000000000000     -0.000000000000      0.000000000000
    7      -0.000000000000     -0.000000000000      0.000000000000
    8       0.000000000000      0.000000000000     -0.000000000000
 nonlocal contribution to red. grads
    1       0.000000826777     -0.000000062286     -0.000000236126
    2       0.000000473469      0.000000240087      0.000000076649
    3      -0.000000523929      0.000000250436     -0.000000060244
    4      -0.000000606077      0.000000302684      0.000000618015
    5       0.000000531102      0.000000856051     -0.000000597236
    6      -0.000000485830     -0.000000511818     -0.000000429748
    7      -0.000000853445     -0.000000348763      0.000001316373
    8       0.000000568982      0.000000461994      0.000000316975
 local psp contribution to red. grads
    1      -0.000001323559     -0.000000740024      0.000000874062
    2      -0.000000494486      0.000001045176      0.000000860180
    3       0.000000900148      0.000000479725     -0.000000659781
    4       0.000001494973     -0.000001912234     -0.000001627861
    5      -0.000000942688     -0.000002051430     -0.000000124617
    6       0.000000790758      0.000002524666      0.000000258280
    7       0.000001202367      0.000001820050     -0.000000689829
    8      -0.000001453123     -0.000002224143      0.000000134207
 core charge xc contribution to reduced grads
    1      -0.000000059631     -0.000000008089      0.000000016753
    2      -0.000000030070     -0.000000007891      0.000000001587
    3       0.000000039655     -0.000000008781     -0.000000004804
    4       0.000000048266     -0.000000030777     -0.000000046736
    5      -0.000000034525     -0.000000055749      0.000000031827
    6       0.000000040959      0.000000055728      0.000000026060
    7       0.000000053505      0.000000038368     -0.000000071563
    8      -0.000000050814     -0.000000047927     -0.000000011726
 residual contribution to red. grads
    1       0.000000046926      0.000000432910     -0.000000260340
    2      -0.000000183513     -0.000000655938     -0.000000286689
    3      -0.000000057465     -0.000000446237      0.000000253595
    4      -0.000000298014      0.000000679331      0.000000309940
    5       0.000000090807      0.000000541985      0.000000260466
    6       0.000000180821     -0.000000711008      0.000000153591
    7      -0.000000054972     -0.000000512544     -0.000000220659
    8       0.000000264427      0.000000680258     -0.000000197553

 Cartesian components of stress tensor (hartree/bohr^3)
  sigma(1 1)=  3.74713190E-04  sigma(3 2)=  1.21231928E-10
  sigma(2 2)=  3.74713175E-04  sigma(3 1)= -8.17888923E-11
  sigma(3 3)=  3.74713182E-04  sigma(2 1)=  1.26951776E-10

-Cartesian components of stress tensor (GPa)         [Pressure= -1.1024E+01 GPa]
- sigma(1 1)=  1.10244408E+01  sigma(3 2)=  3.56676586E-06
- sigma(2 2)=  1.10244404E+01  sigma(3 1)= -2.40631188E-06
- sigma(3 3)=  1.10244406E+01  sigma(2 1)=  3.73504958E-06

== END DATASET(S) ==============================================================
================================================================================
  
 -outvars: echo values of variables after computation  --------
            acell      1.0263110000E+01  1.0263110000E+01  1.0263110000E+01 Bohr
              amu      2.80855000E+01
           diemac      1.20000000E+01
             ecut      2.99000000E+00 Hartree
           enunit           2
           etotal     -3.5191571962E+01
            fcart      5.0882465961E-08  3.7680180214E-08 -3.8630507730E-08
                       2.4098473086E-08 -5.9651329571E-08 -6.3708352924E-08
                      -3.3682194224E-08 -2.5909958375E-08  4.5708811742E-08
                      -6.1036280118E-08  9.4534901255E-08  7.2543628063E-08
                       3.5859372071E-08  6.9995268088E-08  4.1648357780E-08
                      -5.0080644414E-08 -1.3137749943E-07 -1.0037971488E-09
                      -3.2614883100E-08 -9.6255890741E-08 -3.2781507984E-08
                       6.6573690737E-08  1.1098432856E-07 -2.3776631799E-08
-          fftalg         112
            intxc           1
             iscf           3
              kpt      1.00000000E+00  1.00000000E+00  1.00000000E+00
                      -1.00000000E+00  1.00000000E+00  1.00000000E+00
                       1.00000000E+00 -1.00000000E+00  1.00000000E+00
                       1.00000000E+00  1.00000000E+00 -1.00000000E+00
           kptnrm      4.00000000E+00
           kptopt           0
P           mkmem           4
            natom           8
            nband          16
            ngfft          16      16      16
             nkpt           4
            nline           2
            nstep          15
             nsym           1
           ntypat           1
              occ      2.000000  2.000000  2.000000  2.000000  2.000000  2.000000
                       2.000000  2.000000  2.000000  2.000000  2.000000  2.000000
                       2.000000  2.000000  2.000000  2.000000
           occopt           0
           ortalg           4
           prtgeo           4
           prtpot           1
           prtvol          10
          spgroup           1
           strten      3.7471319007E-04  3.7471317482E-04  3.7471318151E-04
                       1.2123192781E-10 -8.1788892258E-11  1.2695177611E-10
           timopt          -1
           tolwfr      1.00000000E-13
            typat      1  1  1  1  1  1  1  1
              wtk        0.25000    0.25000    0.25000    0.25000
           xangst      0.0000000000E+00  0.0000000000E+00  0.0000000000E+00
                       1.3577509753E+00  1.3577509753E+00  1.3577509753E+00
                       0.0000000000E+00  2.7155019506E+00  2.7155019506E+00
                       1.3577509753E+00  4.0732529259E+00  4.0732529259E+00
                       2.7155019506E+00  0.0000000000E+00  2.7155019506E+00
                       4.0732529259E+00  1.3577509753E+00  4.0732529259E+00
                       2.7155019506E+00  2.7155019506E+00  0.0000000000E+00
                       4.0732529259E+00  4.0732529259E+00  1.3577509753E+00
            xcart      0.0000000000E+00  0.0000000000E+00  0.0000000000E+00
                       2.5657775000E+00  2.5657775000E+00  2.5657775000E+00
                       0.0000000000E+00  5.1315550000E+00  5.1315550000E+00
                       2.5657775000E+00  7.6973325000E+00  7.6973325000E+00
                       5.1315550000E+00  0.0000000000E+00  5.1315550000E+00
                       7.6973325000E+00  2.5657775000E+00  7.6973325000E+00
                       5.1315550000E+00  5.1315550000E+00  0.0000000000E+00
                       7.6973325000E+00  7.6973325000E+00  2.5657775000E+00
             xred      0.0000000000E+00  0.0000000000E+00  0.0000000000E+00
                       2.5000000000E-01  2.5000000000E-01  2.5000000000E-01
                       0.0000000000E+00  5.0000000000E-01  5.0000000000E-01
                       2.5000000000E-01  7.5000000000E-01  7.5000000000E-01
                       5.0000000000E-01  0.0000000000E+00  5.0000000000E-01
                       7.5000000000E-01  2.5000000000E-01  7.5000000000E-01
                       5.0000000000E-01  5.0000000000E-01  0.0000000000E+00
                       7.5000000000E-01  7.5000000000E-01  2.5000000000E-01
            znucl       14.00000

================================================================================

 Test the timer : 
  a combined call timab(*,1,tsec) + timab(*,2,tsec) is 
- CPU time =    7.8105E-07 sec,    Wall time =    7.8147E-07 sec

- Total cpu        time (s,m,h):          1.1        0.02      0.000
- Total wall clock time (s,m,h):          1.1        0.02      0.000
-
- For major independent code sections, cpu and wall times (sec),
-  as well as % of the time and number of calls for node 0-
-<BEGIN_TIMER mpi_nprocs = 1, omp_nthreads = 1, mpi_rank = 0>
- cpu_time =            1.1, wall_time =            1.1
-
- routine                        cpu     %       wall     %      number of calls  Gflops 
-                                                                  (-1=no count)
- fourwf%(pot)                   0.205  18.8      0.204  18.8           2590      -1.00    
- timing timab                   0.152  14.0      0.152  14.0             14      -1.00    
- pspini                         0.137  12.6      0.137  12.6              1      -1.00    
- invars2                        0.119  10.9      0.119  10.9              1      -1.00    
- nonlop(apply)                  0.118  10.8      0.117  10.7           2590      -1.00    
- projbd                         0.069   6.3      0.065   5.9           3260      -1.00    
- vtowfk(ssdiag)                 0.039   3.6      0.040   3.7             -1      -1.00    
- fourwf%(den)                   0.037   3.4      0.038   3.5            832      -1.00    
- abinit(2)                      0.028   2.6      0.028   2.6              1      -1.00    
- ewald                          0.012   1.1      0.012   1.1              1      -1.00    
- getghc-other                   0.011   1.0      0.010   0.9             -1      -1.00    
- scfcv-scprqt                   0.011   1.0      0.011   1.0             13      -1.00    
- stress                         0.008   0.7      0.008   0.8              1      -1.00    
- xc:pot/=fourdp                 0.008   0.7      0.010   0.9             14      -1.00    
- vtowfk(contrib)                0.007   0.6      0.008   0.7             52      -1.00    
- ewald2 (+vdw_dftd2)            0.007   0.6      0.007   0.6              1      -1.00    
- nonlop(forstr)                 0.007   0.6      0.007   0.7             64      -1.00    
- fourdp                         0.005   0.5      0.006   0.5            109      -1.00    
- mkcore                         0.003   0.3      0.002   0.2              3      -1.00    
- newkpt(excl. rwwf   )          0.002   0.2      0.002   0.2             -1      -1.00    
- forces                         0.002   0.2      0.002   0.2              1      -1.00    
- vtowfk  (1)                    0.001   0.1      0.001   0.1             52      -1.00    
- kpgsph                         0.000   0.0      0.000   0.0              8      -1.00    
- status                         0.000   0.0      0.000   0.0             34      -1.00    
- vtowfk3(contrib)               0.000   0.0      0.000   0.0             -1      -1.00    
- cgwf3-O(npw)                   0.000   0.0      0.000   0.0             -1      -1.00    
- inwffil(excl. calls)           0.000   0.0      0.000   0.0              1      -1.00    
- vtorho(MPI)                    0.000   0.0      0.000   0.0             13      -1.00    
- others (77)                    0.000   0.0      0.000   0.0             -1      -1.00    
-<END_TIMER>
-
- subtotal                       0.988  90.8      0.986  90.6

- For major independent code sections, cpu and wall times (sec),
- as well as % of the total time and number of calls 

-<BEGIN_TIMER mpi_nprocs = 1, omp_nthreads = 1, mpi_rank = world>
- cpu_time =           1.1, wall_time =           1.1
-
- routine                         cpu     %       wall     %      number of calls Gflops 
-                                                                  (-1=no count)
- fourwf%(pot)                   0.205  18.8      0.204  18.8           2590      -1.00    
- timing timab                   0.152  14.0      0.152  14.0             14      -1.00    
- pspini                         0.137  12.6      0.137  12.6              1      -1.00    
- invars2                        0.119  10.9      0.119  10.9              1      -1.00    
- nonlop(apply)                  0.118  10.8      0.117  10.7           2590      -1.00    
- projbd                         0.069   6.3      0.065   5.9           3260      -1.00    
- vtowfk(ssdiag)                 0.039   3.6      0.040   3.7             -1      -1.00    
- fourwf%(den)                   0.037   3.4      0.038   3.5            832      -1.00    
- abinit(2)                      0.028   2.6      0.028   2.6              1      -1.00    
- ewald                          0.012   1.1      0.012   1.1              1      -1.00    
- getghc-other                   0.011   1.0      0.010   0.9             -1      -1.00    
- scfcv-scprqt                   0.011   1.0      0.011   1.0             13      -1.00    
- stress                         0.008   0.7      0.008   0.8              1      -1.00    
- xc:pot/=fourdp                 0.008   0.7      0.010   0.9             14      -1.00    
- vtowfk(contrib)                0.007   0.6      0.008   0.7             52      -1.00    
- ewald2 (+vdw_dftd2)            0.007   0.6      0.007   0.6              1      -1.00    
- nonlop(forstr)                 0.007   0.6      0.007   0.7             64      -1.00    
- fourdp                         0.005   0.5      0.006   0.5            109      -1.00    
- mkcore                         0.003   0.3      0.002   0.2              3      -1.00    
- newkpt(excl. rwwf   )          0.002   0.2      0.002   0.2             -1      -1.00    
- forces                         0.002   0.2      0.002   0.2              1      -1.00    
- vtowfk  (1)                    0.001   0.1      0.001   0.1             52      -1.00    
- kpgsph                         0.000   0.0      0.000   0.0              8      -1.00    
- status                         0.000   0.0      0.000   0.0             34      -1.00    
- vtowfk3(contrib)               0.000   0.0      0.000   0.0             -1      -1.00    
- cgwf3-O(npw)                   0.000   0.0      0.000   0.0             -1      -1.00    
- inwffil(excl. calls)           0.000   0.0      0.000   0.0              1      -1.00    
- vtorho(MPI)                    0.000   0.0      0.000   0.0             13      -1.00    
- others (77)                    0.000   0.0      0.000   0.0             -1      -1.00    
-<END_TIMER>

- subtotal                       0.988  90.8      0.986  90.6

 Partitioning of abinit
- abinit                         1.088 100.0      1.088 100.0              1
 
- abinit(1)                      0.010   0.9      0.010   0.9              1
- abinit(2)                      0.028   2.6      0.028   2.6              1
- indefo+macroin+invars2m        0.119  10.9      0.119  11.0              1
- abinit(4)                      0.011   1.0      0.011   1.0              1
- abinit(5)                      0.007   0.6      0.007   0.6              1
- driver                         0.758  69.7      0.758  69.6              1
- abinit(6)                      0.003   0.3      0.003   0.3              1
- timing timab                   0.152  14.0      0.152  14.0             14

- subtotal                       1.088 100.0      1.088 100.0

 Partitioning of driver
- driver                         0.758  69.7      0.758  69.6              1
 
- gstateimg                      0.758  69.7      0.758  69.6              1

- subtotal                       0.758  69.7      0.758  69.6

 Partitioning of gstateimg+gstate
- gstateimg                      0.758  69.7      0.758  69.6              1
 
- gstate->kpgsph                 0.002   0.2      0.002   0.2              2
- gstate(pspini)                 0.137  12.6      0.137  12.6              1
- gstate  (2)                    0.001   0.1      0.001   0.0              1
- gstate(...scfcv)               0.615  56.5      0.615  56.5              1
- gstate  (3)                    0.003   0.3      0.003   0.3              1

- subtotal                       0.758  69.7      0.758  69.6

 Partitioning of scfcv
- scfcv                          0.615  56.5      0.615  56.5              1
 
- scfcv(iniloop, setvtr  )       0.014   1.3      0.014   1.3             13
- scfcv(vtorho(f))               0.552  50.7      0.552  50.7             13
- scfcv-scprqt                   0.011   1.0      0.011   1.0             13
- scfcv(rhotov)                  0.014   1.3      0.013   1.2             13
- scfcv(mix pot)                 0.002   0.2      0.003   0.3             12
- scfcv(afterscfloop)            0.018   1.7      0.019   1.7              1
- scfcv(outscfcv)                0.004   0.4      0.003   0.3              1

- subtotal                       0.615  56.5      0.615  56.5

 Partitioning of rhotov
- rhotov                         0.014   1.3      0.013   1.2             13
 
- rhotov(rhohxc)                 0.013   1.2      0.013   1.2             13
- rhotov(other)                  0.001   0.1      0.001   0.1             13

- subtotal                       0.014   1.3      0.013   1.2

 Partitioning of vtorho
- vtorho                         0.552  50.7      0.552  50.7             13
 
- vtorho(bef. spin loop)         0.000   0.0      0.000   0.0             13
- vtorho(bef. vtowfk)            0.006   0.6      0.004   0.3             52
- vtowfk                         0.543  49.9      0.545  50.1             52
- vtorho(aft. vtowfk)            0.000   0.0      0.000   0.0             52
- vtorho(mkrho 2)                0.001   0.1      0.002   0.2             26
- (other)                        0.001   0.1      0.000   0.0             -1

- subtotal                       0.552  50.7      0.552  50.7

 Partitioning of vtowfk
- vtowfk                         0.543  49.9      0.545  50.1             52
 
- vtowfk  (1)                    0.001   0.1      0.001   0.1             52
- cgwf                           0.459  42.2      0.458  42.1             60
- vtowfk(subdiago)               0.017   1.6      0.016   1.5             60
- vtowfk(pw_orthon)              0.015   1.4      0.018   1.7             60
- vtowfk(2)                      0.007   0.6      0.006   0.5             -1
- fourwf%vtowfk                  0.037   3.4      0.038   3.5            832
- vtowfk(nonlocalpart)           0.000   0.0      0.001   0.1             52
- vtowfk(3)                      0.007   0.6      0.007   0.7             -1

- subtotal                       0.543  49.9      0.545  50.1

 Partitioning of cgwf
- cgwf                           0.459  42.2      0.458  42.1             60
 
- getghc%cgwf                    0.334  30.7      0.331  30.4           2590
- cgwf-O(npw)                    0.056   5.1      0.062   5.7             -1
- projbd%cgwf                    0.069   6.3      0.065   5.9           3260

- subtotal                       0.459  42.2      0.458  42.1

 Partitioning of getghc
- getghc                         0.334  30.7      0.331  30.4           2590
 
- fourwf%getghc                  0.205  18.8      0.204  18.8           2590
- nonlop%getghc                  0.118  10.8      0.117  10.7           2590
- getghc-other                   0.011   1.0      0.010   0.9             -1

- subtotal                       0.334  30.7      0.331  30.4

 Partitioning of fourwf (upwards partitioning)
- fourwf                         0.242  22.2      0.242  22.3           3422
 
- fourwf%getghc                  0.205  18.8      0.204  18.8           2590
- fourwf%vtowfk                  0.037   3.4      0.038   3.5            832

- subtotal                       0.242  22.2      0.242  22.3

 Partitioning of inwffil
- inwffil                        0.002   0.2      0.002   0.2              1
 
- inwffil(call newkpt)           0.002   0.2      0.002   0.2              1

- subtotal                       0.002   0.2      0.002   0.2

 Partitioning of newkpt
- newkpt                         0.002   0.2      0.002   0.2              1
 
- newkpt(call wfconv)            0.002   0.2      0.002   0.2              4

- subtotal                       0.002   0.2      0.002   0.2

 Partitioning of newvtr
- newvtr                         0.002   0.2      0.003   0.3             12
 
- newvtr(call prcref_PMA)        0.001   0.1      0.002   0.2             12
- newvtr(aft. prcref_PMA)        0.000   0.0      0.001   0.1             12

- subtotal                       0.002   0.2      0.003   0.3

 Partitioning of  fourdp (upwards partitioning)
- fourdp                         0.005   0.5      0.006   0.5            109
 
- fourdp%(other)                 0.005   0.5      0.006   0.5            109

- subtotal                       0.005   0.5      0.006   0.5

 Partitioning of afterscfloop
- afterscfloop                   0.018   1.7      0.019   1.7              1
 
- afterscfloop(forstr)           0.018   1.7      0.018   1.7              1

- subtotal                       0.018   1.7      0.019   1.7

 Partitioning of forstr
- forstr                         0.018   1.7      0.018   1.7              1
 
- forstr(forstrnps)              0.008   0.7      0.008   0.7              1
- forstr(forces)                 0.002   0.2      0.002   0.2              1
- forstr(stress)                 0.008   0.7      0.008   0.8              1

- subtotal                       0.018   1.7      0.018   1.7

 Partitioning of forstrnps
- forstrnps                      0.008   0.7      0.008   0.7              1
 
- forstrnps(bef.loop band)       0.000   0.0      0.000   0.0              4
- forstrnps(nonlop+prep_ba       0.007   0.6      0.007   0.7             64

- subtotal                       0.008   0.7      0.008   0.7

 Partitioning of outscfcv
- outscfcv                       0.004   0.4      0.003   0.3              1
 
- outscfcv([PAW]prtden)          0.001   0.1      0.000   0.0              1
- outscfcv(prt geo misc.)        0.002   0.2      0.002   0.2              1

- subtotal                       0.003   0.3      0.002   0.2
-
-Synchronisation (=leave_test) and MPI calls 
- communic.MPI                   0.001   0.1      0.004   0.4          10349
-
- forstrnps:synchr               0.000   0.0      0.000   0.0              2
-
- subtotal                       0.000   0.0      0.000   0.0

 Additional information
- timana(1)                      0.000   0.0      0.000   0.0              1
- total timab                    0.171  15.7      0.171  15.7         218575
- fourwf                         0.242  22.2      0.242  22.3           3422
- mklocl(2)                      0.000   0.0      0.000   0.0              1
- status                         0.000   0.0      0.000   0.0             34
- nonlop(forstr)                 0.007   0.6      0.007   0.7             64
- nonlop(total)                  0.125  11.5      0.124  11.4           2654
- xc:fourdp                      0.004   0.4      0.003   0.3             56


 Detailed analysis of some time consuming routines 
                                  tcpu    ncalls  tcpu/ncalls    ndata tcpu/ncalls/ndata
                                 (sec)                (msec)              (microsec)
- fourwf%(pot)                   0.205      2590       0.079      8192       0.010
- fourwf%(den)                   0.037       832       0.044      4096       0.011
- fourdp                         0.005       109       0.046      4096       0.011
- nonlop(apply)                  0.118      2590       0.046      2176       0.021
- nonlop(forces)                 0.000         0
- nonlop(forstr)                 0.007        64       0.109      2176       0.050
- projbd                         0.069      3260       0.021      4352       0.005
- xc:pot/=fourdp                 0.008        14       0.571      4096       0.139

================================================================================

 Suggested references for the acknowledgment of ABINIT usage.

 The users of ABINIT have little formal obligations with respect to the ABINIT group
 (those specified in the GNU General Public License, http://www.gnu.org/copyleft/gpl.txt).
 However, it is common practice in the scientific literature,
 to acknowledge the efforts of people that have made the research possible.
 In this spirit, please find below suggested citations of work written by ABINIT developers,
 corresponding to implementations inside of ABINIT that you have used in the present run.
 Note also that it will be of great value to readers of publications presenting these results,
 to read papers enabling them to understand the theoretical formalism and details
 of the ABINIT implementation.
 For information on why they are suggested, see also http://www.abinit.org/about/?text=acknowledgments.

 [1] ABINIT : First-principles approach of materials and nanosystem properties.
 X. Gonze, B. Amadon, P.-M. Anglade, J.-M. Beuken, F. Bottin, P. Boulanger, F. Bruneval,
 D. Caliste, R. Caracas, M. Cote, T. Deutsch, L. Genovese, Ph. Ghosez, M. Giantomassi
 S. Goedecker, D.R. Hamann, P. Hermet, F. Jollet, G. Jomard, S. Leroux, M. Mancini, S. Mazevet,
 M.J.T. Oliveira, G. Onida, Y. Pouillon, T. Rangel, G.-M. Rignanese, D. Sangalli, R. Shaltaf,
 M. Torrent, M.J. Verstraete, G. Zerah, J.W. Zwanziger
 Computer Phys. Comm. 180, 2582-2615 (2009).
 Comment : the third generic paper describing the ABINIT project.
 Note that a version of this paper, that is not formatted for Computer Phys. Comm. 
 is available at http://www.abinit.org/about/ABINIT_CPC_v10.pdf .
 The licence allows the authors to put it on the Web.

 [2] A brief introduction to the ABINIT software package.
 X. Gonze, G.-M. Rignanese, M. Verstraete, J.-M. Beuken, Y. Pouillon, R. Caracas, F. Jollet,
 M. Torrent, G. Zerah, M. Mikami, Ph. Ghosez, M. Veithen, J.-Y. Raty, V. Olevano, F. Bruneval,
 L. Reining, R. Godby, G. Onida, D.R. Hamann, and D.C. Allan.
 Z. Kristallogr. 220, 558-562 (2005).
 Comment : the second generic paper describing the ABINIT project. Note that this paper
 should be cited especially if you are using the GW part of ABINIT, as several authors
 of this part are not in the list of authors of the first or third paper.
 The .pdf of the latter paper is available at http://www.abinit.org/about/zfk_0505-06_558-562.pdf.
 Note that it should not redistributed (Copyright by Oldenburg Wissenshaftverlag,
 the licence allows the authors to put it on the Web).


 And optionally :

 [3] First-principles computation of material properties : the ABINIT software project. 
 X. Gonze, J.-M. Beuken, R. Caracas, F. Detraux, M. Fuchs, G.-M. Rignanese, L. Sindic,
 M. Verstraete, G. Zerah, F. Jollet, M. Torrent, A. Roy, M. Mikami, Ph. Ghosez, J.-Y. Raty, D.C. Allan.
 Computational Materials Science 25, 478-492 (2002). http://dx.doi.org/10.1016/S0927-0256(02)00325-7
 Comment : the original paper describing the ABINIT project.

 [4] Fast radix 2, 3, 4 and 5 kernels for Fast Fourier Transformations
 on computers with overlapping multiply-add instructions.
 S. Goedecker, SIAM J. on Scientific Computing 18, 1605 (1997).
-
- Proc.   0 individual time (sec): cpu=          1.1  wall=          1.1

================================================================================

 Calculation completed.
.Delivered    6 WARNINGs and   3 COMMENTs to log file.
+Overall time at end (sec) : cpu=          1.1  wall=          1.1
