
.Version 7.10.2 of ABINIT 
.(MPI version, prepared for a x86_64_linux_gnu4.7 computer) 

.Copyright (C) 1998-2014 ABINIT group . 
 ABINIT comes with ABSOLUTELY NO WARRANTY.
 It is free software, and you are welcome to redistribute it
 under certain conditions (GNU General Public License,
 see ~abinit/COPYING or http://www.gnu.org/copyleft/gpl.txt).

 ABINIT is a project of the Universite Catholique de Louvain,
 Corning Inc. and other collaborators, see ~abinit/doc/developers/contributors.txt .
 Please read ~abinit/doc/users/acknowledgments.html for suggested
 acknowledgments of the ABINIT effort.
 For more information, see http://www.abinit.org .

.Starting date : Tue 11 Nov 2014.
- ( at 12h00 )
  
- input  file    -> t24.in
- output file    -> t24_MPI4.out
- root for input  files -> t24_MPI4i
- root for output files -> t24_MPI4o


 Symmetries : space group R-3 m (#166); Bravais hR (rhombohedral)
================================================================================
 Values of the parameters that define the memory need of the present run
   intxc =         0  ionmov =         3    iscf =        17 xclevel =         1
  lmnmax =         8   lnmax =         4   mband =        12  mffmem =         1
P  mgfft =        18   mkmem =        15 mpssoang=         2     mpw =       163
  mqgrid =      3001   natom =         2    nfft =      2916    nkpt =        30
  nloalg =         4  nspden =         1 nspinor =         1  nsppol =         1
    nsym =        12  n1xccc =         1  ntypat =         1  occopt =         7
Pmy_natom=         1
 PAW method is used; the additional fine FFT grid is defined by:
   mgfftf=        36    nfftf =     23328
================================================================================
P This job should need less than                       8.877 Mbytes of memory.
  Rough estimation (10% accuracy) of disk space for files :
_ WF disk file :      1.793 Mbytes ; DEN or POT disk file :      0.180 Mbytes.
================================================================================

--------------------------------------------------------------------------------
------------- Echo of variables that govern the present computation ------------
--------------------------------------------------------------------------------
-
- outvars: echo of selected default values                                      
-   accesswff0 =  0 , fftalg0 =112 , wfoptalg0 = 10
-
- outvars: echo of global parameters not present in the input file              
-  max_nthreads =    0
-
 -outvars: echo values of preprocessed input variables --------
        accesswff           1
            acell      7.0000000000E+00  7.0000000000E+00  7.0000000000E+00 Bohr
              amu      1.20110000E+01
           diemac      1.20000000E+01
          dilatmx      1.10000000E+00
             ecut      1.50000000E+01 Hartree
           ecutsm      5.00000000E-01 Hartree
           enunit           2
-          fftalg         401
      fft_opt_lob           2
           ionmov           3
           iprcch           6
              kpt     -1.25000000E-01 -2.50000000E-01  0.00000000E+00
                      -1.25000000E-01 -1.25000000E-01  1.25000000E-01
                      -1.25000000E-01  5.00000000E-01  0.00000000E+00
                      -2.50000000E-01 -3.75000000E-01  0.00000000E+00
                      -1.25000000E-01 -3.75000000E-01  1.25000000E-01
                      -2.50000000E-01 -2.50000000E-01  1.25000000E-01
                      -1.25000000E-01 -2.50000000E-01  2.50000000E-01
                      -1.25000000E-01 -1.25000000E-01  3.75000000E-01
                      -1.25000000E-01  2.50000000E-01  0.00000000E+00
                      -2.50000000E-01  3.75000000E-01  0.00000000E+00
                      -3.75000000E-01  5.00000000E-01  0.00000000E+00
                      -2.50000000E-01  5.00000000E-01  1.25000000E-01
                      -3.75000000E-01 -3.75000000E-01  1.25000000E-01
                      -2.50000000E-01 -3.75000000E-01  2.50000000E-01
                      -1.25000000E-01 -3.75000000E-01  3.75000000E-01
                      -2.50000000E-01 -2.50000000E-01  3.75000000E-01
                      -1.25000000E-01 -2.50000000E-01  5.00000000E-01
                      -1.25000000E-01 -1.25000000E-01 -3.75000000E-01
                      -1.25000000E-01  0.00000000E+00  0.00000000E+00
                       5.00000000E-01  5.00000000E-01  1.25000000E-01
                      -3.75000000E-01  5.00000000E-01  2.50000000E-01
                      -3.75000000E-01 -3.75000000E-01  3.75000000E-01
                      -2.50000000E-01 -3.75000000E-01  5.00000000E-01
                      -1.25000000E-01 -3.75000000E-01 -3.75000000E-01
                      -2.50000000E-01 -2.50000000E-01 -3.75000000E-01
                      -1.25000000E-01 -2.50000000E-01 -2.50000000E-01
                      -1.25000000E-01 -1.25000000E-01 -1.25000000E-01
                      -3.75000000E-01  0.00000000E+00  0.00000000E+00
                       5.00000000E-01  5.00000000E-01  3.75000000E-01
                      -3.75000000E-01 -3.75000000E-01 -3.75000000E-01
         kptrlatt        4   -4    4     -4    4    4     -4   -4    4
          kptrlen      2.80000000E+01
P           mkmem          15
            natom           2
            nband          12
            ngfft          18      18      18
          ngfftdg          36      36      36
             nkpt          30
-           npfft           2
-           npkpt           2
            nstep           5
             nsym          12
            ntime           3
           ntypat           1
              occ      2.000000  2.000000  2.000000  2.000000  0.000000  0.000000
                       0.000000  0.000000  0.000000  0.000000  0.000000  0.000000
                       2.000000  2.000000  2.000000  2.000000  0.000000  0.000000
                       0.000000  0.000000  0.000000  0.000000  0.000000  0.000000
                       2.000000  2.000000  2.000000  2.000000  0.000000  0.000000
                       0.000000  0.000000  0.000000  0.000000  0.000000  0.000000
                       2.000000  2.000000  2.000000  2.000000  0.000000  0.000000
                       0.000000  0.000000  0.000000  0.000000  0.000000  0.000000
                       2.000000  2.000000  2.000000  2.000000  0.000000  0.000000
                       0.000000  0.000000  0.000000  0.000000  0.000000  0.000000
                       2.000000  2.000000  2.000000  2.000000  0.000000  0.000000
                       0.000000  0.000000  0.000000  0.000000  0.000000  0.000000
                       2.000000  2.000000  2.000000  2.000000  0.000000  0.000000
                       0.000000  0.000000  0.000000  0.000000  0.000000  0.000000
                       2.000000  2.000000  2.000000  2.000000  0.000000  0.000000
                       0.000000  0.000000  0.000000  0.000000  0.000000  0.000000
                       2.000000  2.000000  2.000000  2.000000  0.000000  0.000000
                       0.000000  0.000000  0.000000  0.000000  0.000000  0.000000
                       2.000000  2.000000  2.000000  2.000000  0.000000  0.000000
                       0.000000  0.000000  0.000000  0.000000  0.000000  0.000000
                       2.000000  2.000000  2.000000  2.000000  0.000000  0.000000
                       0.000000  0.000000  0.000000  0.000000  0.000000  0.000000
                       2.000000  2.000000  2.000000  2.000000  0.000000  0.000000
                       0.000000  0.000000  0.000000  0.000000  0.000000  0.000000
                       2.000000  2.000000  2.000000  2.000000  0.000000  0.000000
                       0.000000  0.000000  0.000000  0.000000  0.000000  0.000000
                       2.000000  2.000000  2.000000  2.000000  0.000000  0.000000
                       0.000000  0.000000  0.000000  0.000000  0.000000  0.000000
                       2.000000  2.000000  2.000000  2.000000  0.000000  0.000000
                       0.000000  0.000000  0.000000  0.000000  0.000000  0.000000
                       2.000000  2.000000  2.000000  2.000000  0.000000  0.000000
                       0.000000  0.000000  0.000000  0.000000  0.000000  0.000000
                       2.000000  2.000000  2.000000  2.000000  0.000000  0.000000
                       0.000000  0.000000  0.000000  0.000000  0.000000  0.000000
                       2.000000  2.000000  2.000000  2.000000  0.000000  0.000000
                       0.000000  0.000000  0.000000  0.000000  0.000000  0.000000
                       2.000000  2.000000  2.000000  2.000000  0.000000  0.000000
                       0.000000  0.000000  0.000000  0.000000  0.000000  0.000000
                       2.000000  2.000000  2.000000  2.000000  0.000000  0.000000
                       0.000000  0.000000  0.000000  0.000000  0.000000  0.000000
                       2.000000  2.000000  2.000000  2.000000  0.000000  0.000000
                       0.000000  0.000000  0.000000  0.000000  0.000000  0.000000
                       2.000000  2.000000  2.000000  2.000000  0.000000  0.000000
                       0.000000  0.000000  0.000000  0.000000  0.000000  0.000000
                       2.000000  2.000000  2.000000  2.000000  0.000000  0.000000
                       0.000000  0.000000  0.000000  0.000000  0.000000  0.000000
                       2.000000  2.000000  2.000000  2.000000  0.000000  0.000000
                       0.000000  0.000000  0.000000  0.000000  0.000000  0.000000
                       2.000000  2.000000  2.000000  2.000000  0.000000  0.000000
                       0.000000  0.000000  0.000000  0.000000  0.000000  0.000000
                       2.000000  2.000000  2.000000  2.000000  0.000000  0.000000
                       0.000000  0.000000  0.000000  0.000000  0.000000  0.000000
                       2.000000  2.000000  2.000000  2.000000  0.000000  0.000000
                       0.000000  0.000000  0.000000  0.000000  0.000000  0.000000
                       2.000000  2.000000  2.000000  2.000000  0.000000  0.000000
                       0.000000  0.000000  0.000000  0.000000  0.000000  0.000000
                       2.000000  2.000000  2.000000  2.000000  0.000000  0.000000
                       0.000000  0.000000  0.000000  0.000000  0.000000  0.000000
                       2.000000  2.000000  2.000000  2.000000  0.000000  0.000000
                       0.000000  0.000000  0.000000  0.000000  0.000000  0.000000
           occopt           7
          optcell           1
        optforces           1
        paral_kgb           1
        pawecutdg      5.00000000E+01 Hartree
         pawmixdg           1
            rprim      0.0000000000E+00  5.0000000000E-01  5.0000000000E-01
                       5.0000000000E-01  0.0000000000E+00  5.0000000000E-01
                       5.0000000000E-01  5.0000000000E-01  0.0000000000E+00
           shiftk      5.00000000E-01  5.00000000E-01  5.00000000E-01
          spgroup         166
           symrel      1  0  0   0  1  0   0  0  1      -1  0  0   0 -1  0   0  0 -1
                       1  0  0   0  0  1   0  1  0      -1  0  0   0  0 -1   0 -1  0
                       0  1  0   0  0  1   1  0  0       0 -1  0   0  0 -1  -1  0  0
                       0  1  0   1  0  0   0  0  1       0 -1  0  -1  0  0   0  0 -1
                       0  0  1   1  0  0   0  1  0       0  0 -1  -1  0  0   0 -1  0
                       0  0  1   0  1  0   1  0  0       0  0 -1   0 -1  0  -1  0  0
            tnons      0.0000000  0.0000000  0.0000000     0.2200000  0.2200000  0.2200000
                       0.0000000  0.0000000  0.0000000     0.2200000  0.2200000  0.2200000
                       0.0000000  0.0000000  0.0000000     0.2200000  0.2200000  0.2200000
                       0.0000000  0.0000000  0.0000000     0.2200000  0.2200000  0.2200000
                       0.0000000  0.0000000  0.0000000     0.2200000  0.2200000  0.2200000
                       0.0000000  0.0000000  0.0000000     0.2200000  0.2200000  0.2200000
           toldff      1.00000000E-07
           tolmxf      1.00000000E-05
           tsmear      1.00000000E-03 Hartree
            typat      1  1
           useylm           1
         wfoptalg          14
              wtk        0.04688    0.02344    0.04688    0.04688    0.04688    0.02344
                         0.04688    0.02344    0.04688    0.04688    0.04688    0.04688
                         0.02344    0.04688    0.04688    0.02344    0.04688    0.02344
                         0.02344    0.02344    0.04688    0.02344    0.04688    0.02344
                         0.02344    0.02344    0.00781    0.02344    0.02344    0.00781
           xangst      0.0000000000E+00  0.0000000000E+00  0.0000000000E+00
                       8.1493290123E-01  8.1493290123E-01  8.1493290123E-01
            xcart      0.0000000000E+00  0.0000000000E+00  0.0000000000E+00
                       1.5400000000E+00  1.5400000000E+00  1.5400000000E+00
             xred      0.0000000000E+00  0.0000000000E+00  0.0000000000E+00
                       2.2000000000E-01  2.2000000000E-01  2.2000000000E-01
            znucl        6.00000

================================================================================

 chkinp: Checking input parameters for consistency.

================================================================================
== DATASET  1 ==================================================================
-   nproc =    4

 Exchange-correlation functional for the present dataset will be:
  LDA: new Teter (4/93) with spin-polarized option - ixc=1
 Citation for XC functional:
  S. Goedecker, M. Teter, J. Huetter, PRB 54, 1703 (1996)

 Real(R)+Recip(G) space primitive vectors, cartesian coordinates (Bohr,Bohr^-1):
 R(1)=  0.0000000  3.5000000  3.5000000  G(1)= -0.1428571  0.1428571  0.1428571
 R(2)=  3.5000000  0.0000000  3.5000000  G(2)=  0.1428571 -0.1428571  0.1428571
 R(3)=  3.5000000  3.5000000  0.0000000  G(3)=  0.1428571  0.1428571 -0.1428571
 Unit cell volume ucvol=  8.5750000E+01 bohr^3
 Angles (23,13,12)=  6.00000000E+01  6.00000000E+01  6.00000000E+01 degrees

 Coarse grid specifications (used for wave-functions):

 getcut: wavevector=  0.0000  0.0000  0.0000  ngfft=  18  18  18
         ecut(hartree)=     18.150   => boxcut(ratio)=   1.90205

 Fine grid specifications (used for densities):

 getcut: wavevector=  0.0000  0.0000  0.0000  ngfft=  36  36  36
         ecut(hartree)=     60.500   => boxcut(ratio)=   2.07719

--- Pseudopotential description ------------------------------------------------
- pspini: atom type   1  psp file is /data/ABINIT/testf_gcc47/trunk_7.10.2-private/tests/Psps_for_tests/6c_lda.paw
- pspatm: opening atomic psp file    /data/ABINIT/testf_gcc47/trunk_7.10.2-private/tests/Psps_for_tests/6c_lda.paw
- Paw atomic data extracted from US-psp (D.Vanderbilt): carbon
-  6.00000   4.00000  20041014                znucl, zion, pspdat
    7    2    1    0       467   0.00000      pspcod,pspxc,lmax,lloc,mmax,r2well
 Pseudopotential format is: paw2
 basis_size (lnmax)=  4 (lmn_size=  8), orbitals=   0   0   1   1
 Spheres core radius: rc_sph= 1.11201554
 4 radial meshes are used:
  - mesh 1: r(i)=AA*[exp(BB*(i-1))-1], size= 467 , AA= 0.41313E-03 BB= 0.16949E-01
  - mesh 2: r(i)=AA*[exp(BB*(i-1))-1], size= 532 , AA= 0.41313E-03 BB= 0.16949E-01
  - mesh 3: r(i)=AA*[exp(BB*(i-1))-1], size= 520 , AA= 0.41313E-03 BB= 0.16949E-01
  - mesh 4: r(i)=AA*[exp(BB*(i-1))-1], size= 596 , AA= 0.41313E-03 BB= 0.16949E-01
 Shapefunction is SIN type: shapef(r)=[sin(pi*r/rshp)/(pi*r/rshp)]**2
 Radius for shape functions = sphere core radius
 Radial grid used for partial waves is grid 1
 Radial grid used for projectors is grid  2
 Radial grid used for (t)core density is grid 3
 Radial grid used for Vloc is grid 4
 Compensation charge density is taken into account in XC energy/potential
 pspatm: atomic psp has been read  and splines computed

   4.71224288E+01                                ecore*ucvol(ha*bohr**3)
--------------------------------------------------------------------------------

P newkpt: treating     12 bands with npw=     158 for ikpt=   1 by node    0
P newkpt: treating     12 bands with npw=     160 for ikpt=   2 by node    0
P newkpt: treating     12 bands with npw=     158 for ikpt=   3 by node    0
P newkpt: treating     12 bands with npw=     159 for ikpt=   4 by node    0
P newkpt: treating     12 bands with npw=     159 for ikpt=   5 by node    0
P newkpt: treating     12 bands with npw=     161 for ikpt=   6 by node    0
P newkpt: treating     12 bands with npw=     163 for ikpt=   7 by node    0
P newkpt: treating     12 bands with npw=     161 for ikpt=   8 by node    0
P newkpt: treating     12 bands with npw=     158 for ikpt=   9 by node    0
P newkpt: treating     12 bands with npw=     160 for ikpt=  10 by node    0
P newkpt: treating     12 bands with npw=     160 for ikpt=  11 by node    0
P newkpt: treating     12 bands with npw=     158 for ikpt=  12 by node    0
P newkpt: treating     12 bands with npw=     160 for ikpt=  13 by node    0
P newkpt: treating     12 bands with npw=     160 for ikpt=  14 by node    0
P newkpt: treating     12 bands with npw=     160 for ikpt=  15 by node    0
P newkpt: treating     12 bands with npw=     162 for ikpt=  16 by node    1
P newkpt: treating     12 bands with npw=     163 for ikpt=  17 by node    1
P newkpt: treating     12 bands with npw=     160 for ikpt=  18 by node    1
P newkpt: treating     12 bands with npw=     162 for ikpt=  19 by node    1
P newkpt: treating     12 bands with npw=     160 for ikpt=  20 by node    1
P newkpt: treating     12 bands with npw=     157 for ikpt=  21 by node    1
P newkpt: treating     12 bands with npw=     160 for ikpt=  22 by node    1
P newkpt: treating     12 bands with npw=     159 for ikpt=  23 by node    1
P newkpt: treating     12 bands with npw=     159 for ikpt=  24 by node    1
P newkpt: treating     12 bands with npw=     158 for ikpt=  25 by node    1
P newkpt: treating     12 bands with npw=     158 for ikpt=  26 by node    1
P newkpt: treating     12 bands with npw=     161 for ikpt=  27 by node    1
P newkpt: treating     12 bands with npw=     162 for ikpt=  28 by node    1
P newkpt: treating     12 bands with npw=     158 for ikpt=  29 by node    1
P newkpt: treating     12 bands with npw=     158 for ikpt=  30 by node    1

_setup2: Arith. and geom. avg. npw (full set) are     159.641     159.632

================================================================================

=== [ionmov= 3] Broyden-Fletcher-Goldfard-Shanno method (forces,Tot energy) 
================================================================================

--- Iteration: (1/3) Internal Cycle: (1/1)
--------------------------------------------------------------------------------

---SELF-CONSISTENT-FIELD CONVERGENCE--------------------------------------------

     iter   Etot(hartree)      deltaE(h)  residm     nres2    diffor    maxfor
 ETOT  1  -11.494303894086    -1.149E+01 2.019E-05 1.616E+01 7.669E-02 7.669E-02
 ETOT  2  -11.475207606773     1.910E-02 2.930E-08 1.206E+00 5.521E-03 8.221E-02
 ETOT  3  -11.473684276185     1.523E-03 8.039E-07 1.293E-02 1.269E-03 8.348E-02
 ETOT  4  -11.473678368912     5.907E-06 1.293E-08 1.352E-04 1.314E-04 8.334E-02
 ETOT  5  -11.473678378897    -9.986E-09 1.070E-10 3.731E-06 3.858E-06 8.335E-02

 Cartesian components of stress tensor (hartree/bohr^3)
  sigma(1 1)=  1.20697851E-03  sigma(3 2)= -1.31948590E-04
  sigma(2 2)=  1.20697851E-03  sigma(3 1)= -1.31948590E-04
  sigma(3 3)=  1.20697851E-03  sigma(2 1)= -1.31948590E-04


 scprqt:  WARNING -
  nstep=    5 was not enough SCF cycles to converge;
  maximum force difference=  3.858E-06 exceeds toldff=  1.000E-07


 PAW TEST:
 ==== Compensation charge inside spheres ============
 The following values must be close to each other ...
 Compensation charge over spherical meshes =      0.223639962269538
 Compensation charge over fine fft grid    =      0.223607687898545

 ==== Results concerning PAW augmentation regions ====

 Total pseudopotential strength Dij (hartree):
 Atom #  1
   0.49091   0.59227   0.00002   0.00002   0.00002   0.00004   0.00004   0.00004
   0.59227   0.71153   0.00001   0.00001   0.00001   0.00003   0.00003   0.00003
   0.00002   0.00001  -0.08612  -0.00011  -0.00011  -0.08644  -0.00013  -0.00013
   0.00002   0.00001  -0.00011  -0.08612  -0.00011  -0.00013  -0.08644  -0.00013
   0.00002   0.00001  -0.00011  -0.00011  -0.08612  -0.00013  -0.00013  -0.08644
   0.00004   0.00003  -0.08644  -0.00013  -0.00013  -0.08257  -0.00015  -0.00015
   0.00004   0.00003  -0.00013  -0.08644  -0.00013  -0.00015  -0.08257  -0.00015
   0.00004   0.00003  -0.00013  -0.00013  -0.08644  -0.00015  -0.00015  -0.08257
 Atom #  2
   0.49091   0.59227  -0.00002  -0.00002  -0.00002  -0.00004  -0.00004  -0.00004
   0.59227   0.71153  -0.00001  -0.00001  -0.00001  -0.00003  -0.00003  -0.00003
  -0.00002  -0.00001  -0.08612  -0.00011  -0.00011  -0.08644  -0.00013  -0.00013
  -0.00002  -0.00001  -0.00011  -0.08612  -0.00011  -0.00013  -0.08644  -0.00013
  -0.00002  -0.00001  -0.00011  -0.00011  -0.08612  -0.00013  -0.00013  -0.08644
  -0.00004  -0.00003  -0.08644  -0.00013  -0.00013  -0.08257  -0.00015  -0.00015
  -0.00004  -0.00003  -0.00013  -0.08644  -0.00013  -0.00015  -0.08257  -0.00015
  -0.00004  -0.00003  -0.00013  -0.00013  -0.08644  -0.00015  -0.00015  -0.08257

 Total pseudopotential strength Dij (eV):
 Atom #  1
  13.35834  16.11651   0.00056   0.00056   0.00056   0.00099   0.00099   0.00099
  16.11651  19.36175   0.00039   0.00039   0.00039   0.00086   0.00086   0.00086
   0.00056   0.00039  -2.34353  -0.00286  -0.00286  -2.35226  -0.00343  -0.00343
   0.00056   0.00039  -0.00286  -2.34353  -0.00286  -0.00343  -2.35226  -0.00343
   0.00056   0.00039  -0.00286  -0.00286  -2.34353  -0.00343  -0.00343  -2.35226
   0.00099   0.00086  -2.35226  -0.00343  -0.00343  -2.24673  -0.00409  -0.00409
   0.00099   0.00086  -0.00343  -2.35226  -0.00343  -0.00409  -2.24673  -0.00409
   0.00099   0.00086  -0.00343  -0.00343  -2.35226  -0.00409  -0.00409  -2.24673
 Atom #  2
  13.35834  16.11651  -0.00056  -0.00056  -0.00056  -0.00099  -0.00099  -0.00099
  16.11651  19.36175  -0.00039  -0.00039  -0.00039  -0.00086  -0.00086  -0.00086
  -0.00056  -0.00039  -2.34353  -0.00286  -0.00286  -2.35226  -0.00343  -0.00343
  -0.00056  -0.00039  -0.00286  -2.34353  -0.00286  -0.00343  -2.35226  -0.00343
  -0.00056  -0.00039  -0.00286  -0.00286  -2.34353  -0.00343  -0.00343  -2.35226
  -0.00099  -0.00086  -2.35226  -0.00343  -0.00343  -2.24673  -0.00409  -0.00409
  -0.00099  -0.00086  -0.00343  -2.35226  -0.00343  -0.00409  -2.24673  -0.00409
  -0.00099  -0.00086  -0.00343  -0.00343  -2.35226  -0.00409  -0.00409  -2.24673

 Augmentation waves occupancies Rhoij:
 Atom #  1
   1.77196  -0.15726  -0.17082  -0.17082  -0.17082   0.08231   0.08231   0.08231
  -0.15726   0.05233   0.03801   0.03801   0.03801  -0.01318  -0.01318  -0.01318
  -0.17082   0.03801   1.87322   0.23645   0.23645  -0.42317  -0.10517  -0.10517
  -0.17082   0.03801   0.23645   1.87322   0.23645  -0.10517  -0.42317  -0.10517
  -0.17082   0.03801   0.23645   0.23645   1.87322  -0.10517  -0.10517  -0.42317
   0.08231  -0.01318  -0.42317  -0.10517  -0.10517   0.14633   0.03432   0.03432
   0.08231  -0.01318  -0.10517  -0.42317  -0.10517   0.03432   0.14633   0.03432
   0.08231  -0.01318  -0.10517  -0.10517  -0.42317   0.03432   0.03432   0.14633
 Atom #  2
   1.77196  -0.15726   0.17082   0.17082   0.17082  -0.08231  -0.08231  -0.08231
  -0.15726   0.05233  -0.03801  -0.03801  -0.03801   0.01318   0.01318   0.01318
   0.17082  -0.03801   1.87322   0.23645   0.23645  -0.42317  -0.10517  -0.10517
   0.17082  -0.03801   0.23645   1.87322   0.23645  -0.10517  -0.42317  -0.10517
   0.17082  -0.03801   0.23645   0.23645   1.87322  -0.10517  -0.10517  -0.42317
  -0.08231   0.01318  -0.42317  -0.10517  -0.10517   0.14633   0.03432   0.03432
  -0.08231   0.01318  -0.10517  -0.42317  -0.10517   0.03432   0.14633   0.03432
  -0.08231   0.01318  -0.10517  -0.10517  -0.42317   0.03432   0.03432   0.14633



---OUTPUT-----------------------------------------------------------------------

 Cartesian coordinates (xcart) [bohr]
  0.00000000000000E+00  0.00000000000000E+00  0.00000000000000E+00
  1.54000000000000E+00  1.54000000000000E+00  1.54000000000000E+00
 Reduced coordinates (xred)
  0.00000000000000E+00  0.00000000000000E+00  0.00000000000000E+00
  2.20000000000000E-01  2.20000000000000E-01  2.20000000000000E-01
 Cartesian forces (fcart) [Ha/bohr]; max,rms= 8.33477E-02 8.33477E-02 (free atoms)
 -8.33477359192708E-02 -8.33477359192708E-02 -8.33477359192708E-02
  8.33477359192708E-02  8.33477359192708E-02  8.33477359192708E-02
 Reduced forces (fred)
  5.83434151434896E-01  5.83434151434896E-01  5.83434151434896E-01
 -5.83434151434896E-01 -5.83434151434896E-01 -5.83434151434896E-01
 Scale of Primitive Cell (acell) [bohr]
  7.00000000000000E+00  7.00000000000000E+00  7.00000000000000E+00
 Real space primitive translations (rprimd) [bohr]
  0.00000000000000E+00  3.50000000000000E+00  3.50000000000000E+00
  3.50000000000000E+00  0.00000000000000E+00  3.50000000000000E+00
  3.50000000000000E+00  3.50000000000000E+00  0.00000000000000E+00
 Unitary Cell Volume (ucvol) [Bohr^3]=  8.57500000000000E+01
 Angles (23,13,12)= [degrees]
  6.00000000000000E+01  6.00000000000000E+01  6.00000000000000E+01
 Lengths [Bohr]
  4.94974746830583E+00  4.94974746830583E+00  4.94974746830583E+00
 Stress tensor in cartesian coordinates (strten) [Ha/bohr^3]
  1.20697851418798E-03 -1.31948589944334E-04 -1.31948589944333E-04
 -1.31948589944334E-04  1.20697851418798E-03 -1.31948589944333E-04
 -1.31948589944333E-04 -1.31948589944333E-04  1.20697851418798E-03
 Total energy (etotal) [Ha]= -1.14736783788974E+01

--- Iteration: (2/3) Internal Cycle: (1/1)
--------------------------------------------------------------------------------

---SELF-CONSISTENT-FIELD CONVERGENCE--------------------------------------------

     iter   Etot(hartree)      deltaE(h)  residm     nres2    diffor    maxfor
 ETOT  1  -11.508669351713    -1.151E+01 1.614E-07 2.161E+00 6.284E-02 2.050E-02
 ETOT  2  -11.506424521520     2.245E-03 6.930E-10 1.731E-01 2.606E-03 1.790E-02
 ETOT  3  -11.506268319736     1.562E-04 2.489E-07 2.444E-03 8.808E-04 1.702E-02
 ETOT  4  -11.506268808331    -4.886E-07 6.060E-10 1.583E-05 9.375E-05 1.692E-02
 ETOT  5  -11.506268813575    -5.243E-09 5.750E-11 1.540E-07 8.031E-06 1.693E-02

 Cartesian components of stress tensor (hartree/bohr^3)
  sigma(1 1)=  3.19200820E-04  sigma(3 2)= -4.50467796E-05
  sigma(2 2)=  3.19200820E-04  sigma(3 1)= -4.50467796E-05
  sigma(3 3)=  3.19200820E-04  sigma(2 1)= -4.50467796E-05


 scprqt:  WARNING -
  nstep=    5 was not enough SCF cycles to converge;
  maximum force difference=  8.031E-06 exceeds toldff=  1.000E-07


 PAW TEST:
 ==== Compensation charge inside spheres ============
 The following values must be close to each other ...
 Compensation charge over spherical meshes =      0.241389967445649
 Compensation charge over fine fft grid    =      0.241386043153158

 ==== Results concerning PAW augmentation regions ====

 Total pseudopotential strength Dij (hartree):
 Atom #  1
   0.48761   0.58796   0.00000   0.00000   0.00000   0.00001   0.00001   0.00001
   0.58796   0.70593   0.00000   0.00000   0.00000   0.00001   0.00001   0.00001
   0.00000   0.00000  -0.08216  -0.00002  -0.00002  -0.08171  -0.00003  -0.00003
   0.00000   0.00000  -0.00002  -0.08216  -0.00002  -0.00003  -0.08171  -0.00003
   0.00000   0.00000  -0.00002  -0.00002  -0.08216  -0.00003  -0.00003  -0.08171
   0.00001   0.00001  -0.08171  -0.00003  -0.00003  -0.07691  -0.00003  -0.00003
   0.00001   0.00001  -0.00003  -0.08171  -0.00003  -0.00003  -0.07691  -0.00003
   0.00001   0.00001  -0.00003  -0.00003  -0.08171  -0.00003  -0.00003  -0.07691
 Atom #  2
   0.48761   0.58796  -0.00000  -0.00000  -0.00000  -0.00001  -0.00001  -0.00001
   0.58796   0.70593  -0.00000  -0.00000  -0.00000  -0.00001  -0.00001  -0.00001
  -0.00000  -0.00000  -0.08216  -0.00002  -0.00002  -0.08171  -0.00003  -0.00003
  -0.00000  -0.00000  -0.00002  -0.08216  -0.00002  -0.00003  -0.08171  -0.00003
  -0.00000  -0.00000  -0.00002  -0.00002  -0.08216  -0.00003  -0.00003  -0.08171
  -0.00001  -0.00001  -0.08171  -0.00003  -0.00003  -0.07691  -0.00003  -0.00003
  -0.00001  -0.00001  -0.00003  -0.08171  -0.00003  -0.00003  -0.07691  -0.00003
  -0.00001  -0.00001  -0.00003  -0.00003  -0.08171  -0.00003  -0.00003  -0.07691

 Total pseudopotential strength Dij (eV):
 Atom #  1
  13.26845  15.99919   0.00011   0.00011   0.00011   0.00019   0.00019   0.00019
  15.99919  19.20931   0.00008   0.00008   0.00008   0.00017   0.00017   0.00017
   0.00011   0.00008  -2.23572  -0.00059  -0.00059  -2.22337  -0.00071  -0.00071
   0.00011   0.00008  -0.00059  -2.23572  -0.00059  -0.00071  -2.22337  -0.00071
   0.00011   0.00008  -0.00059  -0.00059  -2.23572  -0.00071  -0.00071  -2.22337
   0.00019   0.00017  -2.22337  -0.00071  -0.00071  -2.09287  -0.00085  -0.00085
   0.00019   0.00017  -0.00071  -2.22337  -0.00071  -0.00085  -2.09287  -0.00085
   0.00019   0.00017  -0.00071  -0.00071  -2.22337  -0.00085  -0.00085  -2.09287
 Atom #  2
  13.26845  15.99919  -0.00011  -0.00011  -0.00011  -0.00019  -0.00019  -0.00019
  15.99919  19.20931  -0.00008  -0.00008  -0.00008  -0.00017  -0.00017  -0.00017
  -0.00011  -0.00008  -2.23572  -0.00059  -0.00059  -2.22337  -0.00071  -0.00071
  -0.00011  -0.00008  -0.00059  -2.23572  -0.00059  -0.00071  -2.22337  -0.00071
  -0.00011  -0.00008  -0.00059  -0.00059  -2.23572  -0.00071  -0.00071  -2.22337
  -0.00019  -0.00017  -2.22337  -0.00071  -0.00071  -2.09287  -0.00085  -0.00085
  -0.00019  -0.00017  -0.00071  -2.22337  -0.00071  -0.00085  -2.09287  -0.00085
  -0.00019  -0.00017  -0.00071  -0.00071  -2.22337  -0.00085  -0.00085  -2.09287

 Augmentation waves occupancies Rhoij:
 Atom #  1
   1.92571  -0.23303  -0.02827  -0.02827  -0.02827   0.01322   0.01322   0.01322
  -0.23303   0.06181   0.00581   0.00581   0.00581  -0.00229  -0.00229  -0.00229
  -0.02827   0.00581   2.11866   0.05060   0.05060  -0.53003  -0.02270  -0.02270
  -0.02827   0.00581   0.05060   2.11866   0.05060  -0.02270  -0.53003  -0.02270
  -0.02827   0.00581   0.05060   0.05060   2.11866  -0.02270  -0.02270  -0.53003
   0.01322  -0.00229  -0.53003  -0.02270  -0.02270   0.18382   0.00749   0.00749
   0.01322  -0.00229  -0.02270  -0.53003  -0.02270   0.00749   0.18382   0.00749
   0.01322  -0.00229  -0.02270  -0.02270  -0.53003   0.00749   0.00749   0.18382
 Atom #  2
   1.92571  -0.23303   0.02827   0.02827   0.02827  -0.01322  -0.01322  -0.01322
  -0.23303   0.06181  -0.00581  -0.00581  -0.00581   0.00229   0.00229   0.00229
   0.02827  -0.00581   2.11866   0.05060   0.05060  -0.53003  -0.02270  -0.02270
   0.02827  -0.00581   0.05060   2.11866   0.05060  -0.02270  -0.53003  -0.02270
   0.02827  -0.00581   0.05060   0.05060   2.11866  -0.02270  -0.02270  -0.53003
  -0.01322   0.00229  -0.53003  -0.02270  -0.02270   0.18382   0.00749   0.00749
  -0.01322   0.00229  -0.02270  -0.53003  -0.02270   0.00749   0.18382   0.00749
  -0.01322   0.00229  -0.02270  -0.02270  -0.53003   0.00749   0.00749   0.18382



---OUTPUT-----------------------------------------------------------------------

 Cartesian coordinates (xcart) [bohr]
 -8.03297681254476E-02 -8.03297681254476E-02 -8.03297681254476E-02
  1.56456736076996E+00  1.56456736076996E+00  1.56456736076996E+00
 Reduced coordinates (xred)
 -1.19068194170387E-02 -1.19068194170387E-02 -1.19068194170387E-02
  2.31906819417039E-01  2.31906819417039E-01  2.31906819417039E-01
 Cartesian forces (fcart) [Ha/bohr]; max,rms= 1.69321E-02 1.69321E-02 (free atoms)
 -1.69320743423255E-02 -1.69320743423255E-02 -1.69320743423255E-02
  1.69320743423255E-02  1.69320743423255E-02  1.69320743423255E-02
 Reduced forces (fred)
  1.14232823910596E-01  1.14232823910596E-01  1.14232823910596E-01
 -1.14232823910596E-01 -1.14232823910596E-01 -1.14232823910596E-01
 Scale of Primitive Cell (acell) [bohr]
  6.74653451202052E+00  6.74653451202052E+00  6.74653451202052E+00
 Real space primitive translations (rprimd) [bohr]
  0.00000000000000E+00  3.37326725601026E+00  3.37326725601026E+00
  3.37326725601026E+00  0.00000000000000E+00  3.37326725601026E+00
  3.37326725601026E+00  3.37326725601026E+00  0.00000000000000E+00
 Unitary Cell Volume (ucvol) [Bohr^3]=  7.67683573161816E+01
 Angles (23,13,12)= [degrees]
  6.00000000000000E+01  6.00000000000000E+01  6.00000000000000E+01
 Lengths [Bohr]
  4.77052030295879E+00  4.77052030295879E+00  4.77052030295879E+00
 Stress tensor in cartesian coordinates (strten) [Ha/bohr^3]
  3.19200820058620E-04 -4.50467796451600E-05 -4.50467796451611E-05
 -4.50467796451600E-05  3.19200820058620E-04 -4.50467796451611E-05
 -4.50467796451611E-05 -4.50467796451611E-05  3.19200820058622E-04
 Total energy (etotal) [Ha]= -1.15062688135747E+01

 Difference of energy with previous step (new-old):
           Absolute (Ha)=-3.25904E-02
           Relative     =-2.83642E-03

--- Iteration: (3/3) Internal Cycle: (1/1)
--------------------------------------------------------------------------------

---SELF-CONSISTENT-FIELD CONVERGENCE--------------------------------------------

     iter   Etot(hartree)      deltaE(h)  residm     nres2    diffor    maxfor
 ETOT  1  -11.507577469349    -1.151E+01 1.268E-08 3.904E-03 1.482E-02 2.114E-03
 ETOT  2  -11.507575794941     1.674E-06 3.585E-11 4.064E-04 9.187E-05 2.022E-03
 ETOT  3  -11.507575741539     5.340E-08 4.089E-09 4.083E-06 2.725E-05 1.995E-03
 ETOT  4  -11.507575742632    -1.093E-09 1.500E-11 3.002E-08 3.226E-06 1.992E-03
 ETOT  5  -11.507575742659    -2.666E-11 1.286E-14 2.902E-10 1.104E-07 1.992E-03

 Cartesian components of stress tensor (hartree/bohr^3)
  sigma(1 1)= -5.00310124E-05  sigma(3 2)= -6.22425111E-06
  sigma(2 2)= -5.00310124E-05  sigma(3 1)= -6.22425111E-06
  sigma(3 3)= -5.00310124E-05  sigma(2 1)= -6.22425111E-06


 scprqt:  WARNING -
  nstep=    5 was not enough SCF cycles to converge;
  maximum force difference=  1.104E-07 exceeds toldff=  1.000E-07


 PAW TEST:
 ==== Compensation charge inside spheres ============
 The following values must be close to each other ...
 Compensation charge over spherical meshes =      0.246133205785315
 Compensation charge over fine fft grid    =      0.246137229070042

 ==== Results concerning PAW augmentation regions ====

 Total pseudopotential strength Dij (hartree):
 Atom #  1
   0.48689   0.58702   0.00000   0.00000   0.00000   0.00000   0.00000   0.00000
   0.58702   0.70470   0.00000   0.00000   0.00000   0.00000   0.00000   0.00000
   0.00000   0.00000  -0.08127  -0.00000  -0.00000  -0.08064  -0.00000  -0.00000
   0.00000   0.00000  -0.00000  -0.08127  -0.00000  -0.00000  -0.08064  -0.00000
   0.00000   0.00000  -0.00000  -0.00000  -0.08127  -0.00000  -0.00000  -0.08064
   0.00000   0.00000  -0.08064  -0.00000  -0.00000  -0.07563  -0.00000  -0.00000
   0.00000   0.00000  -0.00000  -0.08064  -0.00000  -0.00000  -0.07563  -0.00000
   0.00000   0.00000  -0.00000  -0.00000  -0.08064  -0.00000  -0.00000  -0.07563
 Atom #  2
   0.48689   0.58702  -0.00000  -0.00000  -0.00000  -0.00000  -0.00000  -0.00000
   0.58702   0.70470  -0.00000  -0.00000  -0.00000  -0.00000  -0.00000  -0.00000
  -0.00000  -0.00000  -0.08127  -0.00000  -0.00000  -0.08064  -0.00000  -0.00000
  -0.00000  -0.00000  -0.00000  -0.08127  -0.00000  -0.00000  -0.08064  -0.00000
  -0.00000  -0.00000  -0.00000  -0.00000  -0.08127  -0.00000  -0.00000  -0.08064
  -0.00000  -0.00000  -0.08064  -0.00000  -0.00000  -0.07563  -0.00000  -0.00000
  -0.00000  -0.00000  -0.00000  -0.08064  -0.00000  -0.00000  -0.07563  -0.00000
  -0.00000  -0.00000  -0.00000  -0.00000  -0.08064  -0.00000  -0.00000  -0.07563

 Total pseudopotential strength Dij (eV):
 Atom #  1
  13.24889  15.97355   0.00001   0.00001   0.00001   0.00002   0.00002   0.00002
  15.97355  19.17586   0.00001   0.00001   0.00001   0.00002   0.00002   0.00002
   0.00001   0.00001  -2.21134  -0.00007  -0.00007  -2.19421  -0.00008  -0.00008
   0.00001   0.00001  -0.00007  -2.21134  -0.00007  -0.00008  -2.19421  -0.00008
   0.00001   0.00001  -0.00007  -0.00007  -2.21134  -0.00008  -0.00008  -2.19421
   0.00002   0.00002  -2.19421  -0.00008  -0.00008  -2.05806  -0.00010  -0.00010
   0.00002   0.00002  -0.00008  -2.19421  -0.00008  -0.00010  -2.05806  -0.00010
   0.00002   0.00002  -0.00008  -0.00008  -2.19421  -0.00010  -0.00010  -2.05806
 Atom #  2
  13.24889  15.97355  -0.00001  -0.00001  -0.00001  -0.00002  -0.00002  -0.00002
  15.97355  19.17586  -0.00001  -0.00001  -0.00001  -0.00002  -0.00002  -0.00002
  -0.00001  -0.00001  -2.21134  -0.00007  -0.00007  -2.19421  -0.00008  -0.00008
  -0.00001  -0.00001  -0.00007  -2.21134  -0.00007  -0.00008  -2.19421  -0.00008
  -0.00001  -0.00001  -0.00007  -0.00007  -2.21134  -0.00008  -0.00008  -2.19421
  -0.00002  -0.00002  -2.19421  -0.00008  -0.00008  -2.05806  -0.00010  -0.00010
  -0.00002  -0.00002  -0.00008  -2.19421  -0.00008  -0.00010  -2.05806  -0.00010
  -0.00002  -0.00002  -0.00008  -0.00008  -2.19421  -0.00010  -0.00010  -2.05806

 Augmentation waves occupancies Rhoij:
 Atom #  1
   1.96617  -0.25160  -0.00318  -0.00318  -0.00318   0.00149   0.00149   0.00149
  -0.25160   0.06542   0.00062   0.00062   0.00062  -0.00026  -0.00026  -0.00026
  -0.00318   0.00062   2.18225   0.00611   0.00611  -0.55841  -0.00275  -0.00275
  -0.00318   0.00062   0.00611   2.18225   0.00611  -0.00275  -0.55841  -0.00275
  -0.00318   0.00062   0.00611   0.00611   2.18225  -0.00275  -0.00275  -0.55841
   0.00149  -0.00026  -0.55841  -0.00275  -0.00275   0.19607   0.00091   0.00091
   0.00149  -0.00026  -0.00275  -0.55841  -0.00275   0.00091   0.19607   0.00091
   0.00149  -0.00026  -0.00275  -0.00275  -0.55841   0.00091   0.00091   0.19607
 Atom #  2
   1.96617  -0.25160   0.00318   0.00318   0.00318  -0.00149  -0.00149  -0.00149
  -0.25160   0.06542  -0.00062  -0.00062  -0.00062   0.00026   0.00026   0.00026
   0.00318  -0.00062   2.18225   0.00611   0.00611  -0.55841  -0.00275  -0.00275
   0.00318  -0.00062   0.00611   2.18225   0.00611  -0.00275  -0.55841  -0.00275
   0.00318  -0.00062   0.00611   0.00611   2.18225  -0.00275  -0.00275  -0.55841
  -0.00149   0.00026  -0.55841  -0.00275  -0.00275   0.19607   0.00091   0.00091
  -0.00149   0.00026  -0.00275  -0.55841  -0.00275   0.00091   0.19607   0.00091
  -0.00149   0.00026  -0.00275  -0.00275  -0.55841   0.00091   0.00091   0.19607



---OUTPUT-----------------------------------------------------------------------

 Cartesian coordinates (xcart) [bohr]
 -9.78709037425900E-02 -9.78709037425900E-02 -9.78709037425900E-02
  1.56961045080299E+00  1.56961045080299E+00  1.56961045080299E+00
 Reduced coordinates (xred)
 -1.46300334637173E-02 -1.46300334637173E-02 -1.46300334637173E-02
  2.34630033463717E-01  2.34630033463717E-01  2.34630033463717E-01
 Cartesian forces (fcart) [Ha/bohr]; max,rms= 1.99188E-03 1.99188E-03 (free atoms)
 -1.99188182962584E-03 -1.99188182962584E-03 -1.99188182962584E-03
  1.99188182962584E-03  1.99188182962584E-03  1.99188182962584E-03
 Reduced forces (fred)
  1.33251420987790E-02  1.33251420987789E-02  1.33251420987790E-02
 -1.33251420987790E-02 -1.33251420987790E-02 -1.33251420987790E-02
 Scale of Primitive Cell (acell) [bohr]
  6.68972521391090E+00  6.68972521391090E+00  6.68972521391090E+00
 Real space primitive translations (rprimd) [bohr]
  0.00000000000000E+00  3.34486260695545E+00  3.34486260695545E+00
  3.34486260695545E+00  0.00000000000000E+00  3.34486260695545E+00
  3.34486260695545E+00  3.34486260695545E+00  0.00000000000000E+00
 Unitary Cell Volume (ucvol) [Bohr^3]=  7.48453538635912E+01
 Angles (23,13,12)= [degrees]
  6.00000000000000E+01  6.00000000000000E+01  6.00000000000000E+01
 Lengths [Bohr]
  4.73035006303102E+00  4.73035006303102E+00  4.73035006303102E+00
 Stress tensor in cartesian coordinates (strten) [Ha/bohr^3]
 -5.00310124338689E-05 -6.22425111253527E-06 -6.22425111253429E-06
 -6.22425111253527E-06 -5.00310124338689E-05 -6.22425111253776E-06
 -6.22425111253429E-06 -6.22425111253776E-06 -5.00310124338706E-05
 Total energy (etotal) [Ha]= -1.15075757426588E+01

 Difference of energy with previous step (new-old):
           Absolute (Ha)=-1.30693E-03
           Relative     =-1.13578E-04

 fconv : WARNING -
  ntime=    3 was not enough Broyd/MD steps to converge gradients: 
  max grad (force/stress) = 5.0031E-03 > tolmxf= 1.0000E-05 ha/bohr (free atoms)

================================================================================

 ----iterations are completed or convergence reached----

 Mean square residual over all n,k,spin=   4.1908E-16; max=  1.2855E-14
  -0.1250 -0.2500  0.0000    1  1.66207E-15 kpt; spin; max resid(k); each band:
  2.22E-18 9.36E-16 1.66E-15 1.25E-15 2.17E-16 5.36E-16 4.24E-16 7.76E-17
  1.05E-16 1.97E-16 1.11E-16 2.11E-16
  -0.1250 -0.1250  0.1250    1  5.86476E-15 kpt; spin; max resid(k); each band:
  1.94E-18 6.37E-17 3.54E-19 5.33E-17 9.05E-17 9.08E-20 3.07E-16 3.38E-17
  5.86E-15 3.00E-15 4.45E-18 3.01E-16
  -0.1250  0.5000  0.0000    1  1.57860E-15 kpt; spin; max resid(k); each band:
  6.58E-16 2.20E-16 1.53E-15 1.58E-15 4.07E-16 8.86E-16 5.82E-16 1.85E-16
  1.74E-16 1.03E-15 3.34E-16 6.42E-16
  -0.2500 -0.3750  0.0000    1  1.28635E-15 kpt; spin; max resid(k); each band:
  3.17E-18 1.29E-15 1.21E-15 9.46E-16 1.98E-16 2.00E-16 2.46E-16 3.57E-16
  5.95E-16 1.94E-16 6.49E-17 6.24E-16
  -0.1250 -0.3750  0.1250    1  2.13159E-15 kpt; spin; max resid(k); each band:
  3.93E-17 7.86E-17 2.04E-16 2.16E-16 2.74E-16 9.90E-16 1.17E-15 1.00E-15
  2.36E-16 2.13E-15 8.77E-16 2.31E-16
  -0.2500 -0.2500  0.1250    1  2.47950E-16 kpt; spin; max resid(k); each band:
  3.08E-18 2.45E-16 2.48E-16 2.95E-19 1.75E-16 4.53E-17 1.74E-19 8.03E-17
  1.60E-16 1.08E-16 1.92E-17 1.09E-16
  -0.1250 -0.2500  0.2500    1  2.73155E-15 kpt; spin; max resid(k); each band:
  3.64E-17 3.77E-17 6.58E-16 1.89E-16 5.37E-16 5.29E-16 1.56E-15 1.76E-15
  1.13E-15 2.73E-15 5.67E-16 2.69E-16
  -0.1250 -0.1250  0.3750    1  8.51094E-16 kpt; spin; max resid(k); each band:
  6.19E-16 2.14E-16 3.61E-16 2.83E-19 1.46E-16 1.50E-19 2.25E-16 1.34E-16
  1.49E-16 8.51E-16 1.84E-18 5.36E-16
  -0.1250  0.2500  0.0000    1  1.28553E-14 kpt; spin; max resid(k); each band:
  5.67E-18 6.81E-17 5.86E-16 3.43E-16 4.91E-16 8.09E-16 4.69E-16 5.75E-17
  1.29E-14 9.50E-15 3.51E-16 1.90E-16
  -0.2500  0.3750  0.0000    1  5.95785E-16 kpt; spin; max resid(k); each band:
  4.05E-16 2.84E-16 2.57E-16 2.11E-16 7.95E-17 5.15E-16 5.96E-16 5.42E-16
  2.43E-16 3.39E-17 4.01E-16 1.44E-16
  -0.3750  0.5000  0.0000    1  6.19643E-16 kpt; spin; max resid(k); each band:
  1.54E-16 1.57E-16 1.59E-17 1.37E-16 1.07E-16 8.27E-17 2.35E-16 1.63E-16
  7.18E-17 8.70E-17 5.95E-17 6.20E-16
  -0.2500  0.5000  0.1250    1  9.28221E-16 kpt; spin; max resid(k); each band:
  7.63E-16 9.28E-16 1.68E-16 3.21E-16 6.64E-17 1.69E-16 2.19E-16 2.39E-16
  7.79E-17 2.59E-16 9.77E-17 4.07E-16
  -0.3750 -0.3750  0.1250    1  3.28318E-16 kpt; spin; max resid(k); each band:
  1.35E-16 3.07E-16 2.10E-16 1.28E-19 3.28E-16 9.27E-17 5.87E-19 7.94E-17
  7.40E-17 2.06E-16 8.39E-18 2.06E-16
  -0.2500 -0.3750  0.2500    1  2.41726E-16 kpt; spin; max resid(k); each band:
  1.45E-16 2.17E-16 6.32E-17 5.57E-18 7.43E-17 1.46E-16 6.04E-17 2.42E-16
  7.53E-17 2.18E-16 1.10E-16 7.79E-17
  -0.1250 -0.3750  0.3750    1  1.22132E-15 kpt; spin; max resid(k); each band:
  9.24E-16 1.22E-15 1.05E-15 7.23E-16 1.78E-16 2.96E-16 9.14E-17 1.80E-16
  1.61E-16 3.48E-16 3.24E-16 4.11E-16
  -0.2500 -0.2500  0.3750    1  1.26201E-15 kpt; spin; max resid(k); each band:
  4.63E-16 7.17E-16 3.40E-16 8.56E-20 2.18E-16 1.08E-18 8.91E-16 1.08E-15
  1.15E-16 3.87E-19 1.26E-15 9.44E-17
  -0.1250 -0.2500  0.5000    1  4.61289E-15 kpt; spin; max resid(k); each band:
  2.92E-17 7.71E-16 2.48E-16 3.43E-17 8.73E-16 5.99E-16 4.61E-15 3.12E-15
  9.85E-16 2.11E-15 7.08E-16 6.73E-16
  -0.1250 -0.1250 -0.3750    1  8.82546E-16 kpt; spin; max resid(k); each band:
  5.67E-18 8.83E-16 2.55E-16 7.83E-19 3.03E-19 2.72E-16 1.51E-16 1.71E-17
  2.43E-19 2.33E-16 2.22E-16 4.53E-16
  -0.1250  0.0000  0.0000    1  7.97165E-16 kpt; spin; max resid(k); each band:
  1.07E-18 7.97E-16 5.84E-16 4.28E-19 8.66E-21 1.49E-17 8.41E-18 1.37E-16
  9.95E-17 9.73E-19 5.78E-17 6.59E-17
   0.5000  0.5000  0.1250    1  9.61159E-16 kpt; spin; max resid(k); each band:
  1.12E-16 3.86E-16 1.85E-16 1.55E-19 9.61E-16 4.50E-16 5.24E-19 1.27E-16
  1.97E-16 5.81E-16 3.87E-17 7.01E-16
  -0.3750  0.5000  0.2500    1  6.46264E-16 kpt; spin; max resid(k); each band:
  3.95E-16 6.46E-16 2.05E-16 3.77E-17 2.23E-16 1.96E-16 2.13E-16 1.16E-16
  2.10E-16 6.03E-16 1.11E-16 4.53E-17
  -0.3750 -0.3750  0.3750    1  1.07648E-15 kpt; spin; max resid(k); each band:
  1.39E-16 2.50E-16 1.05E-17 3.06E-19 8.70E-17 8.33E-19 4.82E-16 1.08E-15
  2.23E-16 1.09E-19 9.53E-16 2.71E-16
  -0.2500 -0.3750  0.5000    1  1.60769E-15 kpt; spin; max resid(k); each band:
  1.15E-17 2.58E-16 1.03E-16 3.51E-17 3.84E-16 3.70E-16 9.11E-16 8.19E-16
  5.41E-16 1.61E-15 5.63E-16 3.82E-16
  -0.1250 -0.3750 -0.3750    1  6.42228E-16 kpt; spin; max resid(k); each band:
  2.73E-18 3.79E-16 4.86E-17 2.86E-19 3.98E-16 2.05E-17 1.77E-19 1.61E-16
  8.99E-17 6.42E-16 3.59E-18 3.07E-16
  -0.2500 -0.2500 -0.3750    1  3.14700E-16 kpt; spin; max resid(k); each band:
  2.23E-18 3.15E-16 1.47E-16 1.18E-19 3.72E-19 1.40E-16 1.76E-16 5.12E-17
  8.58E-20 1.64E-16 1.85E-16 1.24E-16
  -0.1250 -0.2500 -0.2500    1  2.85578E-15 kpt; spin; max resid(k); each band:
  1.36E-18 4.35E-16 3.36E-19 1.90E-16 1.06E-16 3.11E-16 9.36E-20 2.96E-17
  2.86E-15 1.21E-15 1.62E-18 9.85E-16
  -0.1250 -0.1250 -0.1250    1  2.06056E-17 kpt; spin; max resid(k); each band:
  4.64E-19 2.87E-18 2.40E-19 2.40E-19 5.35E-20 5.35E-20 2.06E-17 4.44E-18
  1.69E-17 4.99E-19 4.99E-19 1.62E-18
  -0.3750  0.0000  0.0000    1  6.43019E-16 kpt; spin; max resid(k); each band:
  5.09E-17 3.26E-17 4.58E-17 3.74E-19 1.58E-19 5.36E-16 3.17E-16 1.57E-16
  3.37E-16 5.12E-16 1.08E-18 6.43E-16
   0.5000  0.5000  0.3750    1  1.53563E-15 kpt; spin; max resid(k); each band:
  5.11E-17 5.13E-17 5.34E-18 2.49E-19 1.74E-16 1.22E-19 6.91E-17 1.64E-16
  5.75E-17 1.54E-15 3.37E-18 4.22E-16
  -0.3750 -0.3750 -0.3750    1  1.12952E-16 kpt; spin; max resid(k); each band:
  3.85E-18 4.10E-18 1.73E-19 1.73E-19 1.73E-19 1.73E-19 1.72E-17 1.13E-16
  5.95E-17 1.25E-18 1.25E-18 1.47E-17
 reduced coordinates (array xred) for    2 atoms
      -0.014630033464     -0.014630033464     -0.014630033464
       0.234630033464      0.234630033464      0.234630033464
 rms dE/dt=  1.3325E-02; max dE/dt=  1.3325E-02; dE/dt below (all hartree)
    1       0.013325142099      0.013325142099      0.013325142099
    2      -0.013325142099     -0.013325142099     -0.013325142099

 cartesian coordinates (angstrom) at end:
    1     -0.05179105164468    -0.05179105164468    -0.05179105164468
    2      0.83060207692962     0.83060207692962     0.83060207692962

 cartesian forces (hartree/bohr) at end:
    1     -0.00199188182963    -0.00199188182963    -0.00199188182963
    2      0.00199188182963     0.00199188182963     0.00199188182963
 frms,max,avg= 1.9918818E-03 1.9918818E-03   0.000E+00  0.000E+00  0.000E+00 h/b

 cartesian forces (eV/Angstrom) at end:
    1     -0.10242667331446    -0.10242667331446    -0.10242667331446
    2      0.10242667331446     0.10242667331446     0.10242667331446
 frms,max,avg= 1.0242667E-01 1.0242667E-01   0.000E+00  0.000E+00  0.000E+00 e/A
 length scales=  6.689725213911  6.689725213911  6.689725213911 bohr
              =  3.540050114932  3.540050114932  3.540050114932 angstroms
 prteigrs : about to open file t24_MPI4o_EIG
 Fermi (or HOMO) energy (hartree) =   0.52299   Average Vxc (hartree)=  -0.50272
 Eigenvalues (hartree) for nkpt=  30  k points:
 kpt#   1, nband= 12, wtk=  0.04688, kpt= -0.1250 -0.2500  0.0000 (reduced coord)
  -0.31850   0.23139   0.31106   0.34610   0.63649   0.76941   0.77179   0.90160
   1.17278   1.19577   1.38049   1.45205
      occupation numbers for kpt#   1
   2.00000   2.00000   2.00000   2.00000   0.00000   0.00000   0.00000   0.00000
   0.00000   0.00000   0.00000   0.00000
 kpt#   2, nband= 12, wtk=  0.02344, kpt= -0.1250 -0.1250  0.1250 (reduced coord)
  -0.31849   0.23169   0.31282   0.34367   0.63734   0.76951   0.77098   0.90126
   1.17267   1.19639   1.38141   1.45169
      occupation numbers for kpt#   2
   2.00000   2.00000   2.00000   2.00000   0.00000   0.00000   0.00000   0.00000
   0.00000   0.00000   0.00000   0.00000
 kpt#   3, nband= 12, wtk=  0.04688, kpt= -0.1250  0.5000  0.0000 (reduced coord)
  -0.16158  -0.04945   0.26602   0.28699   0.70109   0.78548   0.81106   0.97979
   1.17431   1.30801   1.39369   1.40963
      occupation numbers for kpt#   3
   2.00000   2.00000   2.00000   2.00000   0.00000   0.00000   0.00000   0.00000
   0.00000   0.00000   0.00000   0.00000
 kpt#   4, nband= 12, wtk=  0.04688, kpt= -0.2500 -0.3750  0.0000 (reduced coord)
  -0.23483   0.14266   0.22557   0.23685   0.61134   0.76447   0.90086   0.90256
   1.21724   1.24669   1.51628   1.59538
      occupation numbers for kpt#   4
   2.00000   2.00000   2.00000   2.00000   0.00000   0.00000   0.00000   0.00000
   0.00000   0.00000   0.00000   0.00000
 kpt#   5, nband= 12, wtk=  0.04688, kpt= -0.1250 -0.3750  0.1250 (reduced coord)
  -0.19514   0.05423   0.18637   0.26561   0.71373   0.77969   0.88572   0.91663
   1.16179   1.24872   1.38613   1.56719
      occupation numbers for kpt#   5
   2.00000   2.00000   2.00000   2.00000   0.00000   0.00000   0.00000   0.00000
   0.00000   0.00000   0.00000   0.00000
 kpt#   6, nband= 12, wtk=  0.02344, kpt= -0.2500 -0.2500  0.1250 (reduced coord)
  -0.23483   0.14339   0.22352   0.23802   0.61210   0.76372   0.89861   0.90416
   1.21858   1.24581   1.51843   1.59448
      occupation numbers for kpt#   6
   2.00000   2.00000   2.00000   2.00000   0.00000   0.00000   0.00000   0.00000
   0.00000   0.00000   0.00000   0.00000
 kpt#   7, nband= 12, wtk=  0.04688, kpt= -0.1250 -0.2500  0.2500 (reduced coord)
  -0.19515   0.05441   0.18559   0.26625   0.71623   0.77645   0.88803   0.91401
   1.16298   1.24853   1.38632   1.56798
      occupation numbers for kpt#   7
   2.00000   2.00000   2.00000   2.00000   0.00000   0.00000   0.00000   0.00000
   0.00000   0.00000   0.00000   0.00000
 kpt#   8, nband= 12, wtk=  0.02344, kpt= -0.1250 -0.1250  0.3750 (reduced coord)
  -0.16159  -0.04940   0.26418   0.28885   0.70312   0.78181   0.81237   0.97904
   1.17535   1.30790   1.39648   1.40744
      occupation numbers for kpt#   8
   2.00000   2.00000   2.00000   2.00000   0.00000   0.00000   0.00000   0.00000
   0.00000   0.00000   0.00000   0.00000
 kpt#   9, nband= 12, wtk=  0.04688, kpt= -0.1250  0.2500  0.0000 (reduced coord)
  -0.27653   0.13164   0.25720   0.35036   0.72266   0.74322   0.77964   0.94883
   1.18001   1.19186   1.30419   1.49527
      occupation numbers for kpt#   9
   2.00000   2.00000   2.00000   2.00000   0.00000   0.00000   0.00000   0.00000
   0.00000   0.00000   0.00000   0.00000
 kpt#  10, nband= 12, wtk=  0.04688, kpt= -0.2500  0.3750  0.0000 (reduced coord)
  -0.12427  -0.01199   0.13082   0.26132   0.67211   0.85939   0.91938   0.97017
   1.07102   1.28748   1.33603   1.59412
      occupation numbers for kpt#  10
   2.00000   2.00000   2.00000   2.00000   0.00000   0.00000   0.00000   0.00000
   0.00000   0.00000   0.00000   0.00000
 kpt#  11, nband= 12, wtk=  0.04688, kpt= -0.3750  0.5000  0.0000 (reduced coord)
  -0.11489   0.02743   0.14327   0.19654   0.60263   0.67869   1.00415   1.01342
   1.22566   1.28630   1.53273   1.66145
      occupation numbers for kpt#  11
   2.00000   2.00000   2.00000   2.00000   0.00000   0.00000   0.00000   0.00000
   0.00000   0.00000   0.00000   0.00000
 kpt#  12, nband= 12, wtk=  0.04688, kpt= -0.2500  0.5000  0.1250 (reduced coord)
  -0.08576   0.00725   0.10431   0.17931   0.69698   0.82264   0.89164   0.97778
   1.13611   1.27535   1.45901   1.60348
      occupation numbers for kpt#  12
   2.00000   2.00000   2.00000   2.00000   0.00000   0.00000   0.00000   0.00000
   0.00000   0.00000   0.00000   0.00000
 kpt#  13, nband= 12, wtk=  0.02344, kpt= -0.3750 -0.3750  0.1250 (reduced coord)
  -0.11492   0.02778   0.14194   0.19757   0.60358   0.67772   1.00185   1.01496
   1.22833   1.28373   1.53519   1.66009
      occupation numbers for kpt#  13
   2.00000   2.00000   2.00000   2.00000   0.00000   0.00000   0.00000   0.00000
   0.00000   0.00000   0.00000   0.00000
 kpt#  14, nband= 12, wtk=  0.04688, kpt= -0.2500 -0.3750  0.2500 (reduced coord)
  -0.08575   0.00763   0.10252   0.18081   0.69851   0.82024   0.89172   0.97790
   1.13639   1.27557   1.45976   1.60372
      occupation numbers for kpt#  14
   2.00000   2.00000   2.00000   2.00000   0.00000   0.00000   0.00000   0.00000
   0.00000   0.00000   0.00000   0.00000
 kpt#  15, nband= 12, wtk=  0.04688, kpt= -0.1250 -0.3750  0.3750 (reduced coord)
  -0.08568   0.00714   0.10357   0.18016   0.69723   0.82236   0.89118   0.97899
   1.13430   1.27660   1.45872   1.60404
      occupation numbers for kpt#  15
   2.00000   2.00000   2.00000   2.00000   0.00000   0.00000   0.00000   0.00000
   0.00000   0.00000   0.00000   0.00000
 kpt#  16, nband= 12, wtk=  0.02344, kpt= -0.2500 -0.2500  0.3750 (reduced coord)
  -0.12420  -0.01207   0.12965   0.26280   0.67335   0.85630   0.92131   0.96844
   1.07191   1.28939   1.33552   1.59303
      occupation numbers for kpt#  16
   2.00000   2.00000   2.00000   2.00000   0.00000   0.00000   0.00000   0.00000
   0.00000   0.00000   0.00000   0.00000
 kpt#  17, nband= 12, wtk=  0.04688, kpt= -0.1250 -0.2500  0.5000 (reduced coord)
  -0.19513   0.05410   0.18479   0.26767   0.71436   0.77852   0.88637   0.91653
   1.16081   1.25009   1.38574   1.56648
      occupation numbers for kpt#  17
   2.00000   2.00000   2.00000   2.00000   0.00000   0.00000   0.00000   0.00000
   0.00000   0.00000   0.00000   0.00000
 kpt#  18, nband= 12, wtk=  0.02344, kpt= -0.1250 -0.1250 -0.3750 (reduced coord)
  -0.27653   0.13143   0.25574   0.35271   0.71963   0.74372   0.78222   0.94865
   1.18112   1.19131   1.30290   1.49491
      occupation numbers for kpt#  18
   2.00000   2.00000   2.00000   2.00000   0.00000   0.00000   0.00000   0.00000
   0.00000   0.00000   0.00000   0.00000
 kpt#  19, nband= 12, wtk=  0.02344, kpt= -0.1250  0.0000  0.0000 (reduced coord)
  -0.36113   0.33107   0.39381   0.39736   0.65797   0.66137   0.67654   0.94460
   1.15151   1.29129   1.29150   1.38712
      occupation numbers for kpt#  19
   2.00000   2.00000   2.00000   2.00000   0.00000   0.00000   0.00000   0.00000
   0.00000   0.00000   0.00000   0.00000
 kpt#  20, nband= 12, wtk=  0.02344, kpt=  0.5000  0.5000  0.1250 (reduced coord)
  -0.11481   0.02708   0.14268   0.19750   0.60325   0.67808   1.00259   1.01467
   1.22876   1.28321   1.53378   1.66018
      occupation numbers for kpt#  20
   2.00000   2.00000   2.00000   2.00000   0.00000   0.00000   0.00000   0.00000
   0.00000   0.00000   0.00000   0.00000
 kpt#  21, nband= 12, wtk=  0.04688, kpt= -0.3750  0.5000  0.2500 (reduced coord)
  -0.08527   0.00585   0.10394   0.18077   0.69807   0.82194   0.89088   0.97818
   1.13588   1.27605   1.45796   1.60445
      occupation numbers for kpt#  21
   2.00000   2.00000   2.00000   2.00000   0.00000   0.00000   0.00000   0.00000
   0.00000   0.00000   0.00000   0.00000
 kpt#  22, nband= 12, wtk=  0.02344, kpt= -0.3750 -0.3750  0.3750 (reduced coord)
  -0.12387  -0.01341   0.13092   0.26254   0.67319   0.85782   0.91994   0.97195
   1.06901   1.28775   1.33623   1.59350
      occupation numbers for kpt#  22
   2.00000   2.00000   2.00000   2.00000   0.00000   0.00000   0.00000   0.00000
   0.00000   0.00000   0.00000   0.00000
 kpt#  23, nband= 12, wtk=  0.04688, kpt= -0.2500 -0.3750  0.5000 (reduced coord)
  -0.19509   0.05308   0.18610   0.26733   0.71485   0.77913   0.88534   0.91740
   1.16098   1.24886   1.38562   1.56683
      occupation numbers for kpt#  23
   2.00000   2.00000   2.00000   2.00000   0.00000   0.00000   0.00000   0.00000
   0.00000   0.00000   0.00000   0.00000
 kpt#  24, nband= 12, wtk=  0.02344, kpt= -0.1250 -0.3750 -0.3750 (reduced coord)
  -0.23483   0.14145   0.22598   0.23780   0.61155   0.76437   0.90006   0.90353
   1.21948   1.24438   1.51482   1.59592
      occupation numbers for kpt#  24
   2.00000   2.00000   2.00000   2.00000   0.00000   0.00000   0.00000   0.00000
   0.00000   0.00000   0.00000   0.00000
 kpt#  25, nband= 12, wtk=  0.02344, kpt= -0.2500 -0.2500 -0.3750 (reduced coord)
  -0.27654   0.13033   0.25728   0.35218   0.72126   0.74361   0.78157   0.94950
   1.17972   1.18989   1.30409   1.49466
      occupation numbers for kpt#  25
   2.00000   2.00000   2.00000   2.00000   0.00000   0.00000   0.00000   0.00000
   0.00000   0.00000   0.00000   0.00000
 kpt#  26, nband= 12, wtk=  0.02344, kpt= -0.1250 -0.2500 -0.2500 (reduced coord)
  -0.31850   0.22981   0.31244   0.34657   0.63651   0.77061   0.77092   0.90181
   1.17246   1.19540   1.37898   1.45341
      occupation numbers for kpt#  26
   2.00000   2.00000   2.00000   2.00000   0.00000   0.00000   0.00000   0.00000
   0.00000   0.00000   0.00000   0.00000
 kpt#  27, nband= 12, wtk=  0.00781, kpt= -0.1250 -0.1250 -0.1250 (reduced coord)
  -0.36113   0.32877   0.39701   0.39701   0.65871   0.65871   0.67825   0.94491
   1.15111   1.29046   1.29046   1.38906
      occupation numbers for kpt#  27
   2.00000   2.00000   2.00000   2.00000   0.00000   0.00000   0.00000   0.00000
   0.00000   0.00000   0.00000   0.00000
 kpt#  28, nband= 12, wtk=  0.02344, kpt= -0.3750  0.0000  0.0000 (reduced coord)
  -0.23571   0.02232   0.32366   0.32684   0.72810   0.73317   0.75428   0.98909
   1.19964   1.30896   1.31165   1.34214
      occupation numbers for kpt#  28
   2.00000   2.00000   2.00000   2.00000   0.00000   0.00000   0.00000   0.00000
   0.00000   0.00000   0.00000   0.00000
 kpt#  29, nband= 12, wtk=  0.02344, kpt=  0.5000  0.5000  0.3750 (reduced coord)
  -0.16123  -0.05069   0.26597   0.28808   0.70245   0.78484   0.81177   0.98131
   1.17162   1.30924   1.39251   1.40831
      occupation numbers for kpt#  29
   2.00000   2.00000   2.00000   2.00000   0.00000   0.00000   0.00000   0.00000
   0.00000   0.00000   0.00000   0.00000
 kpt#  30, nband= 12, wtk=  0.00781, kpt= -0.3750 -0.3750 -0.3750 (reduced coord)
  -0.23567   0.02133   0.32580   0.32580   0.73135   0.73135   0.75449   0.99109
   1.19683   1.30828   1.30828   1.34418
      occupation numbers for kpt#  30
   2.00000   2.00000   2.00000   2.00000   0.00000   0.00000   0.00000   0.00000
   0.00000   0.00000   0.00000   0.00000
 Fermi (or HOMO) energy (eV) =  14.23141   Average Vxc (eV)= -13.67975
 Eigenvalues (   eV  ) for nkpt=  30  k points:
 kpt#   1, nband= 12, wtk=  0.04688, kpt= -0.1250 -0.2500  0.0000 (reduced coord)
  -8.66676   6.29643   8.46434   9.41795  17.31983  20.93682  21.00138  24.53390
  31.91296  32.53862  37.56505  39.51230
 kpt#   2, nband= 12, wtk=  0.02344, kpt= -0.1250 -0.1250  0.1250 (reduced coord)
  -8.66667   6.30448   8.51213   9.35168  17.34291  20.93952  20.97944  24.52460
  31.90988  32.55553  37.59003  39.50261
 kpt#   3, nband= 12, wtk=  0.04688, kpt= -0.1250  0.5000  0.0000 (reduced coord)
  -4.39690  -1.34572   7.23879   7.80948  19.07753  21.37397  22.07003  26.66158
  31.95465  35.59266  37.92417  38.35809
 kpt#   4, nband= 12, wtk=  0.04688, kpt= -0.2500 -0.3750  0.0000 (reduced coord)
  -6.39005   3.88189   6.13819   6.44489  16.63535  20.80232  24.51376  24.55981
  33.12286  33.92426  41.26018  43.41257
 kpt#   5, nband= 12, wtk=  0.04688, kpt= -0.1250 -0.3750  0.1250 (reduced coord)
  -5.31014   1.47564   5.07148   7.22761  19.42164  21.21637  24.10167  24.94289
  31.61398  33.97949  37.71841  42.64554
 kpt#   6, nband= 12, wtk=  0.02344, kpt= -0.2500 -0.2500  0.1250 (reduced coord)
  -6.39007   3.90191   6.08236   6.47678  16.65616  20.78192  24.45255  24.60340
  33.15930  33.90012  41.31847  43.38809
 kpt#   7, nband= 12, wtk=  0.04688, kpt= -0.1250 -0.2500  0.2500 (reduced coord)
  -5.31022   1.48063   5.05015   7.24503  19.48967  21.12826  24.16464  24.87150
  31.64630  33.97412  37.72366  42.66696
 kpt#   8, nband= 12, wtk=  0.02344, kpt= -0.1250 -0.1250  0.3750 (reduced coord)
  -4.39716  -1.34435   7.18857   7.85989  19.13276  21.27410  22.10566  26.64104
  31.98286  35.58981  38.00026  38.29835
 kpt#   9, nband= 12, wtk=  0.04688, kpt= -0.1250  0.2500  0.0000 (reduced coord)
  -7.52475   3.58213   6.99879   9.53372  19.66469  20.22405  21.21495  25.81904
  32.10976  32.43225  35.48879  40.68838
 kpt#  10, nband= 12, wtk=  0.04688, kpt= -0.2500  0.3750  0.0000 (reduced coord)
  -3.38162  -0.32631   3.55986   7.11088  18.28899  23.38524  25.01770  26.39975
  29.14382  35.03402  36.35516  43.37818
 kpt#  11, nband= 12, wtk=  0.04688, kpt= -0.3750  0.5000  0.0000 (reduced coord)
  -3.12642   0.74641   3.89860   5.34817  16.39845  18.46801  27.32421  27.57663
  33.35195  35.00201  41.70784  45.21024
 kpt#  12, nband= 12, wtk=  0.04688, kpt= -0.2500  0.5000  0.1250 (reduced coord)
  -2.33376   0.19716   2.83833   4.87932  18.96579  22.38531  24.26265  26.60663
  30.91521  34.70413  39.70169  43.63278
 kpt#  13, nband= 12, wtk=  0.02344, kpt= -0.3750 -0.3750  0.1250 (reduced coord)
  -3.12712   0.75602   3.86227   5.37606  16.42417  18.44158  27.26176  27.61849
  33.42459  34.93211  41.77451  45.17348
 kpt#  14, nband= 12, wtk=  0.04688, kpt= -0.2500 -0.3750  0.2500 (reduced coord)
  -2.33350   0.20762   2.78966   4.92012  19.00730  22.31980  24.26482  26.61013
  30.92274  34.71006  39.72217  43.63935
 kpt#  15, nband= 12, wtk=  0.04688, kpt= -0.1250 -0.3750  0.3750 (reduced coord)
  -2.33142   0.19423   2.81822   4.90253  18.97260  22.37746  24.25037  26.63964
  30.86589  34.73803  39.69369  43.64814
 kpt#  16, nband= 12, wtk=  0.02344, kpt= -0.2500 -0.2500  0.3750 (reduced coord)
  -3.37965  -0.32851   3.52804   7.15122  18.32276  23.30123  25.07008  26.35265
  29.16826  35.08610  36.34125  43.34864
 kpt#  17, nband= 12, wtk=  0.04688, kpt= -0.1250 -0.2500  0.5000 (reduced coord)
  -5.30983   1.47225   5.02838   7.28355  19.43867  21.18464  24.11928  24.94009
  31.58714  34.01675  37.70783  42.62618
 kpt#  18, nband= 12, wtk=  0.02344, kpt= -0.1250 -0.1250 -0.3750 (reduced coord)
  -7.52490   3.57638   6.95915   9.59784  19.58216  20.23759  21.28520  25.81418
  32.13995  32.41730  35.45370  40.67852
 kpt#  19, nband= 12, wtk=  0.02344, kpt= -0.1250  0.0000  0.0000 (reduced coord)
  -9.82682   9.00898  10.71615  10.81263  17.90431  17.99682  18.40971  25.70384
  31.33427  35.13782  35.14337  37.74533
 kpt#  20, nband= 12, wtk=  0.02344, kpt=  0.5000  0.5000  0.1250 (reduced coord)
  -3.12425   0.73694   3.88246   5.37416  16.41519  18.45153  27.28185  27.61044
  33.43630  34.91798  41.73622  45.17585
 kpt#  21, nband= 12, wtk=  0.04688, kpt= -0.3750  0.5000  0.2500 (reduced coord)
  -2.32042   0.15914   2.82837   4.91896  18.99555  22.36613  24.24209  26.61773
  30.90880  34.72316  39.67323  43.65921
 kpt#  22, nband= 12, wtk=  0.02344, kpt= -0.3750 -0.3750  0.3750 (reduced coord)
  -3.37065  -0.36497   3.56259   7.14415  18.31832  23.34254  25.03272  26.44819
  29.08915  35.04143  36.36066  43.36122
 kpt#  23, nband= 12, wtk=  0.04688, kpt= -0.2500 -0.3750  0.5000 (reduced coord)
  -5.30859   1.44448   5.06412   7.27434  19.45219  21.20108  24.09134  24.96369
  31.59194  33.98334  37.70462  42.63553
 kpt#  24, nband= 12, wtk=  0.02344, kpt= -0.1250 -0.3750 -0.3750 (reduced coord)
  -6.38993   3.84904   6.14913   6.47083  16.64115  20.79953  24.49193  24.58643
  33.18373  33.86125  41.22023  43.42725
 kpt#  25, nband= 12, wtk=  0.02344, kpt= -0.2500 -0.2500 -0.3750 (reduced coord)
  -7.52493   3.54657   7.00108   9.58337  19.62640  20.23469  21.26761  25.83730
  32.10182  32.37846  35.48617  40.67190
 kpt#  26, nband= 12, wtk=  0.02344, kpt= -0.1250 -0.2500 -0.2500 (reduced coord)
  -8.66693   6.25358   8.50188   9.43060  17.32019  20.96936  20.97783  24.53950
  31.90430  32.52855  37.52391  39.54919
 kpt#  27, nband= 12, wtk=  0.00781, kpt= -0.1250 -0.1250 -0.1250 (reduced coord)
  -9.82695   8.94621  10.80326  10.80326  17.92447  17.92447  18.45612  25.71237
  31.32335  35.11523  35.11523  37.79824
 kpt#  28, nband= 12, wtk=  0.02344, kpt= -0.3750  0.0000  0.0000 (reduced coord)
  -6.41390   0.60722   8.80729   8.89374  19.81266  19.95048  20.52495  26.91456
  32.64373  35.61865  35.69179  36.52139
 kpt#  29, nband= 12, wtk=  0.02344, kpt=  0.5000  0.5000  0.3750 (reduced coord)
  -4.38727  -1.37925   7.23740   7.83907  19.11455  21.35665  22.08945  26.70270
  31.88142  35.62630  37.89209  38.32194
 kpt#  30, nband= 12, wtk=  0.00781, kpt= -0.3750 -0.3750 -0.3750 (reduced coord)
  -6.41291   0.58035   8.86549   8.86549  19.90094  19.90094  20.53081  26.96886
  32.56751  35.60012  35.60012  36.57687
 Total charge density [el/Bohr^3]
,     Maximum=    2.8114E-01  at reduced coord.    0.1667    0.1944    0.1667
,Next maximum=    2.8114E-01  at reduced coord.    0.1667    0.1667    0.1944
,     Minimum=    1.4544E-02  at reduced coord.    0.5000    0.4722    0.4722
,Next minimum=    1.4544E-02  at reduced coord.    0.4722    0.5000    0.4722
,  Integrated=    8.0000E+00

--------------------------------------------------------------------------------
 Components of total free energy (in Hartree) :

    Kinetic energy  =  6.98478884108217E+00
    Hartree energy  =  9.48983999634121E-01
    XC energy       = -3.83271660575427E+00
    Ewald energy    = -1.28837200023512E+01
    PspCore energy  =  6.29597247369282E-01
    Loc. psp. energy= -5.13944077378570E+00
    Spherical terms =  1.78493167596860E+00
    >>>>> Internal E= -1.15075756178370E+01

    -kT*entropy     = -2.83635311754038E-19
    >>>>>>>>> Etotal= -1.15075756178370E+01

 "Double-counting" decomposition of free energy:
    Band energy     =  6.91137521560937E-01
    Ewald energy    = -1.28837200023512E+01
    PspCore energy  =  6.29597247369282E-01
    Dble-C XC-energy= -7.12282863968543E-02
    Spherical terms =  1.26637777158950E-01
    >>>>> Internal E= -1.15075757426588E+01

    -kT*entropy     = -2.83635311754038E-19
    >>>> Etotal (DC)= -1.15075757426588E+01

  >Total energy in eV           = -3.13137057434938E+02
  >Total DC energy in eV        = -3.13137060831514E+02
--------------------------------------------------------------------------------
 rms coord change=  1.4630E-02   atom, delta coord (reduced):
     1       -0.014630033464     -0.014630033464     -0.014630033464
     2        0.014630033464      0.014630033464      0.014630033464

 Cartesian components of stress tensor (hartree/bohr^3)
  sigma(1 1)= -5.00310124E-05  sigma(3 2)= -6.22425111E-06
  sigma(2 2)= -5.00310124E-05  sigma(3 1)= -6.22425111E-06
  sigma(3 3)= -5.00310124E-05  sigma(2 1)= -6.22425111E-06

-Cartesian components of stress tensor (GPa)         [Pressure=  1.4720E+00 GPa]
- sigma(1 1)= -1.47196296E+00  sigma(3 2)= -1.83123759E-01
- sigma(2 2)= -1.47196296E+00  sigma(3 1)= -1.83123759E-01
- sigma(3 3)= -1.47196296E+00  sigma(2 1)= -1.83123759E-01

== END DATASET(S) ==============================================================
================================================================================
  
 -outvars: echo values of variables after computation  --------
        accesswff           1
            acell      6.6897252139E+00  6.6897252139E+00  6.6897252139E+00 Bohr
              amu      1.20110000E+01
           diemac      1.20000000E+01
          dilatmx      1.10000000E+00
             ecut      1.50000000E+01 Hartree
           ecutsm      5.00000000E-01 Hartree
           enunit           2
           etotal     -1.1507575743E+01
            fcart     -1.9918818296E-03 -1.9918818296E-03 -1.9918818296E-03
                       1.9918818296E-03  1.9918818296E-03  1.9918818296E-03
-          fftalg         401
      fft_opt_lob           2
           ionmov           3
           iprcch           6
              kpt     -1.25000000E-01 -2.50000000E-01  0.00000000E+00
                      -1.25000000E-01 -1.25000000E-01  1.25000000E-01
                      -1.25000000E-01  5.00000000E-01  0.00000000E+00
                      -2.50000000E-01 -3.75000000E-01  0.00000000E+00
                      -1.25000000E-01 -3.75000000E-01  1.25000000E-01
                      -2.50000000E-01 -2.50000000E-01  1.25000000E-01
                      -1.25000000E-01 -2.50000000E-01  2.50000000E-01
                      -1.25000000E-01 -1.25000000E-01  3.75000000E-01
                      -1.25000000E-01  2.50000000E-01  0.00000000E+00
                      -2.50000000E-01  3.75000000E-01  0.00000000E+00
                      -3.75000000E-01  5.00000000E-01  0.00000000E+00
                      -2.50000000E-01  5.00000000E-01  1.25000000E-01
                      -3.75000000E-01 -3.75000000E-01  1.25000000E-01
                      -2.50000000E-01 -3.75000000E-01  2.50000000E-01
                      -1.25000000E-01 -3.75000000E-01  3.75000000E-01
                      -2.50000000E-01 -2.50000000E-01  3.75000000E-01
                      -1.25000000E-01 -2.50000000E-01  5.00000000E-01
                      -1.25000000E-01 -1.25000000E-01 -3.75000000E-01
                      -1.25000000E-01  0.00000000E+00  0.00000000E+00
                       5.00000000E-01  5.00000000E-01  1.25000000E-01
                      -3.75000000E-01  5.00000000E-01  2.50000000E-01
                      -3.75000000E-01 -3.75000000E-01  3.75000000E-01
                      -2.50000000E-01 -3.75000000E-01  5.00000000E-01
                      -1.25000000E-01 -3.75000000E-01 -3.75000000E-01
                      -2.50000000E-01 -2.50000000E-01 -3.75000000E-01
                      -1.25000000E-01 -2.50000000E-01 -2.50000000E-01
                      -1.25000000E-01 -1.25000000E-01 -1.25000000E-01
                      -3.75000000E-01  0.00000000E+00  0.00000000E+00
                       5.00000000E-01  5.00000000E-01  3.75000000E-01
                      -3.75000000E-01 -3.75000000E-01 -3.75000000E-01
         kptrlatt        4   -4    4     -4    4    4     -4   -4    4
          kptrlen      2.80000000E+01
P           mkmem          15
            natom           2
            nband          12
            ngfft          18      18      18
          ngfftdg          36      36      36
             nkpt          30
-           npfft           2
-           npkpt           2
            nstep           5
             nsym          12
            ntime           3
           ntypat           1
              occ      2.000000  2.000000  2.000000  2.000000  0.000000  0.000000
                       0.000000  0.000000  0.000000  0.000000  0.000000  0.000000
                       2.000000  2.000000  2.000000  2.000000  0.000000  0.000000
                       0.000000  0.000000  0.000000  0.000000  0.000000  0.000000
                       2.000000  2.000000  2.000000  2.000000  0.000000  0.000000
                       0.000000  0.000000  0.000000  0.000000  0.000000  0.000000
                       2.000000  2.000000  2.000000  2.000000  0.000000  0.000000
                       0.000000  0.000000  0.000000  0.000000  0.000000  0.000000
                       2.000000  2.000000  2.000000  2.000000  0.000000  0.000000
                       0.000000  0.000000  0.000000  0.000000  0.000000  0.000000
                       2.000000  2.000000  2.000000  2.000000  0.000000  0.000000
                       0.000000  0.000000  0.000000  0.000000  0.000000  0.000000
                       2.000000  2.000000  2.000000  2.000000  0.000000  0.000000
                       0.000000  0.000000  0.000000  0.000000  0.000000  0.000000
                       2.000000  2.000000  2.000000  2.000000  0.000000  0.000000
                       0.000000  0.000000  0.000000  0.000000  0.000000  0.000000
                       2.000000  2.000000  2.000000  2.000000  0.000000  0.000000
                       0.000000  0.000000  0.000000  0.000000  0.000000  0.000000
                       2.000000  2.000000  2.000000  2.000000  0.000000  0.000000
                       0.000000  0.000000  0.000000  0.000000  0.000000  0.000000
                       2.000000  2.000000  2.000000  2.000000  0.000000  0.000000
                       0.000000  0.000000  0.000000  0.000000  0.000000  0.000000
                       2.000000  2.000000  2.000000  2.000000  0.000000  0.000000
                       0.000000  0.000000  0.000000  0.000000  0.000000  0.000000
                       2.000000  2.000000  2.000000  2.000000  0.000000  0.000000
                       0.000000  0.000000  0.000000  0.000000  0.000000  0.000000
                       2.000000  2.000000  2.000000  2.000000  0.000000  0.000000
                       0.000000  0.000000  0.000000  0.000000  0.000000  0.000000
                       2.000000  2.000000  2.000000  2.000000  0.000000  0.000000
                       0.000000  0.000000  0.000000  0.000000  0.000000  0.000000
                       2.000000  2.000000  2.000000  2.000000  0.000000  0.000000
                       0.000000  0.000000  0.000000  0.000000  0.000000  0.000000
                       2.000000  2.000000  2.000000  2.000000  0.000000  0.000000
                       0.000000  0.000000  0.000000  0.000000  0.000000  0.000000
                       2.000000  2.000000  2.000000  2.000000  0.000000  0.000000
                       0.000000  0.000000  0.000000  0.000000  0.000000  0.000000
                       2.000000  2.000000  2.000000  2.000000  0.000000  0.000000
                       0.000000  0.000000  0.000000  0.000000  0.000000  0.000000
                       2.000000  2.000000  2.000000  2.000000  0.000000  0.000000
                       0.000000  0.000000  0.000000  0.000000  0.000000  0.000000
                       2.000000  2.000000  2.000000  2.000000  0.000000  0.000000
                       0.000000  0.000000  0.000000  0.000000  0.000000  0.000000
                       2.000000  2.000000  2.000000  2.000000  0.000000  0.000000
                       0.000000  0.000000  0.000000  0.000000  0.000000  0.000000
                       2.000000  2.000000  2.000000  2.000000  0.000000  0.000000
                       0.000000  0.000000  0.000000  0.000000  0.000000  0.000000
                       2.000000  2.000000  2.000000  2.000000  0.000000  0.000000
                       0.000000  0.000000  0.000000  0.000000  0.000000  0.000000
                       2.000000  2.000000  2.000000  2.000000  0.000000  0.000000
                       0.000000  0.000000  0.000000  0.000000  0.000000  0.000000
                       2.000000  2.000000  2.000000  2.000000  0.000000  0.000000
                       0.000000  0.000000  0.000000  0.000000  0.000000  0.000000
                       2.000000  2.000000  2.000000  2.000000  0.000000  0.000000
                       0.000000  0.000000  0.000000  0.000000  0.000000  0.000000
                       2.000000  2.000000  2.000000  2.000000  0.000000  0.000000
                       0.000000  0.000000  0.000000  0.000000  0.000000  0.000000
                       2.000000  2.000000  2.000000  2.000000  0.000000  0.000000
                       0.000000  0.000000  0.000000  0.000000  0.000000  0.000000
                       2.000000  2.000000  2.000000  2.000000  0.000000  0.000000
                       0.000000  0.000000  0.000000  0.000000  0.000000  0.000000
           occopt           7
          optcell           1
        optforces           1
        paral_kgb           1
        pawecutdg      5.00000000E+01 Hartree
         pawmixdg           1
            rprim      0.0000000000E+00  5.0000000000E-01  5.0000000000E-01
                       5.0000000000E-01  0.0000000000E+00  5.0000000000E-01
                       5.0000000000E-01  5.0000000000E-01  0.0000000000E+00
           shiftk      5.00000000E-01  5.00000000E-01  5.00000000E-01
          spgroup         166
           strten     -5.0031012434E-05 -5.0031012434E-05 -5.0031012434E-05
                      -6.2242511125E-06 -6.2242511125E-06 -6.2242511125E-06
           symrel      1  0  0   0  1  0   0  0  1      -1  0  0   0 -1  0   0  0 -1
                       1  0  0   0  0  1   0  1  0      -1  0  0   0  0 -1   0 -1  0
                       0  1  0   0  0  1   1  0  0       0 -1  0   0  0 -1  -1  0  0
                       0  1  0   1  0  0   0  0  1       0 -1  0  -1  0  0   0  0 -1
                       0  0  1   1  0  0   0  1  0       0  0 -1  -1  0  0   0 -1  0
                       0  0  1   0  1  0   1  0  0       0  0 -1   0 -1  0  -1  0  0
            tnons      0.0000000  0.0000000  0.0000000     0.2200000  0.2200000  0.2200000
                       0.0000000  0.0000000  0.0000000     0.2200000  0.2200000  0.2200000
                       0.0000000  0.0000000  0.0000000     0.2200000  0.2200000  0.2200000
                       0.0000000  0.0000000  0.0000000     0.2200000  0.2200000  0.2200000
                       0.0000000  0.0000000  0.0000000     0.2200000  0.2200000  0.2200000
                       0.0000000  0.0000000  0.0000000     0.2200000  0.2200000  0.2200000
           toldff      1.00000000E-07
           tolmxf      1.00000000E-05
           tsmear      1.00000000E-03 Hartree
            typat      1  1
           useylm           1
         wfoptalg          14
              wtk        0.04688    0.02344    0.04688    0.04688    0.04688    0.02344
                         0.04688    0.02344    0.04688    0.04688    0.04688    0.04688
                         0.02344    0.04688    0.04688    0.02344    0.04688    0.02344
                         0.02344    0.02344    0.04688    0.02344    0.04688    0.02344
                         0.02344    0.02344    0.00781    0.02344    0.02344    0.00781
           xangst     -5.1791051645E-02 -5.1791051645E-02 -5.1791051645E-02
                       8.3060207693E-01  8.3060207693E-01  8.3060207693E-01
            xcart     -9.7870903743E-02 -9.7870903743E-02 -9.7870903743E-02
                       1.5696104508E+00  1.5696104508E+00  1.5696104508E+00
             xred     -1.4630033464E-02 -1.4630033464E-02 -1.4630033464E-02
                       2.3463003346E-01  2.3463003346E-01  2.3463003346E-01
            znucl        6.00000

================================================================================


- Timing analysis has been suppressed with timopt=0



================================================================================

 Suggested references for the acknowledgment of ABINIT usage.

 The users of ABINIT have little formal obligations with respect to the ABINIT group
 (those specified in the GNU General Public License, http://www.gnu.org/copyleft/gpl.txt).
 However, it is common practice in the scientific literature,
 to acknowledge the efforts of people that have made the research possible.
 In this spirit, please find below suggested citations of work written by ABINIT developers,
 corresponding to implementations inside of ABINIT that you have used in the present run.
 Note also that it will be of great value to readers of publications presenting these results,
 to read papers enabling them to understand the theoretical formalism and details
 of the ABINIT implementation.
 For information on why they are suggested, see also http://www.abinit.org/about/?text=acknowledgments.

 [1] Large scale ab initio calculations based on three levels of parallelization
 F. Bottin, S. Leroux, A. Knyazev, G. Zerah, Comput. Mat. Science 42, 329, (2008).
 Comment : in case paral_kgb is non-zero. Strong suggestion to cite this paper in your publications.
 This paper is also available at http://www.arxiv.org/abs/0707.3405

 [2] Implementation of the Projector Augmented-Wave Method in the ABINIT code.
 M. Torrent, F. Jollet, F. Bottin, G. Zerah, and X. Gonze Comput. Mat. Science 42, 337, (2008).
 Comment : PAW calculations. Strong suggestion to cite this paper.

 [3] ABINIT : First-principles approach of materials and nanosystem properties.
 X. Gonze, B. Amadon, P.-M. Anglade, J.-M. Beuken, F. Bottin, P. Boulanger, F. Bruneval,
 D. Caliste, R. Caracas, M. Cote, T. Deutsch, L. Genovese, Ph. Ghosez, M. Giantomassi
 S. Goedecker, D.R. Hamann, P. Hermet, F. Jollet, G. Jomard, S. Leroux, M. Mancini, S. Mazevet,
 M.J.T. Oliveira, G. Onida, Y. Pouillon, T. Rangel, G.-M. Rignanese, D. Sangalli, R. Shaltaf,
 M. Torrent, M.J. Verstraete, G. Zerah, J.W. Zwanziger
 Computer Phys. Comm. 180, 2582-2615 (2009).
 Comment : the third generic paper describing the ABINIT project.
 Note that a version of this paper, that is not formatted for Computer Phys. Comm. 
 is available at http://www.abinit.org/about/ABINIT_CPC_v10.pdf .
 The licence allows the authors to put it on the Web.

 [4] A brief introduction to the ABINIT software package.
 X. Gonze, G.-M. Rignanese, M. Verstraete, J.-M. Beuken, Y. Pouillon, R. Caracas, F. Jollet,
 M. Torrent, G. Zerah, M. Mikami, Ph. Ghosez, M. Veithen, J.-Y. Raty, V. Olevano, F. Bruneval,
 L. Reining, R. Godby, G. Onida, D.R. Hamann, and D.C. Allan.
 Z. Kristallogr. 220, 558-562 (2005).
 Comment : the second generic paper describing the ABINIT project. Note that this paper
 should be cited especially if you are using the GW part of ABINIT, as several authors
 of this part are not in the list of authors of the first or third paper.
 The .pdf of the latter paper is available at http://www.abinit.org/about/zfk_0505-06_558-562.pdf.
 Note that it should not redistributed (Copyright by Oldenburg Wissenshaftverlag,
 the licence allows the authors to put it on the Web).


 And optionally :

 [5] First-principles computation of material properties : the ABINIT software project. 
 X. Gonze, J.-M. Beuken, R. Caracas, F. Detraux, M. Fuchs, G.-M. Rignanese, L. Sindic,
 M. Verstraete, G. Zerah, F. Jollet, M. Torrent, A. Roy, M. Mikami, Ph. Ghosez, J.-Y. Raty, D.C. Allan.
 Computational Materials Science 25, 478-492 (2002). http://dx.doi.org/10.1016/S0927-0256(02)00325-7
 Comment : the original paper describing the ABINIT project.
-
- Proc.   0 individual time (sec): cpu=          7.2  wall=          7.2

================================================================================

 Calculation completed.
.Delivered    4 WARNINGs and   3 COMMENTs to log file.
+Overall time at end (sec) : cpu=         28.8  wall=         28.8
