
.Version 7.9.3 of ABINIT 
.(MPI version, prepared for a x86_64_linux_gnu4.7 computer) 

.Copyright (C) 1998-2014 ABINIT group . 
 ABINIT comes with ABSOLUTELY NO WARRANTY.
 It is free software, and you are welcome to redistribute it
 under certain conditions (GNU General Public License,
 see ~abinit/COPYING or http://www.gnu.org/copyleft/gpl.txt).

 ABINIT is a project of the Universite Catholique de Louvain,
 Corning Inc. and other collaborators, see ~abinit/doc/developers/contributors.txt .
 Please read ~abinit/doc/users/acknowledgments.html for suggested
 acknowledgments of the ABINIT effort.
 For more information, see http://www.abinit.org .

.Starting date : Sat 30 Aug 2014.
- ( at 10h10 )
  
- input  file    -> t69.in
- output file    -> t69_MPI4.out
- root for input  files -> t69_MPI4i
- root for output files -> t69_MPI4o


 DATASET    1 : space group F-4 3 m (#216); Bravais cF (face-center cubic)
================================================================================
 Values of the parameters that define the memory need for DATASET  1.
   intxc =         0  ionmov =         0    iscf =         3 xclevel =         1
  lmnmax =         2   lnmax =         2   mband =         4  mffmem =         1
P  mgfft =        10   mkmem =         1 mpssoang=         3     mpw =        21
  mqgrid =      3001   natom =         2    nfft =       500    nkpt =         2
  nloalg =         4  nspden =         1 nspinor =         1  nsppol =         1
    nsym =        24  n1xccc =         0  ntypat =         2  occopt =         1
================================================================================
P This job should need less than                       0.728 Mbytes of memory.
  Rough estimation (10% accuracy) of disk space for files :
_ WF disk file :      0.007 Mbytes ; DEN or POT disk file :      0.006 Mbytes.
================================================================================


 DATASET    2 : space group F-4 3 m (#216); Bravais cF (face-center cubic)
================================================================================
 Values of the parameters that define the memory need for DATASET  2.
   intxc =         0  ionmov =         0    iscf =        -2 xclevel =         1
  lmnmax =         2   lnmax =         2   mband =         4  mffmem =         1
P  mgfft =        10   mkmem =         8 mpssoang=         3     mpw =        43
  mqgrid =      3001   natom =         2    nfft =      1000    nkpt =        32
  nloalg =         4  nspden =         1 nspinor =         1  nsppol =         1
    nsym =        24  n1xccc =         0  ntypat =         2  occopt =         1
================================================================================
P This job should need less than                       0.800 Mbytes of memory.
  Rough estimation (10% accuracy) of disk space for files :
_ WF disk file :      0.086 Mbytes ; DEN or POT disk file :      0.010 Mbytes.
================================================================================


 DATASET    3 : space group F-4 3 m (#216); Bravais cF (face-center cubic)
================================================================================
 Values of the parameters that define the memory need for DATASET  3 (RF).
   intxc =         0    iscf =        -3 xclevel =         1  lmnmax =         2
   lnmax =         2   mband =         4  mffmem =         1   mgfft =        10
P  mkmem =         8  mkqmem =         8  mk1mem =         8 mpssoang=         3
     mpw =        43  mqgrid =      3001   natom =         2    nfft =      1000
    nkpt =        32  nloalg =         4  nspden =         1 nspinor =         1
  nsppol =         1    nsym =        24  n1xccc =         0  ntypat =         2
  occopt =         1
================================================================================
P This job should need less than                       0.879 Mbytes of memory.
  Rough estimation (10% accuracy) of disk space for files :
_ WF disk file :      0.086 Mbytes ; DEN or POT disk file :      0.010 Mbytes.
================================================================================


 DATASET    4 : space group F-4 3 m (#216); Bravais cF (face-center cubic)
================================================================================
 Values of the parameters that define the memory need for DATASET  4 (RF).
   intxc =         0    iscf =         3 xclevel =         1  lmnmax =         2
   lnmax =         2   mband =         4  mffmem =         1   mgfft =        10
P  mkmem =         8  mkqmem =         8  mk1mem =         8 mpssoang=         3
     mpw =        43  mqgrid =      3001   natom =         2    nfft =      1000
    nkpt =        32  nloalg =         4  nspden =         1 nspinor =         1
  nsppol =         1    nsym =        24  n1xccc =         0  ntypat =         2
  occopt =         1
================================================================================
P This job should need less than                       0.910 Mbytes of memory.
  Rough estimation (10% accuracy) of disk space for files :
_ WF disk file :      0.086 Mbytes ; DEN or POT disk file :      0.010 Mbytes.
================================================================================

--------------------------------------------------------------------------------
------------- Echo of variables that govern the present computation ------------
--------------------------------------------------------------------------------
-
- outvars: echo of selected default values                                      
-   accesswff0 =  0 , fftalg0 =112 , wfoptalg0 =  0
-
- outvars: echo of global parameters not present in the input file              
-  max_nthreads =    0
-
 -outvars: echo values of preprocessed input variables --------
        accesswff1          1
        accesswff2          0
        accesswff3          0
        accesswff4          0
            acell      1.0600000000E+01  1.0600000000E+01  1.0600000000E+01 Bohr
              amu      6.97200000E+01  7.49216000E+01
        autoparal           1
           diemac      6.00000000E+00
             ecut      2.00000000E+00 Hartree
-          fftalg1        401
-          fftalg2        112
-          fftalg3        112
-          fftalg4        112
      fft_opt_lob1          2
      fft_opt_lob2          1
      fft_opt_lob3          1
      fft_opt_lob4          1
           getddk1          0
           getddk2          0
           getddk3          3
           getddk4          3
           getden1          0
           getden2          1
           getden3          0
           getden4          0
           getwfk1          0
           getwfk2          1
           getwfk3          2
           getwfk4          2
           iprcch1          6
           iprcch2          2
           iprcch3          2
           iprcch4          2
             iscf1          3
             iscf2         -2
             iscf3         -3
             iscf4          3
              ixc           3
           jdtset        1    2    3    4
              kpt1    -2.50000000E-01  5.00000000E-01  0.00000000E+00
                      -2.50000000E-01  0.00000000E+00  0.00000000E+00
              kpt2    -2.50000000E-01  5.00000000E-01  0.00000000E+00
                       5.00000000E-01 -2.50000000E-01  0.00000000E+00
                      -2.50000000E-01 -2.50000000E-01  2.50000000E-01
                      -2.50000000E-01  0.00000000E+00  0.00000000E+00
                       5.00000000E-01  2.50000000E-01  0.00000000E+00
                      -2.50000000E-01  2.50000000E-01  2.50000000E-01
                       2.50000000E-01  5.00000000E-01  0.00000000E+00
                       5.00000000E-01  5.00000000E-01  2.50000000E-01
                      -2.50000000E-01  5.00000000E-01  5.00000000E-01
                       0.00000000E+00 -2.50000000E-01  0.00000000E+00
                       2.50000000E-01 -2.50000000E-01  2.50000000E-01
                       5.00000000E-01 -2.50000000E-01  5.00000000E-01
                      -2.50000000E-01 -2.50000000E-01 -2.50000000E-01
                       2.50000000E-01  0.00000000E+00  0.00000000E+00
                       5.00000000E-01  0.00000000E+00  2.50000000E-01
                      -2.50000000E-01  0.00000000E+00  5.00000000E-01
                       0.00000000E+00  2.50000000E-01  0.00000000E+00
                       2.50000000E-01  2.50000000E-01  2.50000000E-01
                       5.00000000E-01  2.50000000E-01  5.00000000E-01
                      -2.50000000E-01  2.50000000E-01 -2.50000000E-01
                       0.00000000E+00  5.00000000E-01  2.50000000E-01
                       2.50000000E-01  5.00000000E-01  5.00000000E-01
                       5.00000000E-01  5.00000000E-01 -2.50000000E-01
                       0.00000000E+00 -2.50000000E-01  5.00000000E-01
                       2.50000000E-01 -2.50000000E-01 -2.50000000E-01
                       0.00000000E+00  0.00000000E+00  2.50000000E-01
                       2.50000000E-01  0.00000000E+00  5.00000000E-01
                       5.00000000E-01  0.00000000E+00 -2.50000000E-01
                       0.00000000E+00  2.50000000E-01  5.00000000E-01
                       2.50000000E-01  2.50000000E-01 -2.50000000E-01
                       0.00000000E+00  5.00000000E-01 -2.50000000E-01
                       0.00000000E+00  0.00000000E+00 -2.50000000E-01
              kpt3    -2.50000000E-01  5.00000000E-01  0.00000000E+00
                       5.00000000E-01 -2.50000000E-01  0.00000000E+00
                      -2.50000000E-01 -2.50000000E-01  2.50000000E-01
                      -2.50000000E-01  0.00000000E+00  0.00000000E+00
                       5.00000000E-01  2.50000000E-01  0.00000000E+00
                      -2.50000000E-01  2.50000000E-01  2.50000000E-01
                       2.50000000E-01  5.00000000E-01  0.00000000E+00
                       5.00000000E-01  5.00000000E-01  2.50000000E-01
                      -2.50000000E-01  5.00000000E-01  5.00000000E-01
                       0.00000000E+00 -2.50000000E-01  0.00000000E+00
                       2.50000000E-01 -2.50000000E-01  2.50000000E-01
                       5.00000000E-01 -2.50000000E-01  5.00000000E-01
                      -2.50000000E-01 -2.50000000E-01 -2.50000000E-01
                       2.50000000E-01  0.00000000E+00  0.00000000E+00
                       5.00000000E-01  0.00000000E+00  2.50000000E-01
                      -2.50000000E-01  0.00000000E+00  5.00000000E-01
                       0.00000000E+00  2.50000000E-01  0.00000000E+00
                       2.50000000E-01  2.50000000E-01  2.50000000E-01
                       5.00000000E-01  2.50000000E-01  5.00000000E-01
                      -2.50000000E-01  2.50000000E-01 -2.50000000E-01
                       0.00000000E+00  5.00000000E-01  2.50000000E-01
                       2.50000000E-01  5.00000000E-01  5.00000000E-01
                       5.00000000E-01  5.00000000E-01 -2.50000000E-01
                       0.00000000E+00 -2.50000000E-01  5.00000000E-01
                       2.50000000E-01 -2.50000000E-01 -2.50000000E-01
                       0.00000000E+00  0.00000000E+00  2.50000000E-01
                       2.50000000E-01  0.00000000E+00  5.00000000E-01
                       5.00000000E-01  0.00000000E+00 -2.50000000E-01
                       0.00000000E+00  2.50000000E-01  5.00000000E-01
                       2.50000000E-01  2.50000000E-01 -2.50000000E-01
                       0.00000000E+00  5.00000000E-01 -2.50000000E-01
                       0.00000000E+00  0.00000000E+00 -2.50000000E-01
              kpt4    -2.50000000E-01  5.00000000E-01  0.00000000E+00
                       5.00000000E-01 -2.50000000E-01  0.00000000E+00
                      -2.50000000E-01 -2.50000000E-01  2.50000000E-01
                      -2.50000000E-01  0.00000000E+00  0.00000000E+00
                       5.00000000E-01  2.50000000E-01  0.00000000E+00
                      -2.50000000E-01  2.50000000E-01  2.50000000E-01
                       2.50000000E-01  5.00000000E-01  0.00000000E+00
                       5.00000000E-01  5.00000000E-01  2.50000000E-01
                      -2.50000000E-01  5.00000000E-01  5.00000000E-01
                       0.00000000E+00 -2.50000000E-01  0.00000000E+00
                       2.50000000E-01 -2.50000000E-01  2.50000000E-01
                       5.00000000E-01 -2.50000000E-01  5.00000000E-01
                      -2.50000000E-01 -2.50000000E-01 -2.50000000E-01
                       2.50000000E-01  0.00000000E+00  0.00000000E+00
                       5.00000000E-01  0.00000000E+00  2.50000000E-01
                      -2.50000000E-01  0.00000000E+00  5.00000000E-01
                       0.00000000E+00  2.50000000E-01  0.00000000E+00
                       2.50000000E-01  2.50000000E-01  2.50000000E-01
                       5.00000000E-01  2.50000000E-01  5.00000000E-01
                      -2.50000000E-01  2.50000000E-01 -2.50000000E-01
                       0.00000000E+00  5.00000000E-01  2.50000000E-01
                       2.50000000E-01  5.00000000E-01  5.00000000E-01
                       5.00000000E-01  5.00000000E-01 -2.50000000E-01
                       0.00000000E+00 -2.50000000E-01  5.00000000E-01
                       2.50000000E-01 -2.50000000E-01 -2.50000000E-01
                       0.00000000E+00  0.00000000E+00  2.50000000E-01
                       2.50000000E-01  0.00000000E+00  5.00000000E-01
                       5.00000000E-01  0.00000000E+00 -2.50000000E-01
                       0.00000000E+00  2.50000000E-01  5.00000000E-01
                       2.50000000E-01  2.50000000E-01 -2.50000000E-01
                       0.00000000E+00  5.00000000E-01 -2.50000000E-01
                       0.00000000E+00  0.00000000E+00 -2.50000000E-01
           kptopt1          1
           kptopt2          3
           kptopt3          3
           kptopt4          3
         kptrlatt        2   -2    2     -2    2    2     -2   -2    2
          kptrlen      2.12000000E+01
P           mkmem1          1
P           mkmem2          8
P           mkmem3          8
P           mkmem4          8
P          mkqmem1          1
P          mkqmem2          8
P          mkqmem3          8
P          mkqmem4          8
P          mk1mem1          1
P          mk1mem2          8
P          mk1mem3          8
P          mk1mem4          8
            natom           2
            nband1          4
            nband2          4
            nband3          4
            nband4          4
           ndtset           4
            ngfft          10      10      10
             nkpt1          2
             nkpt2         32
             nkpt3         32
             nkpt4         32
-           npfft1          2
-           npfft2          1
-           npfft3          1
-           npfft4          1
-           npkpt1          2
-           npkpt2          4
-           npkpt3          1
-           npkpt4          1
-          nppert1          1
-          nppert2          1
-          nppert3          1
-          nppert4          2
             nqpt1          0
             nqpt2          0
             nqpt3          1
             nqpt4          1
            nstep          50
             nsym          24
           ntypat           2
              occ1     2.000000  2.000000  2.000000  2.000000
              occ3     2.000000  2.000000  2.000000  2.000000
              occ4     2.000000  2.000000  2.000000  2.000000
        optdriver1          0
        optdriver2          0
        optdriver3          1
        optdriver4          1
           ortalg1         -2
           ortalg2          2
           ortalg3          2
           ortalg4          2
        paral_kgb1          1
        paral_kgb2          0
        paral_kgb3          0
        paral_kgb4          0
         paral_rf1          0
         paral_rf2          0
         paral_rf3          0
         paral_rf4          1
          rfatpol1          1       1
          rfatpol2          1       1
          rfatpol3          1       1
          rfatpol4          1       2
            rfdir1          0       0       0
            rfdir2          0       0       0
            rfdir3          1       0       0
            rfdir4          1       1       1
           rfelfd1          0
           rfelfd2          0
           rfelfd3          2
           rfelfd4          3
           rfphon1          0
           rfphon2          0
           rfphon3          0
           rfphon4          1
            rprim      0.0000000000E+00  5.0000000000E-01  5.0000000000E-01
                       5.0000000000E-01  0.0000000000E+00  5.0000000000E-01
                       5.0000000000E-01  5.0000000000E-01  0.0000000000E+00
           shiftk      5.00000000E-01  5.00000000E-01  5.00000000E-01
          spgroup         216
           symrel      1  0  0   0  1  0   0  0  1       0  1 -1   1  0 -1   0  0 -1
                       0 -1  1   0 -1  0   1 -1  0      -1  0  0  -1  0  1  -1  1  0
                       0  1  0   0  0  1   1  0  0       1  0 -1   0  0 -1   0  1 -1
                       0 -1  0   1 -1  0   0 -1  1      -1  0  1  -1  1  0  -1  0  0
                       0  0  1   1  0  0   0  1  0       0  0 -1   0  1 -1   1  0 -1
                       1 -1  0   0 -1  1   0 -1  0      -1  1  0  -1  0  0  -1  0  1
                       1  0 -1   0  1 -1   0  0 -1       0  1  0   1  0  0   0  0  1
                      -1  0  1  -1  0  0  -1  1  0       0 -1  0   0 -1  1   1 -1  0
                      -1  1  0  -1  0  1  -1  0  0       1 -1  0   0 -1  0   0 -1  1
                       0  0 -1   1  0 -1   0  1 -1       0  0  1   0  1  0   1  0  0
                       0 -1  1   1 -1  0   0 -1  0      -1  0  0  -1  1  0  -1  0  1
                       1  0  0   0  0  1   0  1  0       0  1 -1   0  0 -1   1  0 -1
           tolwfr1     1.00000000E-22
           tolwfr2     1.00000000E-22
           tolwfr3     1.00000000E-22
           tolwfr4     1.00000000E-16
            typat      1  2
         wfoptalg1         14
         wfoptalg2          0
         wfoptalg3          0
         wfoptalg4          0
              wtk1       0.75000    0.25000
              wtk2       0.03125    0.03125    0.03125    0.03125    0.03125    0.03125
                         0.03125    0.03125    0.03125    0.03125    0.03125    0.03125
                         0.03125    0.03125    0.03125    0.03125    0.03125    0.03125
                         0.03125    0.03125    0.03125    0.03125    0.03125    0.03125
                         0.03125    0.03125    0.03125    0.03125    0.03125    0.03125
                         0.03125    0.03125
              wtk3       0.03125    0.03125    0.03125    0.03125    0.03125    0.03125
                         0.03125    0.03125    0.03125    0.03125    0.03125    0.03125
                         0.03125    0.03125    0.03125    0.03125    0.03125    0.03125
                         0.03125    0.03125    0.03125    0.03125    0.03125    0.03125
                         0.03125    0.03125    0.03125    0.03125    0.03125    0.03125
                         0.03125    0.03125
              wtk4       0.03125    0.03125    0.03125    0.03125    0.03125    0.03125
                         0.03125    0.03125    0.03125    0.03125    0.03125    0.03125
                         0.03125    0.03125    0.03125    0.03125    0.03125    0.03125
                         0.03125    0.03125    0.03125    0.03125    0.03125    0.03125
                         0.03125    0.03125    0.03125    0.03125    0.03125    0.03125
                         0.03125    0.03125
           xangst      0.0000000000E+00  0.0000000000E+00  0.0000000000E+00
                       1.4023196028E+00  1.4023196028E+00  1.4023196028E+00
            xcart      0.0000000000E+00  0.0000000000E+00  0.0000000000E+00
                       2.6500000000E+00  2.6500000000E+00  2.6500000000E+00
             xred      0.0000000000E+00  0.0000000000E+00  0.0000000000E+00
                       2.5000000000E-01  2.5000000000E-01  2.5000000000E-01
            znucl       31.00000   33.00000

================================================================================

 chkinp: Checking input parameters for consistency, jdtset=   1.

 chkinp: Checking input parameters for consistency, jdtset=   2.

 chkinp: Checking input parameters for consistency, jdtset=   3.

 chkinp: Checking input parameters for consistency, jdtset=   4.

================================================================================
== DATASET  1 ==================================================================
-   nproc =    4

 Exchange-correlation functional for the present dataset will be:
  LDA: old Teter (4/91) fit to Ceperley-Alder data - ixc=3

 Real(R)+Recip(G) space primitive vectors, cartesian coordinates (Bohr,Bohr^-1):
 R(1)=  0.0000000  5.3000000  5.3000000  G(1)= -0.0943396  0.0943396  0.0943396
 R(2)=  5.3000000  0.0000000  5.3000000  G(2)=  0.0943396 -0.0943396  0.0943396
 R(3)=  5.3000000  5.3000000  0.0000000  G(3)=  0.0943396  0.0943396 -0.0943396
 Unit cell volume ucvol=  2.9775400E+02 bohr^3
 Angles (23,13,12)=  6.00000000E+01  6.00000000E+01  6.00000000E+01 degrees

 getcut: wavevector=  0.0000  0.0000  0.0000  ngfft=  10  10  10
         ecut(hartree)=      2.000   => boxcut(ratio)=   2.11655

--- Pseudopotential description ------------------------------------------------
- pspini: atom type   1  psp file is /data/ABINIT/testf_gcc47/trunk_7.9.3-private/tests/Psps_for_tests/31ga.SGS_mod
- pspatm: opening atomic psp file    /data/ABINIT/testf_gcc47/trunk_7.9.3-private/tests/Psps_for_tests/31ga.SGS_mod
-   pspot from prpsa - Bachelet or Stumpf table ( !! OLD, only for tests )
- 31.00000   3.00000    900101                znucl, zion, pspdat
    5    3    2    2       267   0.00000      pspcod,pspxc,lmax,lloc,mmax,r2well
    3.225807E-04    4.879035E-02              r1 and al (Hamman grid)
    0   0.000   0.000    1   1.2712000        l,e99.0,e99.9,nproj,rcpsp
   0.00000000   0.00000000   0.00000000   0.00000000     rms, ekb1, ekb2, epsatm
    1   0.000   0.000    1   1.4316000        l,e99.0,e99.9,nproj,rcpsp
   0.00000000   0.00000000   0.00000000   0.00000000     rms, ekb1, ekb2, epsatm
    2   0.000   0.000    0   1.4889000        l,e99.0,e99.9,nproj,rcpsp
   0.00000000   0.00000000   0.00000000   0.00000000     rms, ekb1, ekb2, epsatm
    0.00000000000000    0.00000000000000    0.00000000000000   rchrg,fchrg,qchrg
 pspatm: epsatm=   19.73612150
         --- l  ekb(1:nproj) -->
             0    9.397339
             1   -0.525725
 pspatm: atomic psp has been read  and splines computed

- pspini: atom type   2  psp file is /data/ABINIT/testf_gcc47/trunk_7.9.3-private/tests/Psps_for_tests/33as.SGS_mod
- pspatm: opening atomic psp file    /data/ABINIT/testf_gcc47/trunk_7.9.3-private/tests/Psps_for_tests/33as.SGS_mod
-   pspot from prpsa - Bachelet or Stumpf table ( !! OLD, for testing purposes only )
- 33.00000   5.00000    900101                znucl, zion, pspdat
    5    3    2    2       269   0.00000      pspcod,pspxc,lmax,lloc,mmax,r2well
    3.030304E-04    4.879035E-02              r1 and al (Hamman grid)
    0   0.000   0.000    1   1.0000000        l,e99.0,e99.9,nproj,rcpsp
   0.00000000   0.00000000   0.00000000   0.00000000     rms, ekb1, ekb2, epsatm
    1   0.000   0.000    1   1.0000000        l,e99.0,e99.9,nproj,rcpsp
   0.00000000   0.00000000   0.00000000   0.00000000     rms, ekb1, ekb2, epsatm
    2   0.000   0.000    0   1.0000000        l,e99.0,e99.9,nproj,rcpsp
   0.00000000   0.00000000   0.00000000   0.00000000     rms, ekb1, ekb2, epsatm
    0.00000000000000    0.00000000000000    0.00000000000000   rchrg,fchrg,qchrg
 pspatm: epsatm=   26.05495600
         --- l  ekb(1:nproj) -->
             0    9.019459
             1   -0.908274
 pspatm: atomic psp has been read  and splines computed

   3.66328620E+02                                ecore*ucvol(ha*bohr**3)
--------------------------------------------------------------------------------

P newkpt: treating      4 bands with npw=      21 for ikpt=   1 by node    0
P newkpt: treating      4 bands with npw=      21 for ikpt=   2 by node    1

_setup2: Arith. and geom. avg. npw (full set) are      21.000      21.000

================================================================================

     iter   Etot(hartree)      deltaE(h)  residm     vres2
 ETOT  1  -8.3467524694771    -8.347E+00 4.269E-03 5.842E-01
 ETOT  2  -8.3600589787047    -1.331E-02 1.251E-06 3.133E-02
 ETOT  3  -8.3602756692756    -2.167E-04 3.050E-07 9.204E-04
 ETOT  4  -8.3602804033924    -4.734E-06 3.456E-09 6.083E-05
 ETOT  5  -8.3602806413218    -2.379E-07 3.716E-10 2.411E-06
 ETOT  6  -8.3602806592374    -1.792E-08 3.187E-11 1.650E-07
 ETOT  7  -8.3602806602690    -1.032E-09 1.645E-12 1.094E-08
 ETOT  8  -8.3602806603097    -4.073E-11 2.611E-14 9.579E-10
 ETOT  9  -8.3602806603135    -3.824E-12 8.940E-15 3.950E-11
 ETOT 10  -8.3602806603138    -3.109E-13 6.740E-16 4.025E-12
 ETOT 11  -8.3602806603139    -3.553E-14 3.413E-17 3.132E-13
 ETOT 12  -8.3602806603139     7.105E-15 5.873E-19 2.957E-14
 ETOT 13  -8.3602806603139     1.776E-15 2.618E-19 9.660E-16
 ETOT 14  -8.3602806603139     3.553E-15 2.069E-20 1.087E-16
 ETOT 15  -8.3602806603139    -3.553E-15 8.287E-22 8.864E-18
 ETOT 16  -8.3602806603139    -1.776E-15 9.761E-23 7.266E-19

 At SCF step   16   max residual=  9.76E-23 < tolwfr=  1.00E-22 =>converged.

 Cartesian components of stress tensor (hartree/bohr^3)
  sigma(1 1)=  1.17275657E-03  sigma(3 2)=  0.00000000E+00
  sigma(2 2)=  1.17275657E-03  sigma(3 1)=  0.00000000E+00
  sigma(3 3)=  1.17275657E-03  sigma(2 1)=  0.00000000E+00

================================================================================

 ----iterations are completed or convergence reached----

 Mean square residual over all n,k,spin=   6.6159E-23; max=  9.7612E-23
  -0.2500  0.5000  0.0000    1  9.76122E-23 kpt; spin; max resid(k); each band:
  3.74E-23 6.99E-23 9.76E-23 5.98E-23
  -0.2500  0.0000  0.0000    1  7.83936E-23 kpt; spin; max resid(k); each band:
  4.73E-23 7.07E-23 6.81E-23 7.84E-23
 reduced coordinates (array xred) for    2 atoms
       0.000000000000      0.000000000000      0.000000000000
       0.250000000000      0.250000000000      0.250000000000
 rms dE/dt=  0.0000E+00; max dE/dt=  0.0000E+00; dE/dt below (all hartree)
    1       0.000000000000      0.000000000000      0.000000000000
    2       0.000000000000      0.000000000000      0.000000000000

 cartesian coordinates (angstrom) at end:
    1      0.00000000000000     0.00000000000000     0.00000000000000
    2      1.40231960276350     1.40231960276350     1.40231960276350

 cartesian forces (hartree/bohr) at end:
    1     -0.00000000000000    -0.00000000000000    -0.00000000000000
    2     -0.00000000000000    -0.00000000000000    -0.00000000000000
 frms,max,avg= 0.0000000E+00 0.0000000E+00   0.000E+00  0.000E+00  0.000E+00 h/b

 cartesian forces (eV/Angstrom) at end:
    1     -0.00000000000000    -0.00000000000000    -0.00000000000000
    2     -0.00000000000000    -0.00000000000000    -0.00000000000000
 frms,max,avg= 0.0000000E+00 0.0000000E+00   0.000E+00  0.000E+00  0.000E+00 e/A
 length scales= 10.600000000000 10.600000000000 10.600000000000 bohr
              =  5.609278411054  5.609278411054  5.609278411054 angstroms
 prteigrs : about to open file t69_MPI4o_DS1_EIG
 Fermi (or HOMO) energy (hartree) =  -0.00555   Average Vxc (hartree)=  -0.32267
 Eigenvalues (hartree) for nkpt=   2  k points:
 kpt#   1, nband=  4, wtk=  0.75000, kpt= -0.2500  0.5000  0.0000 (reduced coord)
  -0.31094  -0.18061  -0.09069  -0.05318
 kpt#   2, nband=  4, wtk=  0.25000, kpt= -0.2500  0.0000  0.0000 (reduced coord)
  -0.37113  -0.09440  -0.00555  -0.00555
 Total charge density [el/Bohr^3]
,     Maximum=    7.7544E-02  at reduced coord.    0.1000    0.2000    0.0000
,Next maximum=    7.7544E-02  at reduced coord.    0.2000    0.2000    0.0000
,     Minimum=    2.0578E-03  at reduced coord.    0.5000    0.5000    0.0000
,Next minimum=    2.3078E-03  at reduced coord.    0.8000    0.7000    0.2000
,  Integrated=    8.0000E+00

--------------------------------------------------------------------------------
 Components of total free energy (in Hartree) :

    Kinetic energy  =  2.88491242291343E+00
    Hartree energy  =  6.26860585479831E-01
    XC energy       = -2.35493132769419E+00
    Ewald energy    = -8.48789573682593E+00
    PspCore energy  =  1.23030629308481E+00
    Loc. psp. energy= -2.23913567477858E+00
    NL   psp  energy= -2.03972224932251E-02
    >>>>>>>>> Etotal= -8.36028066031386E+00

 Other information on the energy :
    Total energy(eV)= -2.27494806225135E+02 ; Band energy (Ha)=  -1.1914365321E+00
--------------------------------------------------------------------------------

 Cartesian components of stress tensor (hartree/bohr^3)
  sigma(1 1)=  1.17275657E-03  sigma(3 2)=  0.00000000E+00
  sigma(2 2)=  1.17275657E-03  sigma(3 1)=  0.00000000E+00
  sigma(3 3)=  1.17275657E-03  sigma(2 1)=  0.00000000E+00

-Cartesian components of stress tensor (GPa)         [Pressure= -3.4504E+01 GPa]
- sigma(1 1)=  3.45036838E+01  sigma(3 2)=  0.00000000E+00
- sigma(2 2)=  3.45036838E+01  sigma(3 1)=  0.00000000E+00
- sigma(3 3)=  3.45036838E+01  sigma(2 1)=  0.00000000E+00

================================================================================
== DATASET  2 ==================================================================
-   nproc =    4

 mkfilename : getwfk/=0, take file _WFK from output of DATASET   1.

 mkfilename : getden/=0, take file _DEN from output of DATASET   1.

 Exchange-correlation functional for the present dataset will be:
  LDA: old Teter (4/91) fit to Ceperley-Alder data - ixc=3

 Real(R)+Recip(G) space primitive vectors, cartesian coordinates (Bohr,Bohr^-1):
 R(1)=  0.0000000  5.3000000  5.3000000  G(1)= -0.0943396  0.0943396  0.0943396
 R(2)=  5.3000000  0.0000000  5.3000000  G(2)=  0.0943396 -0.0943396  0.0943396
 R(3)=  5.3000000  5.3000000  0.0000000  G(3)=  0.0943396  0.0943396 -0.0943396
 Unit cell volume ucvol=  2.9775400E+02 bohr^3
 Angles (23,13,12)=  6.00000000E+01  6.00000000E+01  6.00000000E+01 degrees

 getcut: wavevector=  0.0000  0.0000  0.0000  ngfft=  10  10  10
         ecut(hartree)=      2.000   => boxcut(ratio)=   2.11655
--------------------------------------------------------------------------------

-inwffil : will read wavefunctions from disk file t69_MPI4o_DS1_WFK
- newkpt: read input wf with ikpt,npw=   1      41, make ikpt,npw=   1      41
- newkpt: read input wf with ikpt,npw=   1      41, make ikpt,npw=   2      41
- newkpt: read input wf with ikpt,npw=   1      41, make ikpt,npw=   3      41
- newkpt: read input wf with ikpt,npw=   2      43, make ikpt,npw=   4      43
- newkpt: read input wf with ikpt,npw=   1      41, make ikpt,npw=   5      41
- newkpt: read input wf with ikpt,npw=   1      41, make ikpt,npw=   6      41
- newkpt: read input wf with ikpt,npw=   1      41, make ikpt,npw=   7      41
- newkpt: read input wf with ikpt,npw=   1      41, make ikpt,npw=   8      41


================================================================================
 prteigrs : about to open file t69_MPI4o_DS2_EIG
 Non-SCF case, kpt    1 ( -0.25000  0.50000  0.00000), residuals and eigenvalues=
  9.12E-23  9.17E-23  3.71E-23  6.78E-23
 -3.1094E-01 -1.8061E-01 -9.0688E-02 -5.3181E-02
 Non-SCF case, kpt    2 (  0.50000 -0.25000  0.00000), residuals and eigenvalues=
  7.99E-23  5.73E-23  3.73E-23  4.76E-23
 -3.1094E-01 -1.8061E-01 -9.0688E-02 -5.3181E-02
 Non-SCF case, kpt    3 ( -0.25000 -0.25000  0.25000), residuals and eigenvalues=
  9.58E-23  8.58E-23  4.29E-23  6.97E-23
 -3.1094E-01 -1.8061E-01 -9.0688E-02 -5.3181E-02
 Non-SCF case, kpt    4 ( -0.25000  0.00000  0.00000), residuals and eigenvalues=
  6.45E-23  9.88E-23  3.89E-23  5.87E-23
 -3.7113E-01 -9.4398E-02 -5.5454E-03 -5.5454E-03
 Non-SCF case, kpt    5 (  0.50000  0.25000  0.00000), residuals and eigenvalues=
  7.99E-23  5.73E-23  3.73E-23  4.76E-23
 -3.1094E-01 -1.8061E-01 -9.0688E-02 -5.3181E-02
 Non-SCF case, kpt    6 ( -0.25000  0.25000  0.25000), residuals and eigenvalues=
  8.50E-23  6.79E-23  4.37E-23  7.05E-23
 -3.1094E-01 -1.8061E-01 -9.0688E-02 -5.3181E-02
 Non-SCF case, kpt    7 (  0.25000  0.50000  0.00000), residuals and eigenvalues=
  9.12E-23  9.17E-23  3.71E-23  6.78E-23
 -3.1094E-01 -1.8061E-01 -9.0688E-02 -5.3181E-02
 Non-SCF case, kpt    8 (  0.50000  0.50000  0.25000), residuals and eigenvalues=
  7.35E-23  9.99E-23  3.97E-23  4.99E-23
 -3.1094E-01 -1.8061E-01 -9.0688E-02 -5.3181E-02
 Non-SCF case, kpt    9 ( -0.25000  0.50000  0.50000), residuals and eigenvalues=
  9.76E-23  9.52E-23  4.08E-23  4.55E-23
 -3.1094E-01 -1.8061E-01 -9.0688E-02 -5.3181E-02
 Non-SCF case, kpt   10 (  0.00000 -0.25000  0.00000), residuals and eigenvalues=
  6.79E-23  9.03E-23  4.68E-23  7.07E-23
 -3.7113E-01 -9.4398E-02 -5.5454E-03 -5.5454E-03
 Non-SCF case, kpt   11 (  0.25000 -0.25000  0.25000), residuals and eigenvalues=
  8.29E-23  9.00E-23  4.41E-23  6.22E-23
 -3.1094E-01 -1.8061E-01 -9.0688E-02 -5.3181E-02
 Non-SCF case, kpt   12 (  0.50000 -0.25000  0.50000), residuals and eigenvalues=
  8.08E-23  9.01E-23  3.80E-23  8.18E-23
 -3.1094E-01 -1.8061E-01 -9.0688E-02 -5.3181E-02
 Non-SCF case, kpt   13 ( -0.25000 -0.25000 -0.25000), residuals and eigenvalues=
  6.79E-23  9.03E-23  4.19E-23  5.29E-23
 -3.7113E-01 -9.4398E-02 -5.5454E-03 -5.5454E-03
 Non-SCF case, kpt   14 (  0.25000  0.00000  0.00000), residuals and eigenvalues=
  6.45E-23  9.88E-23  3.89E-23  5.87E-23
 -3.7113E-01 -9.4398E-02 -5.5454E-03 -5.5454E-03
 Non-SCF case, kpt   15 (  0.50000  0.00000  0.25000), residuals and eigenvalues=
  6.88E-23  9.99E-23  4.13E-23  5.79E-23
 -3.1094E-01 -1.8061E-01 -9.0688E-02 -5.3181E-02
 Non-SCF case, kpt   16 ( -0.25000  0.00000  0.50000), residuals and eigenvalues=
  4.93E-23  9.17E-23  4.16E-23  5.66E-23
 -3.1094E-01 -1.8061E-01 -9.0688E-02 -5.3181E-02
 Non-SCF case, kpt   17 (  0.00000  0.25000  0.00000), residuals and eigenvalues=
  6.79E-23  9.03E-23  4.68E-23  7.07E-23
 -3.7113E-01 -9.4398E-02 -5.5454E-03 -5.5454E-03
 Non-SCF case, kpt   18 (  0.25000  0.25000  0.25000), residuals and eigenvalues=
  6.79E-23  9.03E-23  4.19E-23  5.29E-23
 -3.7113E-01 -9.4398E-02 -5.5454E-03 -5.5454E-03
 Non-SCF case, kpt   19 (  0.50000  0.25000  0.50000), residuals and eigenvalues=
  8.08E-23  9.01E-23  3.80E-23  8.18E-23
 -3.1094E-01 -1.8061E-01 -9.0688E-02 -5.3181E-02
 Non-SCF case, kpt   20 ( -0.25000  0.25000 -0.25000), residuals and eigenvalues=
  8.29E-23  9.00E-23  4.41E-23  6.22E-23
 -3.1094E-01 -1.8061E-01 -9.0688E-02 -5.3181E-02
 Non-SCF case, kpt   21 (  0.00000  0.50000  0.25000), residuals and eigenvalues=
  8.03E-23  9.68E-23  4.00E-23  7.36E-23
 -3.1094E-01 -1.8061E-01 -9.0688E-02 -5.3181E-02
 Non-SCF case, kpt   22 (  0.25000  0.50000  0.50000), residuals and eigenvalues=
  9.76E-23  9.52E-23  4.08E-23  4.55E-23
 -3.1094E-01 -1.8061E-01 -9.0688E-02 -5.3181E-02
 Non-SCF case, kpt   23 (  0.50000  0.50000 -0.25000), residuals and eigenvalues=
  7.35E-23  9.99E-23  3.97E-23  4.99E-23
 -3.1094E-01 -1.8061E-01 -9.0688E-02 -5.3181E-02
 Non-SCF case, kpt   24 (  0.00000 -0.25000  0.50000), residuals and eigenvalues=
  5.30E-23  9.79E-23  4.04E-23  4.77E-23
 -3.1094E-01 -1.8061E-01 -9.0688E-02 -5.3181E-02
 Non-SCF case, kpt   25 (  0.25000 -0.25000 -0.25000), residuals and eigenvalues=
  8.50E-23  6.79E-23  4.37E-23  7.05E-23
 -3.1094E-01 -1.8061E-01 -9.0688E-02 -5.3181E-02
 Non-SCF case, kpt   26 (  0.00000  0.00000  0.25000), residuals and eigenvalues=
  7.38E-23  7.66E-23  4.84E-23  5.55E-23
 -3.7113E-01 -9.4398E-02 -5.5454E-03 -5.5454E-03
 Non-SCF case, kpt   27 (  0.25000  0.00000  0.50000), residuals and eigenvalues=
  4.93E-23  9.17E-23  4.16E-23  5.66E-23
 -3.1094E-01 -1.8061E-01 -9.0688E-02 -5.3181E-02
 Non-SCF case, kpt   28 (  0.50000  0.00000 -0.25000), residuals and eigenvalues=
  6.88E-23  9.99E-23  4.13E-23  5.79E-23
 -3.1094E-01 -1.8061E-01 -9.0688E-02 -5.3181E-02
 Non-SCF case, kpt   29 (  0.00000  0.25000  0.50000), residuals and eigenvalues=
  5.30E-23  9.79E-23  4.04E-23  4.77E-23
 -3.1094E-01 -1.8061E-01 -9.0688E-02 -5.3181E-02
 Non-SCF case, kpt   30 (  0.25000  0.25000 -0.25000), residuals and eigenvalues=
  9.58E-23  8.58E-23  4.29E-23  6.97E-23
 -3.1094E-01 -1.8061E-01 -9.0688E-02 -5.3181E-02
 Non-SCF case, kpt   31 (  0.00000  0.50000 -0.25000), residuals and eigenvalues=
  8.03E-23  9.68E-23  4.00E-23  7.36E-23
 -3.1094E-01 -1.8061E-01 -9.0688E-02 -5.3181E-02
 Non-SCF case, kpt   32 (  0.00000  0.00000 -0.25000), residuals and eigenvalues=
  7.38E-23  7.66E-23  4.84E-23  5.55E-23
 -3.7113E-01 -9.4398E-02 -5.5454E-03 -5.5454E-03
================================================================================

 ----iterations are completed or convergence reached----

 Mean square residual over all n,k,spin=   6.6624E-23; max=  9.9946E-23
  -0.2500  0.5000  0.0000    1  9.16842E-23 kpt; spin; max resid(k); each band:
  9.12E-23 9.17E-23 3.71E-23 6.78E-23
   0.5000 -0.2500  0.0000    1  7.98514E-23 kpt; spin; max resid(k); each band:
  7.99E-23 5.73E-23 3.73E-23 4.76E-23
  -0.2500 -0.2500  0.2500    1  9.57835E-23 kpt; spin; max resid(k); each band:
  9.58E-23 8.58E-23 4.29E-23 6.97E-23
  -0.2500  0.0000  0.0000    1  9.88367E-23 kpt; spin; max resid(k); each band:
  6.45E-23 9.88E-23 3.89E-23 5.87E-23
   0.5000  0.2500  0.0000    1  7.98517E-23 kpt; spin; max resid(k); each band:
  7.99E-23 5.73E-23 3.73E-23 4.76E-23
  -0.2500  0.2500  0.2500    1  8.50238E-23 kpt; spin; max resid(k); each band:
  8.50E-23 6.79E-23 4.37E-23 7.05E-23
   0.2500  0.5000  0.0000    1  9.16827E-23 kpt; spin; max resid(k); each band:
  9.12E-23 9.17E-23 3.71E-23 6.78E-23
   0.5000  0.5000  0.2500    1  9.99435E-23 kpt; spin; max resid(k); each band:
  7.35E-23 9.99E-23 3.97E-23 4.99E-23
  -0.2500  0.5000  0.5000    1  9.76168E-23 kpt; spin; max resid(k); each band:
  9.76E-23 9.52E-23 4.08E-23 4.55E-23
   0.0000 -0.2500  0.0000    1  9.02740E-23 kpt; spin; max resid(k); each band:
  6.79E-23 9.03E-23 4.68E-23 7.07E-23
   0.2500 -0.2500  0.2500    1  9.00387E-23 kpt; spin; max resid(k); each band:
  8.29E-23 9.00E-23 4.41E-23 6.22E-23
   0.5000 -0.2500  0.5000    1  9.01065E-23 kpt; spin; max resid(k); each band:
  8.08E-23 9.01E-23 3.80E-23 8.18E-23
  -0.2500 -0.2500 -0.2500    1  9.02922E-23 kpt; spin; max resid(k); each band:
  6.79E-23 9.03E-23 4.19E-23 5.29E-23
   0.2500  0.0000  0.0000    1  9.88368E-23 kpt; spin; max resid(k); each band:
  6.45E-23 9.88E-23 3.89E-23 5.87E-23
   0.5000  0.0000  0.2500    1  9.99320E-23 kpt; spin; max resid(k); each band:
  6.88E-23 9.99E-23 4.13E-23 5.79E-23
  -0.2500  0.0000  0.5000    1  9.16682E-23 kpt; spin; max resid(k); each band:
  4.93E-23 9.17E-23 4.16E-23 5.66E-23
   0.0000  0.2500  0.0000    1  9.02741E-23 kpt; spin; max resid(k); each band:
  6.79E-23 9.03E-23 4.68E-23 7.07E-23
   0.2500  0.2500  0.2500    1  9.02920E-23 kpt; spin; max resid(k); each band:
  6.79E-23 9.03E-23 4.19E-23 5.29E-23
   0.5000  0.2500  0.5000    1  9.01062E-23 kpt; spin; max resid(k); each band:
  8.08E-23 9.01E-23 3.80E-23 8.18E-23
  -0.2500  0.2500 -0.2500    1  9.00388E-23 kpt; spin; max resid(k); each band:
  8.29E-23 9.00E-23 4.41E-23 6.22E-23
   0.0000  0.5000  0.2500    1  9.68361E-23 kpt; spin; max resid(k); each band:
  8.03E-23 9.68E-23 4.00E-23 7.36E-23
   0.2500  0.5000  0.5000    1  9.76144E-23 kpt; spin; max resid(k); each band:
  9.76E-23 9.52E-23 4.08E-23 4.55E-23
   0.5000  0.5000 -0.2500    1  9.99463E-23 kpt; spin; max resid(k); each band:
  7.35E-23 9.99E-23 3.97E-23 4.99E-23
   0.0000 -0.2500  0.5000    1  9.79443E-23 kpt; spin; max resid(k); each band:
  5.30E-23 9.79E-23 4.04E-23 4.77E-23
   0.2500 -0.2500 -0.2500    1  8.50244E-23 kpt; spin; max resid(k); each band:
  8.50E-23 6.79E-23 4.37E-23 7.05E-23
   0.0000  0.0000  0.2500    1  7.65709E-23 kpt; spin; max resid(k); each band:
  7.38E-23 7.66E-23 4.84E-23 5.55E-23
   0.2500  0.0000  0.5000    1  9.16682E-23 kpt; spin; max resid(k); each band:
  4.93E-23 9.17E-23 4.16E-23 5.66E-23
   0.5000  0.0000 -0.2500    1  9.99312E-23 kpt; spin; max resid(k); each band:
  6.88E-23 9.99E-23 4.13E-23 5.79E-23
   0.0000  0.2500  0.5000    1  9.79450E-23 kpt; spin; max resid(k); each band:
  5.30E-23 9.79E-23 4.04E-23 4.77E-23
   0.2500  0.2500 -0.2500    1  9.57844E-23 kpt; spin; max resid(k); each band:
  9.58E-23 8.58E-23 4.29E-23 6.97E-23
   0.0000  0.5000 -0.2500    1  9.68365E-23 kpt; spin; max resid(k); each band:
  8.03E-23 9.68E-23 4.00E-23 7.36E-23
   0.0000  0.0000 -0.2500    1  7.65709E-23 kpt; spin; max resid(k); each band:
  7.38E-23 7.66E-23 4.84E-23 5.55E-23
 reduced coordinates (array xred) for    2 atoms
       0.000000000000      0.000000000000      0.000000000000
       0.250000000000      0.250000000000      0.250000000000

 cartesian coordinates (angstrom) at end:
    1      0.00000000000000     0.00000000000000     0.00000000000000
    2      1.40231960276350     1.40231960276350     1.40231960276350
 length scales= 10.600000000000 10.600000000000 10.600000000000 bohr
              =  5.609278411054  5.609278411054  5.609278411054 angstroms
 prteigrs : about to open file t69_MPI4o_DS2_EIG
 Eigenvalues (hartree) for nkpt=  32  k points:
 kpt#   1, nband=  4, wtk=  0.03125, kpt= -0.2500  0.5000  0.0000 (reduced coord)
  -0.31094  -0.18061  -0.09069  -0.05318
 kpt#   2, nband=  4, wtk=  0.03125, kpt=  0.5000 -0.2500  0.0000 (reduced coord)
  -0.31094  -0.18061  -0.09069  -0.05318
 kpt#   3, nband=  4, wtk=  0.03125, kpt= -0.2500 -0.2500  0.2500 (reduced coord)
  -0.31094  -0.18061  -0.09069  -0.05318
 kpt#   4, nband=  4, wtk=  0.03125, kpt= -0.2500  0.0000  0.0000 (reduced coord)
  -0.37113  -0.09440  -0.00555  -0.00555
 kpt#   5, nband=  4, wtk=  0.03125, kpt=  0.5000  0.2500  0.0000 (reduced coord)
  -0.31094  -0.18061  -0.09069  -0.05318
 kpt#   6, nband=  4, wtk=  0.03125, kpt= -0.2500  0.2500  0.2500 (reduced coord)
  -0.31094  -0.18061  -0.09069  -0.05318
 kpt#   7, nband=  4, wtk=  0.03125, kpt=  0.2500  0.5000  0.0000 (reduced coord)
  -0.31094  -0.18061  -0.09069  -0.05318
 kpt#   8, nband=  4, wtk=  0.03125, kpt=  0.5000  0.5000  0.2500 (reduced coord)
  -0.31094  -0.18061  -0.09069  -0.05318
 kpt#   9, nband=  4, wtk=  0.03125, kpt= -0.2500  0.5000  0.5000 (reduced coord)
  -0.31094  -0.18061  -0.09069  -0.05318
 kpt#  10, nband=  4, wtk=  0.03125, kpt=  0.0000 -0.2500  0.0000 (reduced coord)
  -0.37113  -0.09440  -0.00555  -0.00555
 kpt#  11, nband=  4, wtk=  0.03125, kpt=  0.2500 -0.2500  0.2500 (reduced coord)
  -0.31094  -0.18061  -0.09069  -0.05318
 kpt#  12, nband=  4, wtk=  0.03125, kpt=  0.5000 -0.2500  0.5000 (reduced coord)
  -0.31094  -0.18061  -0.09069  -0.05318
 kpt#  13, nband=  4, wtk=  0.03125, kpt= -0.2500 -0.2500 -0.2500 (reduced coord)
  -0.37113  -0.09440  -0.00555  -0.00555
 kpt#  14, nband=  4, wtk=  0.03125, kpt=  0.2500  0.0000  0.0000 (reduced coord)
  -0.37113  -0.09440  -0.00555  -0.00555
 kpt#  15, nband=  4, wtk=  0.03125, kpt=  0.5000  0.0000  0.2500 (reduced coord)
  -0.31094  -0.18061  -0.09069  -0.05318
 kpt#  16, nband=  4, wtk=  0.03125, kpt= -0.2500  0.0000  0.5000 (reduced coord)
  -0.31094  -0.18061  -0.09069  -0.05318
 kpt#  17, nband=  4, wtk=  0.03125, kpt=  0.0000  0.2500  0.0000 (reduced coord)
  -0.37113  -0.09440  -0.00555  -0.00555
 kpt#  18, nband=  4, wtk=  0.03125, kpt=  0.2500  0.2500  0.2500 (reduced coord)
  -0.37113  -0.09440  -0.00555  -0.00555
 kpt#  19, nband=  4, wtk=  0.03125, kpt=  0.5000  0.2500  0.5000 (reduced coord)
  -0.31094  -0.18061  -0.09069  -0.05318
 kpt#  20, nband=  4, wtk=  0.03125, kpt= -0.2500  0.2500 -0.2500 (reduced coord)
  -0.31094  -0.18061  -0.09069  -0.05318
 kpt#  21, nband=  4, wtk=  0.03125, kpt=  0.0000  0.5000  0.2500 (reduced coord)
  -0.31094  -0.18061  -0.09069  -0.05318
 kpt#  22, nband=  4, wtk=  0.03125, kpt=  0.2500  0.5000  0.5000 (reduced coord)
  -0.31094  -0.18061  -0.09069  -0.05318
 kpt#  23, nband=  4, wtk=  0.03125, kpt=  0.5000  0.5000 -0.2500 (reduced coord)
  -0.31094  -0.18061  -0.09069  -0.05318
 kpt#  24, nband=  4, wtk=  0.03125, kpt=  0.0000 -0.2500  0.5000 (reduced coord)
  -0.31094  -0.18061  -0.09069  -0.05318
 kpt#  25, nband=  4, wtk=  0.03125, kpt=  0.2500 -0.2500 -0.2500 (reduced coord)
  -0.31094  -0.18061  -0.09069  -0.05318
 kpt#  26, nband=  4, wtk=  0.03125, kpt=  0.0000  0.0000  0.2500 (reduced coord)
  -0.37113  -0.09440  -0.00555  -0.00555
 kpt#  27, nband=  4, wtk=  0.03125, kpt=  0.2500  0.0000  0.5000 (reduced coord)
  -0.31094  -0.18061  -0.09069  -0.05318
 kpt#  28, nband=  4, wtk=  0.03125, kpt=  0.5000  0.0000 -0.2500 (reduced coord)
  -0.31094  -0.18061  -0.09069  -0.05318
 kpt#  29, nband=  4, wtk=  0.03125, kpt=  0.0000  0.2500  0.5000 (reduced coord)
  -0.31094  -0.18061  -0.09069  -0.05318
 kpt#  30, nband=  4, wtk=  0.03125, kpt=  0.2500  0.2500 -0.2500 (reduced coord)
  -0.31094  -0.18061  -0.09069  -0.05318
 kpt#  31, nband=  4, wtk=  0.03125, kpt=  0.0000  0.5000 -0.2500 (reduced coord)
  -0.31094  -0.18061  -0.09069  -0.05318
 kpt#  32, nband=  4, wtk=  0.03125, kpt=  0.0000  0.0000 -0.2500 (reduced coord)
  -0.37113  -0.09440  -0.00555  -0.00555
 Total charge density [el/Bohr^3]
,     Maximum=    7.7544E-02  at reduced coord.    0.2000    0.2000    0.5000
,Next maximum=    7.7544E-02  at reduced coord.    0.1000    0.2000    0.5000
,     Minimum=    2.0578E-03  at reduced coord.    0.5000    0.5000    0.5000
,Next minimum=    2.3078E-03  at reduced coord.    0.8000    0.7000    0.7000
,  Integrated=    8.0000E+00

================================================================================
== DATASET  3 ==================================================================
-   nproc =    4

 mkfilename : getwfk/=0, take file _WFK from output of DATASET   2.

 mkfilename : getddk/=0, take file _1WF from output of DATASET   3.

 Exchange-correlation functional for the present dataset will be:
  LDA: old Teter (4/91) fit to Ceperley-Alder data - ixc=3

 Real(R)+Recip(G) space primitive vectors, cartesian coordinates (Bohr,Bohr^-1):
 R(1)=  0.0000000  5.3000000  5.3000000  G(1)= -0.0943396  0.0943396  0.0943396
 R(2)=  5.3000000  0.0000000  5.3000000  G(2)=  0.0943396 -0.0943396  0.0943396
 R(3)=  5.3000000  5.3000000  0.0000000  G(3)=  0.0943396  0.0943396 -0.0943396
 Unit cell volume ucvol=  2.9775400E+02 bohr^3
 Angles (23,13,12)=  6.00000000E+01  6.00000000E+01  6.00000000E+01 degrees
 setup1 : take into account q-point for computing boxcut.

 getcut: wavevector=  0.0000  0.0000  0.0000  ngfft=  10  10  10
         ecut(hartree)=      2.000   => boxcut(ratio)=   2.11655
--------------------------------------------------------------------------------

-inwffil : will read wavefunctions from disk file t69_MPI4o_DS2_WFK
P newkpt: treating      4 bands with npw=      41 for ikpt=   1 by node    0
P newkpt: treating      4 bands with npw=      41 for ikpt=   2 by node    0
P newkpt: treating      4 bands with npw=      41 for ikpt=   3 by node    0
P newkpt: treating      4 bands with npw=      43 for ikpt=   4 by node    0
P newkpt: treating      4 bands with npw=      41 for ikpt=   5 by node    0
P newkpt: treating      4 bands with npw=      41 for ikpt=   6 by node    0
P newkpt: treating      4 bands with npw=      41 for ikpt=   7 by node    0
P newkpt: treating      4 bands with npw=      41 for ikpt=   8 by node    0
P newkpt: treating      4 bands with npw=      41 for ikpt=   9 by node    1
P newkpt: treating      4 bands with npw=      43 for ikpt=  10 by node    1
P newkpt: treating      4 bands with npw=      41 for ikpt=  11 by node    1
P newkpt: treating      4 bands with npw=      41 for ikpt=  12 by node    1
P newkpt: treating      4 bands with npw=      43 for ikpt=  13 by node    1
P newkpt: treating      4 bands with npw=      43 for ikpt=  14 by node    1
P newkpt: treating      4 bands with npw=      41 for ikpt=  15 by node    1
P newkpt: treating      4 bands with npw=      41 for ikpt=  16 by node    1
P newkpt: treating      4 bands with npw=      43 for ikpt=  17 by node    2
P newkpt: treating      4 bands with npw=      43 for ikpt=  18 by node    2
P newkpt: treating      4 bands with npw=      41 for ikpt=  19 by node    2
P newkpt: treating      4 bands with npw=      41 for ikpt=  20 by node    2
P newkpt: treating      4 bands with npw=      41 for ikpt=  21 by node    2
P newkpt: treating      4 bands with npw=      41 for ikpt=  22 by node    2
P newkpt: treating      4 bands with npw=      41 for ikpt=  23 by node    2
P newkpt: treating      4 bands with npw=      41 for ikpt=  24 by node    2
P newkpt: treating      4 bands with npw=      41 for ikpt=  25 by node    3
P newkpt: treating      4 bands with npw=      43 for ikpt=  26 by node    3
P newkpt: treating      4 bands with npw=      41 for ikpt=  27 by node    3
P newkpt: treating      4 bands with npw=      41 for ikpt=  28 by node    3
P newkpt: treating      4 bands with npw=      41 for ikpt=  29 by node    3
P newkpt: treating      4 bands with npw=      41 for ikpt=  30 by node    3
P newkpt: treating      4 bands with npw=      41 for ikpt=  31 by node    3
P newkpt: treating      4 bands with npw=      43 for ikpt=  32 by node    3


 ==>  initialize data related to q vector <== 

 The list of irreducible perturbations for this q vector is:
    1)    idir= 1    ipert=   3

================================================================================

--------------------------------------------------------------------------------
 Perturbation wavevector (in red.coord.)   0.000000  0.000000  0.000000
 Perturbation : derivative vs k along direction   1
 The set of symmetries contains only one element for this perturbation.
 symkpt : not enough symmetry to change the number of k points.

--------------------------------------------------------------------------------

-inwffil : will read wavefunctions from disk file t69_MPI4o_DS2_WFK
P newkpt: treating      4 bands with npw=      41 for ikpt=   1 by node    0
P newkpt: treating      4 bands with npw=      41 for ikpt=   2 by node    0
P newkpt: treating      4 bands with npw=      41 for ikpt=   3 by node    0
P newkpt: treating      4 bands with npw=      43 for ikpt=   4 by node    0
P newkpt: treating      4 bands with npw=      41 for ikpt=   5 by node    0
P newkpt: treating      4 bands with npw=      41 for ikpt=   6 by node    0
P newkpt: treating      4 bands with npw=      41 for ikpt=   7 by node    0
P newkpt: treating      4 bands with npw=      41 for ikpt=   8 by node    0
P newkpt: treating      4 bands with npw=      41 for ikpt=   9 by node    1
P newkpt: treating      4 bands with npw=      43 for ikpt=  10 by node    1
P newkpt: treating      4 bands with npw=      41 for ikpt=  11 by node    1
P newkpt: treating      4 bands with npw=      41 for ikpt=  12 by node    1
P newkpt: treating      4 bands with npw=      43 for ikpt=  13 by node    1
P newkpt: treating      4 bands with npw=      43 for ikpt=  14 by node    1
P newkpt: treating      4 bands with npw=      41 for ikpt=  15 by node    1
P newkpt: treating      4 bands with npw=      41 for ikpt=  16 by node    1
P newkpt: treating      4 bands with npw=      43 for ikpt=  17 by node    2
P newkpt: treating      4 bands with npw=      43 for ikpt=  18 by node    2
P newkpt: treating      4 bands with npw=      41 for ikpt=  19 by node    2
P newkpt: treating      4 bands with npw=      41 for ikpt=  20 by node    2
P newkpt: treating      4 bands with npw=      41 for ikpt=  21 by node    2
P newkpt: treating      4 bands with npw=      41 for ikpt=  22 by node    2
P newkpt: treating      4 bands with npw=      41 for ikpt=  23 by node    2
P newkpt: treating      4 bands with npw=      41 for ikpt=  24 by node    2
P newkpt: treating      4 bands with npw=      41 for ikpt=  25 by node    3
P newkpt: treating      4 bands with npw=      43 for ikpt=  26 by node    3
P newkpt: treating      4 bands with npw=      41 for ikpt=  27 by node    3
P newkpt: treating      4 bands with npw=      41 for ikpt=  28 by node    3
P newkpt: treating      4 bands with npw=      41 for ikpt=  29 by node    3
P newkpt: treating      4 bands with npw=      41 for ikpt=  30 by node    3
P newkpt: treating      4 bands with npw=      41 for ikpt=  31 by node    3
P newkpt: treating      4 bands with npw=      43 for ikpt=  32 by node    3

--------------------------------------------------------------------------------

-inwffil : will read wavefunctions from disk file t69_MPI4o_DS2_WFK
P newkpt: treating      4 bands with npw=      41 for ikpt=   1 by node    0
P newkpt: treating      4 bands with npw=      41 for ikpt=   2 by node    0
P newkpt: treating      4 bands with npw=      41 for ikpt=   3 by node    0
P newkpt: treating      4 bands with npw=      43 for ikpt=   4 by node    0
P newkpt: treating      4 bands with npw=      41 for ikpt=   5 by node    0
P newkpt: treating      4 bands with npw=      41 for ikpt=   6 by node    0
P newkpt: treating      4 bands with npw=      41 for ikpt=   7 by node    0
P newkpt: treating      4 bands with npw=      41 for ikpt=   8 by node    0
P newkpt: treating      4 bands with npw=      41 for ikpt=   9 by node    1
P newkpt: treating      4 bands with npw=      43 for ikpt=  10 by node    1
P newkpt: treating      4 bands with npw=      41 for ikpt=  11 by node    1
P newkpt: treating      4 bands with npw=      41 for ikpt=  12 by node    1
P newkpt: treating      4 bands with npw=      43 for ikpt=  13 by node    1
P newkpt: treating      4 bands with npw=      43 for ikpt=  14 by node    1
P newkpt: treating      4 bands with npw=      41 for ikpt=  15 by node    1
P newkpt: treating      4 bands with npw=      41 for ikpt=  16 by node    1
P newkpt: treating      4 bands with npw=      43 for ikpt=  17 by node    2
P newkpt: treating      4 bands with npw=      43 for ikpt=  18 by node    2
P newkpt: treating      4 bands with npw=      41 for ikpt=  19 by node    2
P newkpt: treating      4 bands with npw=      41 for ikpt=  20 by node    2
P newkpt: treating      4 bands with npw=      41 for ikpt=  21 by node    2
P newkpt: treating      4 bands with npw=      41 for ikpt=  22 by node    2
P newkpt: treating      4 bands with npw=      41 for ikpt=  23 by node    2
P newkpt: treating      4 bands with npw=      41 for ikpt=  24 by node    2
P newkpt: treating      4 bands with npw=      41 for ikpt=  25 by node    3
P newkpt: treating      4 bands with npw=      43 for ikpt=  26 by node    3
P newkpt: treating      4 bands with npw=      41 for ikpt=  27 by node    3
P newkpt: treating      4 bands with npw=      41 for ikpt=  28 by node    3
P newkpt: treating      4 bands with npw=      41 for ikpt=  29 by node    3
P newkpt: treating      4 bands with npw=      41 for ikpt=  30 by node    3
P newkpt: treating      4 bands with npw=      41 for ikpt=  31 by node    3
P newkpt: treating      4 bands with npw=      43 for ikpt=  32 by node    3

 Initialisation of the first-order wave-functions :
  ireadwf=   0
P newkpt: treating      4 bands with npw=      41 for ikpt=   1 by node    0
P newkpt: treating      4 bands with npw=      41 for ikpt=   2 by node    0
P newkpt: treating      4 bands with npw=      41 for ikpt=   3 by node    0
P newkpt: treating      4 bands with npw=      43 for ikpt=   4 by node    0
P newkpt: treating      4 bands with npw=      41 for ikpt=   5 by node    0
P newkpt: treating      4 bands with npw=      41 for ikpt=   6 by node    0
P newkpt: treating      4 bands with npw=      41 for ikpt=   7 by node    0
P newkpt: treating      4 bands with npw=      41 for ikpt=   8 by node    0
P newkpt: treating      4 bands with npw=      41 for ikpt=   9 by node    1
P newkpt: treating      4 bands with npw=      43 for ikpt=  10 by node    1
P newkpt: treating      4 bands with npw=      41 for ikpt=  11 by node    1
P newkpt: treating      4 bands with npw=      41 for ikpt=  12 by node    1
P newkpt: treating      4 bands with npw=      43 for ikpt=  13 by node    1
P newkpt: treating      4 bands with npw=      43 for ikpt=  14 by node    1
P newkpt: treating      4 bands with npw=      41 for ikpt=  15 by node    1
P newkpt: treating      4 bands with npw=      41 for ikpt=  16 by node    1
P newkpt: treating      4 bands with npw=      43 for ikpt=  17 by node    2
P newkpt: treating      4 bands with npw=      43 for ikpt=  18 by node    2
P newkpt: treating      4 bands with npw=      41 for ikpt=  19 by node    2
P newkpt: treating      4 bands with npw=      41 for ikpt=  20 by node    2
P newkpt: treating      4 bands with npw=      41 for ikpt=  21 by node    2
P newkpt: treating      4 bands with npw=      41 for ikpt=  22 by node    2
P newkpt: treating      4 bands with npw=      41 for ikpt=  23 by node    2
P newkpt: treating      4 bands with npw=      41 for ikpt=  24 by node    2
P newkpt: treating      4 bands with npw=      41 for ikpt=  25 by node    3
P newkpt: treating      4 bands with npw=      43 for ikpt=  26 by node    3
P newkpt: treating      4 bands with npw=      41 for ikpt=  27 by node    3
P newkpt: treating      4 bands with npw=      41 for ikpt=  28 by node    3
P newkpt: treating      4 bands with npw=      41 for ikpt=  29 by node    3
P newkpt: treating      4 bands with npw=      41 for ikpt=  30 by node    3
P newkpt: treating      4 bands with npw=      41 for ikpt=  31 by node    3
P newkpt: treating      4 bands with npw=      43 for ikpt=  32 by node    3


     iter   2DEtotal(Ha)        deltaE(Ha) residm    vres2
-ETOT  1  -10.611966085814     -1.061E+01 6.272E-02 0.000E+00
 ETOT  2  -10.626365509318     -1.440E-02 7.961E-05 0.000E+00
 ETOT  3  -10.626425824432     -6.032E-05 9.714E-07 0.000E+00
 ETOT  4  -10.626426108582     -2.841E-07 2.130E-09 0.000E+00
 ETOT  5  -10.626426110162     -1.580E-09 3.759E-11 0.000E+00
 ETOT  6  -10.626426110172     -9.850E-12 8.479E-14 0.000E+00
 ETOT  7  -10.626426110172     -5.507E-14 1.785E-15 0.000E+00
 ETOT  8  -10.626426110172     -3.553E-15 4.116E-18 0.000E+00
 ETOT  9  -10.626426110172     -5.329E-15 8.632E-20 0.000E+00
 ETOT 10  -10.626426110172     -3.553E-15 2.159E-22 0.000E+00
 ETOT 11  -10.626426110172     -1.776E-15 9.147E-23 0.000E+00

 At SCF step   11   max residual=  9.15E-23 < tolwfr=  1.00E-22 =>converged.
================================================================================

 ----iterations are completed or convergence reached----

 Mean square residual over all n,k,spin=   4.9955E-23; max=  9.1466E-23
  -0.2500  0.5000  0.0000    1  5.65566E-23 kpt; spin; max resid(k); each band:
  3.14E-23 5.66E-23 3.92E-23 3.08E-23
   0.5000 -0.2500  0.0000    1  6.72330E-23 kpt; spin; max resid(k); each band:
  1.34E-23 2.44E-23 6.72E-23 4.72E-23
  -0.2500 -0.2500  0.2500    1  6.93749E-23 kpt; spin; max resid(k); each band:
  3.50E-23 6.64E-23 6.15E-23 6.94E-23
  -0.2500  0.0000  0.0000    1  4.61391E-23 kpt; spin; max resid(k); each band:
  1.23E-23 4.61E-23 4.15E-23 2.58E-23
   0.5000  0.2500  0.0000    1  6.72117E-23 kpt; spin; max resid(k); each band:
  1.34E-23 2.44E-23 6.72E-23 4.72E-23
  -0.2500  0.2500  0.2500    1  6.72246E-23 kpt; spin; max resid(k); each band:
  1.34E-23 2.44E-23 6.72E-23 5.10E-23
   0.2500  0.5000  0.0000    1  5.65576E-23 kpt; spin; max resid(k); each band:
  3.14E-23 5.66E-23 3.92E-23 3.08E-23
   0.5000  0.5000  0.2500    1  6.93822E-23 kpt; spin; max resid(k); each band:
  3.50E-23 6.64E-23 6.15E-23 6.94E-23
  -0.2500  0.5000  0.5000    1  9.14663E-23 kpt; spin; max resid(k); each band:
  3.14E-23 5.66E-23 3.92E-23 9.15E-23
   0.0000 -0.2500  0.0000    1  8.37523E-23 kpt; spin; max resid(k); each band:
  8.38E-23 5.31E-23 2.94E-23 5.95E-23
   0.2500 -0.2500  0.2500    1  6.93671E-23 kpt; spin; max resid(k); each band:
  3.50E-23 6.64E-23 6.15E-23 6.94E-23
   0.5000 -0.2500  0.5000    1  6.93713E-23 kpt; spin; max resid(k); each band:
  3.50E-23 6.64E-23 6.15E-23 6.94E-23
  -0.2500 -0.2500 -0.2500    1  8.37518E-23 kpt; spin; max resid(k); each band:
  8.38E-23 5.31E-23 2.94E-23 5.92E-23
   0.2500  0.0000  0.0000    1  4.60681E-23 kpt; spin; max resid(k); each band:
  1.23E-23 4.61E-23 4.15E-23 2.58E-23
   0.5000  0.0000  0.2500    1  6.72171E-23 kpt; spin; max resid(k); each band:
  1.34E-23 2.44E-23 6.72E-23 5.52E-23
  -0.2500  0.0000  0.5000    1  5.65559E-23 kpt; spin; max resid(k); each band:
  3.14E-23 5.66E-23 3.92E-23 3.05E-23
   0.0000  0.2500  0.0000    1  8.37523E-23 kpt; spin; max resid(k); each band:
  8.38E-23 5.32E-23 2.94E-23 5.96E-23
   0.2500  0.2500  0.2500    1  8.37522E-23 kpt; spin; max resid(k); each band:
  8.38E-23 5.31E-23 2.94E-23 5.95E-23
   0.5000  0.2500  0.5000    1  6.93728E-23 kpt; spin; max resid(k); each band:
  3.50E-23 6.64E-23 6.15E-23 6.94E-23
  -0.2500  0.2500 -0.2500    1  6.93638E-23 kpt; spin; max resid(k); each band:
  3.50E-23 6.64E-23 6.15E-23 6.94E-23
   0.0000  0.5000  0.2500    1  6.93684E-23 kpt; spin; max resid(k); each band:
  3.50E-23 6.64E-23 6.15E-23 6.94E-23
   0.2500  0.5000  0.5000    1  9.14133E-23 kpt; spin; max resid(k); each band:
  3.14E-23 5.66E-23 3.92E-23 9.14E-23
   0.5000  0.5000 -0.2500    1  6.93794E-23 kpt; spin; max resid(k); each band:
  3.50E-23 6.64E-23 6.15E-23 6.94E-23
   0.0000 -0.2500  0.5000    1  6.93716E-23 kpt; spin; max resid(k); each band:
  3.50E-23 6.64E-23 6.15E-23 6.94E-23
   0.2500 -0.2500 -0.2500    1  6.72284E-23 kpt; spin; max resid(k); each band:
  1.34E-23 2.44E-23 6.72E-23 5.10E-23
   0.0000  0.0000  0.2500    1  8.37521E-23 kpt; spin; max resid(k); each band:
  8.38E-23 5.31E-23 2.94E-23 5.72E-23
   0.2500  0.0000  0.5000    1  5.65562E-23 kpt; spin; max resid(k); each band:
  3.14E-23 5.66E-23 3.92E-23 3.05E-23
   0.5000  0.0000 -0.2500    1  6.72153E-23 kpt; spin; max resid(k); each band:
  1.34E-23 2.44E-23 6.72E-23 5.52E-23
   0.0000  0.2500  0.5000    1  6.93681E-23 kpt; spin; max resid(k); each band:
  3.50E-23 6.64E-23 6.15E-23 6.94E-23
   0.2500  0.2500 -0.2500    1  6.93780E-23 kpt; spin; max resid(k); each band:
  3.50E-23 6.64E-23 6.15E-23 6.94E-23
   0.0000  0.5000 -0.2500    1  6.93843E-23 kpt; spin; max resid(k); each band:
  3.50E-23 6.64E-23 6.15E-23 6.94E-23
   0.0000  0.0000 -0.2500    1  8.37517E-23 kpt; spin; max resid(k); each band:
  8.38E-23 5.31E-23 2.94E-23 5.73E-23
 loper3 : ek2=    1.6865112540E+01
          f-sum rule ratio=    1.0651054134E+00
 prteigrs : about to open file t69_MPI4_1WF1_EIG
 Expectation of eigenvalue derivatives (hartree) for nkpt=  32  k points:
  (in case of degenerate eigenvalues, averaged derivative)
 kpt#   1, nband=  4, wtk=  0.03125, kpt= -0.2500  0.5000  0.0000 (reduced coord)
  -0.10821  -0.06129   0.23253   0.16771
 kpt#   2, nband=  4, wtk=  0.03125, kpt=  0.5000 -0.2500  0.0000 (reduced coord)
  -0.18929   0.29138   0.18848  -0.04115
 kpt#   3, nband=  4, wtk=  0.03125, kpt= -0.2500 -0.2500  0.2500 (reduced coord)
  -0.14875   0.11504   0.21050   0.06328
 kpt#   4, nband=  4, wtk=  0.03125, kpt= -0.2500  0.0000  0.0000 (reduced coord)
  -0.20803   0.66657   0.13255   0.13255
 kpt#   5, nband=  4, wtk=  0.03125, kpt=  0.5000  0.2500  0.0000 (reduced coord)
   0.18929  -0.29138  -0.18848   0.04115
 kpt#   6, nband=  4, wtk=  0.03125, kpt= -0.2500  0.2500  0.2500 (reduced coord)
  -0.18929   0.29138   0.18848  -0.04115
 kpt#   7, nband=  4, wtk=  0.03125, kpt=  0.2500  0.5000  0.0000 (reduced coord)
   0.10821   0.06129  -0.23253  -0.16771
 kpt#   8, nband=  4, wtk=  0.03125, kpt=  0.5000  0.5000  0.2500 (reduced coord)
   0.14875  -0.11504  -0.21050  -0.06328
 kpt#   9, nband=  4, wtk=  0.03125, kpt= -0.2500  0.5000  0.5000 (reduced coord)
   0.10821   0.06129  -0.23253  -0.16771
 kpt#  10, nband=  4, wtk=  0.03125, kpt=  0.0000 -0.2500  0.0000 (reduced coord)
   0.06934  -0.22219  -0.04418  -0.04418
 kpt#  11, nband=  4, wtk=  0.03125, kpt=  0.2500 -0.2500  0.2500 (reduced coord)
   0.14875  -0.11504  -0.21050  -0.06328
 kpt#  12, nband=  4, wtk=  0.03125, kpt=  0.5000 -0.2500  0.5000 (reduced coord)
  -0.14875   0.11504   0.21050   0.06328
 kpt#  13, nband=  4, wtk=  0.03125, kpt= -0.2500 -0.2500 -0.2500 (reduced coord)
  -0.06934   0.22219   0.04418   0.04418
 kpt#  14, nband=  4, wtk=  0.03125, kpt=  0.2500  0.0000  0.0000 (reduced coord)
   0.20803  -0.66657  -0.13255  -0.13255
 kpt#  15, nband=  4, wtk=  0.03125, kpt=  0.5000  0.0000  0.2500 (reduced coord)
   0.18929  -0.29138  -0.18848   0.04115
 kpt#  16, nband=  4, wtk=  0.03125, kpt= -0.2500  0.0000  0.5000 (reduced coord)
  -0.10821  -0.06129   0.23253   0.16771
 kpt#  17, nband=  4, wtk=  0.03125, kpt=  0.0000  0.2500  0.0000 (reduced coord)
  -0.06934   0.22219   0.04418   0.04418
 kpt#  18, nband=  4, wtk=  0.03125, kpt=  0.2500  0.2500  0.2500 (reduced coord)
   0.06934  -0.22219  -0.04418  -0.04418
 kpt#  19, nband=  4, wtk=  0.03125, kpt=  0.5000  0.2500  0.5000 (reduced coord)
   0.14875  -0.11504  -0.21050  -0.06328
 kpt#  20, nband=  4, wtk=  0.03125, kpt= -0.2500  0.2500 -0.2500 (reduced coord)
  -0.14875   0.11504   0.21050   0.06328
 kpt#  21, nband=  4, wtk=  0.03125, kpt=  0.0000  0.5000  0.2500 (reduced coord)
  -0.14875   0.11504   0.21050   0.06328
 kpt#  22, nband=  4, wtk=  0.03125, kpt=  0.2500  0.5000  0.5000 (reduced coord)
  -0.10821  -0.06129   0.23253   0.16771
 kpt#  23, nband=  4, wtk=  0.03125, kpt=  0.5000  0.5000 -0.2500 (reduced coord)
  -0.14875   0.11504   0.21050   0.06328
 kpt#  24, nband=  4, wtk=  0.03125, kpt=  0.0000 -0.2500  0.5000 (reduced coord)
   0.14875  -0.11504  -0.21050  -0.06328
 kpt#  25, nband=  4, wtk=  0.03125, kpt=  0.2500 -0.2500 -0.2500 (reduced coord)
   0.18929  -0.29138  -0.18848   0.04115
 kpt#  26, nband=  4, wtk=  0.03125, kpt=  0.0000  0.0000  0.2500 (reduced coord)
  -0.06934   0.22219   0.04418   0.04418
 kpt#  27, nband=  4, wtk=  0.03125, kpt=  0.2500  0.0000  0.5000 (reduced coord)
   0.10821   0.06129  -0.23253  -0.16771
 kpt#  28, nband=  4, wtk=  0.03125, kpt=  0.5000  0.0000 -0.2500 (reduced coord)
  -0.18929   0.29138   0.18848  -0.04115
 kpt#  29, nband=  4, wtk=  0.03125, kpt=  0.0000  0.2500  0.5000 (reduced coord)
  -0.14875   0.11504   0.21050   0.06328
 kpt#  30, nband=  4, wtk=  0.03125, kpt=  0.2500  0.2500 -0.2500 (reduced coord)
   0.14875  -0.11504  -0.21050  -0.06328
 kpt#  31, nband=  4, wtk=  0.03125, kpt=  0.0000  0.5000 -0.2500 (reduced coord)
   0.14875  -0.11504  -0.21050  -0.06328
 kpt#  32, nband=  4, wtk=  0.03125, kpt=  0.0000  0.0000 -0.2500 (reduced coord)
   0.06934  -0.22219  -0.04418  -0.04418

 Eight components of 2nd-order total energy (hartree) are
 1,2,3: 0th-order hamiltonian combined with 1st-order wavefunctions
     kin0=   2.09403967E+01 eigvalue=   1.68650314E+00  local=  -1.48083383E+01
 4,5,6: 1st-order hamiltonian combined with 1st and 0th-order wfs
     kin1=  -1.79631227E+01  Hartree=   0.00000000E+00     xc=   0.00000000E+00
 7,8,9: eventually, occupation + non-local contributions
    edocc=   0.00000000E+00     enl0=   2.80786456E+00   enl1=  -3.28972956E+00
 1-9 gives the relaxation energy (to be shifted if some occ is /=2.0)
   erelax=  -1.06264261E+01
  No Ewald or frozen-wf contrib.: the relaxation energy is the total one
 2DEtotal=   -0.1062642611E+02 Ha. Also 2DEtotal=   -0.289159759944E+03 eV
    (  non-var. 2DEtotal :   -1.0626426110E+01 Ha)
================================================================================

 ---- first-order wavefunction calculations are completed ----


 Total localisation tensor (bohr^2) in cartesian coordinates
  WARNING : still subject to testing - especially symmetries.
      direction              matrix element
   alpha     beta       real part   imaginary part
     1        1       0.0000000000    0.0000000000
     1        2       0.0000000000    0.0000000000
     1        3       0.0000000000    0.0000000000
     2        1       0.0000000000    0.0000000000
     2        2       1.7583509186    0.0000000000
     2        3       1.7583509186    0.0000000000
     3        1       0.0000000000    0.0000000000
     3        2       1.7583509186    0.0000000000
     3        3       1.7583509186    0.0000000000

 WARNING : Localization tensor calculation (this does not apply to other properties).
  Not all d/dk perturbations were computed. So the localization tensor in reciprocal space is incomplete,
  and transformation to cartesian coordinates may be wrong.

 respfn : d/dk was computed, but no 2DTE, so no DDB output.

================================================================================
== DATASET  4 ==================================================================
-   nproc =    4

 mkfilename : getwfk/=0, take file _WFK from output of DATASET   2.

 mkfilename : getddk/=0, take file _1WF from output of DATASET   3.

 Exchange-correlation functional for the present dataset will be:
  LDA: old Teter (4/91) fit to Ceperley-Alder data - ixc=3

 Real(R)+Recip(G) space primitive vectors, cartesian coordinates (Bohr,Bohr^-1):
 R(1)=  0.0000000  5.3000000  5.3000000  G(1)= -0.0943396  0.0943396  0.0943396
 R(2)=  5.3000000  0.0000000  5.3000000  G(2)=  0.0943396 -0.0943396  0.0943396
 R(3)=  5.3000000  5.3000000  0.0000000  G(3)=  0.0943396  0.0943396 -0.0943396
 Unit cell volume ucvol=  2.9775400E+02 bohr^3
 Angles (23,13,12)=  6.00000000E+01  6.00000000E+01  6.00000000E+01 degrees
 setup1 : take into account q-point for computing boxcut.

 getcut: wavevector=  0.0000  0.0000  0.0000  ngfft=  10  10  10
         ecut(hartree)=      2.000   => boxcut(ratio)=   2.11655
--------------------------------------------------------------------------------

-inwffil : will read wavefunctions from disk file t69_MPI4o_DS2_WFK
P newkpt: treating      4 bands with npw=      41 for ikpt=   1 by node    0
P newkpt: treating      4 bands with npw=      41 for ikpt=   2 by node    0
P newkpt: treating      4 bands with npw=      41 for ikpt=   3 by node    0
P newkpt: treating      4 bands with npw=      43 for ikpt=   4 by node    0
P newkpt: treating      4 bands with npw=      41 for ikpt=   5 by node    0
P newkpt: treating      4 bands with npw=      41 for ikpt=   6 by node    0
P newkpt: treating      4 bands with npw=      41 for ikpt=   7 by node    0
P newkpt: treating      4 bands with npw=      41 for ikpt=   8 by node    0
P newkpt: treating      4 bands with npw=      41 for ikpt=   9 by node    1
P newkpt: treating      4 bands with npw=      43 for ikpt=  10 by node    1
P newkpt: treating      4 bands with npw=      41 for ikpt=  11 by node    1
P newkpt: treating      4 bands with npw=      41 for ikpt=  12 by node    1
P newkpt: treating      4 bands with npw=      43 for ikpt=  13 by node    1
P newkpt: treating      4 bands with npw=      43 for ikpt=  14 by node    1
P newkpt: treating      4 bands with npw=      41 for ikpt=  15 by node    1
P newkpt: treating      4 bands with npw=      41 for ikpt=  16 by node    1
P newkpt: treating      4 bands with npw=      43 for ikpt=  17 by node    2
P newkpt: treating      4 bands with npw=      43 for ikpt=  18 by node    2
P newkpt: treating      4 bands with npw=      41 for ikpt=  19 by node    2
P newkpt: treating      4 bands with npw=      41 for ikpt=  20 by node    2
P newkpt: treating      4 bands with npw=      41 for ikpt=  21 by node    2
P newkpt: treating      4 bands with npw=      41 for ikpt=  22 by node    2
P newkpt: treating      4 bands with npw=      41 for ikpt=  23 by node    2
P newkpt: treating      4 bands with npw=      41 for ikpt=  24 by node    2
P newkpt: treating      4 bands with npw=      41 for ikpt=  25 by node    3
P newkpt: treating      4 bands with npw=      43 for ikpt=  26 by node    3
P newkpt: treating      4 bands with npw=      41 for ikpt=  27 by node    3
P newkpt: treating      4 bands with npw=      41 for ikpt=  28 by node    3
P newkpt: treating      4 bands with npw=      41 for ikpt=  29 by node    3
P newkpt: treating      4 bands with npw=      41 for ikpt=  30 by node    3
P newkpt: treating      4 bands with npw=      41 for ikpt=  31 by node    3
P newkpt: treating      4 bands with npw=      43 for ikpt=  32 by node    3


 ==>  initialize data related to q vector <== 

 The list of irreducible perturbations for this q vector is:
    1)    idir= 1    ipert=   1
    2)    idir= 1    ipert=   2
    3)    idir= 1    ipert=   4

================================================================================

 The perturbation idir=   2  ipert=   1 is
 symmetric of a previously calculated perturbation.
 So, its SCF calculation is not needed.


 The perturbation idir=   3  ipert=   1 is
 symmetric of a previously calculated perturbation.
 So, its SCF calculation is not needed.


 The perturbation idir=   2  ipert=   2 is
 symmetric of a previously calculated perturbation.
 So, its SCF calculation is not needed.


 The perturbation idir=   3  ipert=   2 is
 symmetric of a previously calculated perturbation.
 So, its SCF calculation is not needed.


 The perturbation idir=   2  ipert=   4 is
 symmetric of a previously calculated perturbation.
 So, its SCF calculation is not needed.


 The perturbation idir=   3  ipert=   4 is
 symmetric of a previously calculated perturbation.
 So, its SCF calculation is not needed.


--------------------------------------------------------------------------------
 Perturbation wavevector (in red.coord.)   0.000000  0.000000  0.000000
 Perturbation : displacement of atom   1   along direction   1
 Found     2 symmetries that leave the perturbation invariant.
 symkpt : the number of k-points, thanks to the symmetries,
 is reduced to    10 .

--------------------------------------------------------------------------------

-inwffil : will read wavefunctions from disk file t69_MPI4o_DS2_WFK
- newkpt: read input wf with ikpt,npw=   1      41, make ikpt,npw=   1      41
- newkpt: read input wf with ikpt,npw=   2      41, make ikpt,npw=   2      41
- newkpt: read input wf with ikpt,npw=   3      41, make ikpt,npw=   3      41
- newkpt: read input wf with ikpt,npw=   4      43, make ikpt,npw=   4      43
- newkpt: read input wf with ikpt,npw=   6      41, make ikpt,npw=   5      41

--------------------------------------------------------------------------------

-inwffil : will read wavefunctions from disk file t69_MPI4o_DS2_WFK
- newkpt: read input wf with ikpt,npw=   1      41, make ikpt,npw=   1      41
- newkpt: read input wf with ikpt,npw=   2      41, make ikpt,npw=   2      41
- newkpt: read input wf with ikpt,npw=   3      41, make ikpt,npw=   3      41
- newkpt: read input wf with ikpt,npw=   4      43, make ikpt,npw=   4      43
- newkpt: read input wf with ikpt,npw=   6      41, make ikpt,npw=   5      41

 Initialisation of the first-order wave-functions :
  ireadwf=   0
P newkpt: treating      4 bands with npw=      41 for ikpt=   1 by node    0
P newkpt: treating      4 bands with npw=      41 for ikpt=   2 by node    0
P newkpt: treating      4 bands with npw=      41 for ikpt=   3 by node    0
P newkpt: treating      4 bands with npw=      43 for ikpt=   4 by node    0
P newkpt: treating      4 bands with npw=      41 for ikpt=   5 by node    0
P newkpt: treating      4 bands with npw=      41 for ikpt=   6 by node    1
P newkpt: treating      4 bands with npw=      41 for ikpt=   7 by node    1
P newkpt: treating      4 bands with npw=      43 for ikpt=   8 by node    1
P newkpt: treating      4 bands with npw=      43 for ikpt=   9 by node    1
P newkpt: treating      4 bands with npw=      41 for ikpt=  10 by node    1


     iter   2DEtotal(Ha)        deltaE(Ha) residm    vres2
-ETOT  1   7.2667345288993     -2.346E+01 4.201E-02 1.164E+02
 ETOT  2   5.8516905029196     -1.415E+00 1.048E-03 1.009E+00
 ETOT  3   5.8411796382983     -1.051E-02 3.507E-05 1.284E-02
 ETOT  4   5.8410929810608     -8.666E-05 1.065E-07 4.245E-04
 ETOT  5   5.8410907257829     -2.255E-06 2.174E-09 3.481E-06
 ETOT  6   5.8410907029993     -2.278E-08 2.906E-11 1.273E-07
 ETOT  7   5.8410907021182     -8.812E-10 1.939E-12 1.536E-09
 ETOT  8   5.8410907021095     -8.733E-12 1.357E-14 7.717E-11
 ETOT  9   5.8410907021091     -3.695E-13 5.506E-16 1.673E-12
 ETOT 10   5.8410907021090     -3.553E-14 9.417E-17 8.844E-14

 At SCF step   10   max residual=  9.42E-17 < tolwfr=  1.00E-16 =>converged.
-open ddk wf file :t69_MPI4o_DS3_1WF7
================================================================================

 ----iterations are completed or convergence reached----

 Mean square residual over all n,k,spin=   4.6243E-17; max=  9.4167E-17
  -0.2500  0.5000  0.0000    1  6.98570E-17 kpt; spin; max resid(k); each band:
  6.18E-17 3.34E-17 6.61E-17 6.99E-17
   0.5000 -0.2500  0.0000    1  9.15645E-17 kpt; spin; max resid(k); each band:
  4.07E-17 5.62E-17 9.16E-17 6.77E-17
  -0.2500 -0.2500  0.2500    1  7.27793E-17 kpt; spin; max resid(k); each band:
  6.44E-17 3.75E-17 3.93E-17 7.28E-17
  -0.2500  0.0000  0.0000    1  6.31687E-17 kpt; spin; max resid(k); each band:
  1.25E-17 2.13E-17 6.32E-17 3.60E-17
  -0.2500  0.2500  0.2500    1  8.15106E-17 kpt; spin; max resid(k); each band:
  3.16E-17 8.15E-17 1.58E-17 5.86E-17
   0.5000  0.5000  0.2500    1  7.00950E-17 kpt; spin; max resid(k); each band:
  3.82E-17 2.64E-17 1.29E-17 7.01E-17
  -0.2500  0.5000  0.5000    1  7.22395E-17 kpt; spin; max resid(k); each band:
  2.69E-17 4.23E-17 1.94E-17 7.22E-17
   0.0000 -0.2500  0.0000    1  9.41665E-17 kpt; spin; max resid(k); each band:
  5.68E-17 9.56E-18 9.42E-17 2.56E-17
  -0.2500 -0.2500 -0.2500    1  9.36943E-17 kpt; spin; max resid(k); each band:
  7.82E-18 1.73E-17 8.41E-17 9.37E-17
   0.0000  0.5000  0.2500    1  4.42564E-17 kpt; spin; max resid(k); each band:
  2.81E-17 2.71E-17 4.43E-17 3.10E-17

 Thirteen components of 2nd-order total energy (hartree) are
 1,2,3: 0th-order hamiltonian combined with 1st-order wavefunctions
     kin0=   1.79849291E+01 eigvalue=   2.19533544E+00  local=  -7.60186167E+00
 4,5,6: 1st-order hamiltonian combined with 1st and 0th-order wfs
 loc psp =  -2.13395255E+01  Hartree=   3.96788345E+00     xc=  -1.64120278E+00
 note that "loc psp" includes a xc core correction that could be resolved
 7,8,9: eventually, occupation + non-local contributions
    edocc=   0.00000000E+00     enl0=   9.98012936E+00   enl1=  -2.84309003E+01
 1-9 gives the relaxation energy (to be shifted if some occ is /=2.0)
   erelax=  -2.48852128E+01
 10,11,12 Non-relaxation  contributions : frozen-wavefunctions and Ewald
 fr.local=   2.68668125E+00 fr.nonlo=   1.61845557E+01  Ewald=   1.18550666E+01
 13,14 Frozen wf xc core corrections (1) and (2)
 frxc 1  =   0.00000000E+00  frxc 2 =   0.00000000E+00
 Resulting in :
 2DEtotal=    0.5841090702E+01 Ha. Also 2DEtotal=    0.158944161256E+03 eV
    (2DErelax=   -2.4885212836E+01 Ha. 2DEnonrelax=    3.0726303538E+01 Ha)
    (  non-var. 2DEtotal :    5.8410906838E+00 Ha)


--------------------------------------------------------------------------------
 Perturbation wavevector (in red.coord.)   0.000000  0.000000  0.000000
 Perturbation : displacement of atom   2   along direction   1
 Found     2 symmetries that leave the perturbation invariant.
 symkpt : the number of k-points, thanks to the symmetries,
 is reduced to    10 .

--------------------------------------------------------------------------------

-inwffil : will read wavefunctions from disk file t69_MPI4o_DS2_WFK
- newkpt: read input wf with ikpt,npw=   1      41, make ikpt,npw=   1      41
[...]
  -1.043838E-05 -1.043837E-05  6.681331E-05  1.256668E-03  1.256668E-03
   1.395050E-03
 Phonon frequencies in cm-1    :
- -2.290960E+00 -2.290958E+00  1.466383E+01  2.758068E+02  2.758068E+02
-  3.061781E+02
 
  Phonon at Gamma, with non-analyticity in the
  direction (cartesian coordinates)  0.00000  0.00000  1.00000
 Phonon energies in Hartree :
  -1.043838E-05 -1.043837E-05  6.681331E-05  1.256668E-03  1.256668E-03
   1.395050E-03
 Phonon frequencies in cm-1    :
- -2.290960E+00 -2.290958E+00  1.466383E+01  2.758068E+02  2.758068E+02
-  3.061781E+02

== END DATASET(S) ==============================================================
================================================================================
  
 -outvars: echo values of variables after computation  --------
        accesswff1          1
        accesswff2          0
        accesswff3          0
        accesswff4          0
            acell      1.0600000000E+01  1.0600000000E+01  1.0600000000E+01 Bohr
              amu      6.97200000E+01  7.49216000E+01
        autoparal           1
           diemac      6.00000000E+00
             ecut      2.00000000E+00 Hartree
           etotal1    -8.3602806603E+00
           etotal3    -1.0626426110E+01
           etotal4    -1.6776497896E+02
            fcart1    -0.0000000000E+00 -0.0000000000E+00 -0.0000000000E+00
                      -0.0000000000E+00 -0.0000000000E+00 -0.0000000000E+00
            fcart4     0.0000000000E+00  0.0000000000E+00  0.0000000000E+00
                       0.0000000000E+00  0.0000000000E+00  0.0000000000E+00
-          fftalg1        401
-          fftalg2        112
-          fftalg3        112
-          fftalg4        112
      fft_opt_lob1          2
      fft_opt_lob2          1
      fft_opt_lob3          1
      fft_opt_lob4          1
           getddk1          0
           getddk2          0
           getddk3          3
           getddk4          3
           getden1          0
           getden2          1
           getden3          0
           getden4          0
           getwfk1          0
           getwfk2          1
           getwfk3          2
           getwfk4          2
           iprcch1          6
           iprcch2          2
           iprcch3          2
           iprcch4          2
             iscf1          3
             iscf2         -2
             iscf3         -3
             iscf4          3
              ixc           3
           jdtset        1    2    3    4
              kpt1    -2.50000000E-01  5.00000000E-01  0.00000000E+00
                      -2.50000000E-01  0.00000000E+00  0.00000000E+00
              kpt2    -2.50000000E-01  5.00000000E-01  0.00000000E+00
                       5.00000000E-01 -2.50000000E-01  0.00000000E+00
                      -2.50000000E-01 -2.50000000E-01  2.50000000E-01
                      -2.50000000E-01  0.00000000E+00  0.00000000E+00
                       5.00000000E-01  2.50000000E-01  0.00000000E+00
                      -2.50000000E-01  2.50000000E-01  2.50000000E-01
                       2.50000000E-01  5.00000000E-01  0.00000000E+00
                       5.00000000E-01  5.00000000E-01  2.50000000E-01
                      -2.50000000E-01  5.00000000E-01  5.00000000E-01
                       0.00000000E+00 -2.50000000E-01  0.00000000E+00
                       2.50000000E-01 -2.50000000E-01  2.50000000E-01
                       5.00000000E-01 -2.50000000E-01  5.00000000E-01
                      -2.50000000E-01 -2.50000000E-01 -2.50000000E-01
                       2.50000000E-01  0.00000000E+00  0.00000000E+00
                       5.00000000E-01  0.00000000E+00  2.50000000E-01
                      -2.50000000E-01  0.00000000E+00  5.00000000E-01
                       0.00000000E+00  2.50000000E-01  0.00000000E+00
                       2.50000000E-01  2.50000000E-01  2.50000000E-01
                       5.00000000E-01  2.50000000E-01  5.00000000E-01
                      -2.50000000E-01  2.50000000E-01 -2.50000000E-01
                       0.00000000E+00  5.00000000E-01  2.50000000E-01
                       2.50000000E-01  5.00000000E-01  5.00000000E-01
                       5.00000000E-01  5.00000000E-01 -2.50000000E-01
                       0.00000000E+00 -2.50000000E-01  5.00000000E-01
                       2.50000000E-01 -2.50000000E-01 -2.50000000E-01
                       0.00000000E+00  0.00000000E+00  2.50000000E-01
                       2.50000000E-01  0.00000000E+00  5.00000000E-01
                       5.00000000E-01  0.00000000E+00 -2.50000000E-01
                       0.00000000E+00  2.50000000E-01  5.00000000E-01
                       2.50000000E-01  2.50000000E-01 -2.50000000E-01
                       0.00000000E+00  5.00000000E-01 -2.50000000E-01
                       0.00000000E+00  0.00000000E+00 -2.50000000E-01
              kpt3    -2.50000000E-01  5.00000000E-01  0.00000000E+00
                       5.00000000E-01 -2.50000000E-01  0.00000000E+00
                      -2.50000000E-01 -2.50000000E-01  2.50000000E-01
                      -2.50000000E-01  0.00000000E+00  0.00000000E+00
                       5.00000000E-01  2.50000000E-01  0.00000000E+00
                      -2.50000000E-01  2.50000000E-01  2.50000000E-01
                       2.50000000E-01  5.00000000E-01  0.00000000E+00
                       5.00000000E-01  5.00000000E-01  2.50000000E-01
                      -2.50000000E-01  5.00000000E-01  5.00000000E-01
                       0.00000000E+00 -2.50000000E-01  0.00000000E+00
                       2.50000000E-01 -2.50000000E-01  2.50000000E-01
                       5.00000000E-01 -2.50000000E-01  5.00000000E-01
                      -2.50000000E-01 -2.50000000E-01 -2.50000000E-01
                       2.50000000E-01  0.00000000E+00  0.00000000E+00
                       5.00000000E-01  0.00000000E+00  2.50000000E-01
                      -2.50000000E-01  0.00000000E+00  5.00000000E-01
                       0.00000000E+00  2.50000000E-01  0.00000000E+00
                       2.50000000E-01  2.50000000E-01  2.50000000E-01
                       5.00000000E-01  2.50000000E-01  5.00000000E-01
                      -2.50000000E-01  2.50000000E-01 -2.50000000E-01
                       0.00000000E+00  5.00000000E-01  2.50000000E-01
                       2.50000000E-01  5.00000000E-01  5.00000000E-01
                       5.00000000E-01  5.00000000E-01 -2.50000000E-01
                       0.00000000E+00 -2.50000000E-01  5.00000000E-01
                       2.50000000E-01 -2.50000000E-01 -2.50000000E-01
                       0.00000000E+00  0.00000000E+00  2.50000000E-01
                       2.50000000E-01  0.00000000E+00  5.00000000E-01
                       5.00000000E-01  0.00000000E+00 -2.50000000E-01
                       0.00000000E+00  2.50000000E-01  5.00000000E-01
                       2.50000000E-01  2.50000000E-01 -2.50000000E-01
                       0.00000000E+00  5.00000000E-01 -2.50000000E-01
                       0.00000000E+00  0.00000000E+00 -2.50000000E-01
              kpt4    -2.50000000E-01  5.00000000E-01  0.00000000E+00
                       5.00000000E-01 -2.50000000E-01  0.00000000E+00
                      -2.50000000E-01 -2.50000000E-01  2.50000000E-01
                      -2.50000000E-01  0.00000000E+00  0.00000000E+00
                       5.00000000E-01  2.50000000E-01  0.00000000E+00
                      -2.50000000E-01  2.50000000E-01  2.50000000E-01
                       2.50000000E-01  5.00000000E-01  0.00000000E+00
                       5.00000000E-01  5.00000000E-01  2.50000000E-01
                      -2.50000000E-01  5.00000000E-01  5.00000000E-01
                       0.00000000E+00 -2.50000000E-01  0.00000000E+00
                       2.50000000E-01 -2.50000000E-01  2.50000000E-01
                       5.00000000E-01 -2.50000000E-01  5.00000000E-01
                      -2.50000000E-01 -2.50000000E-01 -2.50000000E-01
                       2.50000000E-01  0.00000000E+00  0.00000000E+00
                       5.00000000E-01  0.00000000E+00  2.50000000E-01
                      -2.50000000E-01  0.00000000E+00  5.00000000E-01
                       0.00000000E+00  2.50000000E-01  0.00000000E+00
                       2.50000000E-01  2.50000000E-01  2.50000000E-01
                       5.00000000E-01  2.50000000E-01  5.00000000E-01
                      -2.50000000E-01  2.50000000E-01 -2.50000000E-01
                       0.00000000E+00  5.00000000E-01  2.50000000E-01
                       2.50000000E-01  5.00000000E-01  5.00000000E-01
                       5.00000000E-01  5.00000000E-01 -2.50000000E-01
                       0.00000000E+00 -2.50000000E-01  5.00000000E-01
                       2.50000000E-01 -2.50000000E-01 -2.50000000E-01
                       0.00000000E+00  0.00000000E+00  2.50000000E-01
                       2.50000000E-01  0.00000000E+00  5.00000000E-01
                       5.00000000E-01  0.00000000E+00 -2.50000000E-01
                       0.00000000E+00  2.50000000E-01  5.00000000E-01
                       2.50000000E-01  2.50000000E-01 -2.50000000E-01
                       0.00000000E+00  5.00000000E-01 -2.50000000E-01
                       0.00000000E+00  0.00000000E+00 -2.50000000E-01
           kptopt1          1
           kptopt2          3
           kptopt3          3
           kptopt4          3
         kptrlatt        2   -2    2     -2    2    2     -2   -2    2
          kptrlen      2.12000000E+01
P           mkmem1          1
P           mkmem2          8
P           mkmem3          8
P           mkmem4          8
P          mkqmem1          1
P          mkqmem2          8
P          mkqmem3          8
P          mkqmem4          8
P          mk1mem1          1
P          mk1mem2          8
P          mk1mem3          8
P          mk1mem4          8
            natom           2
            nband1          4
            nband2          4
            nband3          4
            nband4          4
           ndtset           4
            ngfft          10      10      10
             nkpt1          2
             nkpt2         32
             nkpt3         32
             nkpt4         32
-           npfft1          2
-           npfft2          1
-           npfft3          1
-           npfft4          1
-           npkpt1          2
-           npkpt2          4
-           npkpt3          1
-           npkpt4          1
-          nppert1          1
-          nppert2          1
-          nppert3          1
-          nppert4          2
             nqpt1          0
             nqpt2          0
             nqpt3          1
             nqpt4          1
            nstep          50
             nsym          24
           ntypat           2
              occ1     2.000000  2.000000  2.000000  2.000000
              occ3     2.000000  2.000000  2.000000  2.000000
              occ4     2.000000  2.000000  2.000000  2.000000
        optdriver1          0
        optdriver2          0
        optdriver3          1
        optdriver4          1
           ortalg1         -2
           ortalg2          2
           ortalg3          2
           ortalg4          2
        paral_kgb1          1
        paral_kgb2          0
        paral_kgb3          0
        paral_kgb4          0
         paral_rf1          0
         paral_rf2          0
         paral_rf3          0
         paral_rf4          1
          rfatpol1          1       1
          rfatpol2          1       1
          rfatpol3          1       1
          rfatpol4          1       2
            rfdir1          0       0       0
            rfdir2          0       0       0
            rfdir3          1       0       0
            rfdir4          1       1       1
           rfelfd1          0
           rfelfd2          0
           rfelfd3          2
           rfelfd4          3
           rfphon1          0
           rfphon2          0
           rfphon3          0
           rfphon4          1
            rprim      0.0000000000E+00  5.0000000000E-01  5.0000000000E-01
                       5.0000000000E-01  0.0000000000E+00  5.0000000000E-01
                       5.0000000000E-01  5.0000000000E-01  0.0000000000E+00
           shiftk      5.00000000E-01  5.00000000E-01  5.00000000E-01
          spgroup         216
           strten1     1.1727565743E-03  1.1727565743E-03  1.1727565743E-03
                       0.0000000000E+00  0.0000000000E+00  0.0000000000E+00
           strten4     0.0000000000E+00  0.0000000000E+00  0.0000000000E+00
                       0.0000000000E+00  0.0000000000E+00  0.0000000000E+00
           symrel      1  0  0   0  1  0   0  0  1       0  1 -1   1  0 -1   0  0 -1
                       0 -1  1   0 -1  0   1 -1  0      -1  0  0  -1  0  1  -1  1  0
                       0  1  0   0  0  1   1  0  0       1  0 -1   0  0 -1   0  1 -1
                       0 -1  0   1 -1  0   0 -1  1      -1  0  1  -1  1  0  -1  0  0
                       0  0  1   1  0  0   0  1  0       0  0 -1   0  1 -1   1  0 -1
                       1 -1  0   0 -1  1   0 -1  0      -1  1  0  -1  0  0  -1  0  1
                       1  0 -1   0  1 -1   0  0 -1       0  1  0   1  0  0   0  0  1
                      -1  0  1  -1  0  0  -1  1  0       0 -1  0   0 -1  1   1 -1  0
                      -1  1  0  -1  0  1  -1  0  0       1 -1  0   0 -1  0   0 -1  1
                       0  0 -1   1  0 -1   0  1 -1       0  0  1   0  1  0   1  0  0
                       0 -1  1   1 -1  0   0 -1  0      -1  0  0  -1  1  0  -1  0  1
                       1  0  0   0  0  1   0  1  0       0  1 -1   0  0 -1   1  0 -1
           tolwfr1     1.00000000E-22
           tolwfr2     1.00000000E-22
           tolwfr3     1.00000000E-22
           tolwfr4     1.00000000E-16
            typat      1  2
         wfoptalg1         14
         wfoptalg2          0
         wfoptalg3          0
         wfoptalg4          0
              wtk1       0.75000    0.25000
              wtk2       0.03125    0.03125    0.03125    0.03125    0.03125    0.03125
                         0.03125    0.03125    0.03125    0.03125    0.03125    0.03125
                         0.03125    0.03125    0.03125    0.03125    0.03125    0.03125
                         0.03125    0.03125    0.03125    0.03125    0.03125    0.03125
                         0.03125    0.03125    0.03125    0.03125    0.03125    0.03125
                         0.03125    0.03125
              wtk3       0.03125    0.03125    0.03125    0.03125    0.03125    0.03125
                         0.03125    0.03125    0.03125    0.03125    0.03125    0.03125
                         0.03125    0.03125    0.03125    0.03125    0.03125    0.03125
                         0.03125    0.03125    0.03125    0.03125    0.03125    0.03125
                         0.03125    0.03125    0.03125    0.03125    0.03125    0.03125
                         0.03125    0.03125
              wtk4       0.03125    0.03125    0.03125    0.03125    0.03125    0.03125
                         0.03125    0.03125    0.03125    0.03125    0.03125    0.03125
                         0.03125    0.03125    0.03125    0.03125    0.03125    0.03125
                         0.03125    0.03125    0.03125    0.03125    0.03125    0.03125
                         0.03125    0.03125    0.03125    0.03125    0.03125    0.03125
                         0.03125    0.03125
           xangst      0.0000000000E+00  0.0000000000E+00  0.0000000000E+00
                       1.4023196028E+00  1.4023196028E+00  1.4023196028E+00
            xcart      0.0000000000E+00  0.0000000000E+00  0.0000000000E+00
                       2.6500000000E+00  2.6500000000E+00  2.6500000000E+00
             xred      0.0000000000E+00  0.0000000000E+00  0.0000000000E+00
                       2.5000000000E-01  2.5000000000E-01  2.5000000000E-01
            znucl       31.00000   33.00000

================================================================================


- Timing analysis has been suppressed with timopt=0



================================================================================

 Suggested references for the acknowledgment of ABINIT usage.

 The users of ABINIT have little formal obligations with respect to the ABINIT group
 (those specified in the GNU General Public License, http://www.gnu.org/copyleft/gpl.txt).
 However, it is common practice in the scientific literature,
 to acknowledge the efforts of people that have made the research possible.
 In this spirit, please find below suggested citations of work written by ABINIT developers,
 corresponding to implementations inside of ABINIT that you have used in the present run.
 Note also that it will be of great value to readers of publications presenting these results,
 to read papers enabling them to understand the theoretical formalism and details
 of the ABINIT implementation.
 For information on why they are suggested, see also http://www.abinit.org/about/?text=acknowledgments.

 [1] Large scale ab initio calculations based on three levels of parallelization
 F. Bottin, S. Leroux, A. Knyazev, G. Zerah, Comput. Mat. Science 42, 329, (2008).
 Comment : in case paral_kgb is non-zero. Strong suggestion to cite this paper in your publications.
 This paper is also available at http://www.arxiv.org/abs/0707.3405

 [2] First-principles responses of solids to atomic displacements and homogeneous electric fields:,
 implementation of a conjugate-gradient algorithm. X. Gonze, Phys. Rev. B55, 10337 (1997).
 Comment : Non-vanishing rfphon and/or rfelfd, in the norm-conserving case.

 [3] Dynamical matrices, Born effective charges, dielectric permittivity tensors, and ,
 interatomic force constants from density-functional perturbation theory,
 X. Gonze and C. Lee, Phys. Rev. B55, 10355 (1997).
 Comment : Non-vanishing rfphon and/or rfelfd, in the norm-conserving case.

 [4] ABINIT : First-principles approach of materials and nanosystem properties.
 X. Gonze, B. Amadon, P.-M. Anglade, J.-M. Beuken, F. Bottin, P. Boulanger, F. Bruneval,
 D. Caliste, R. Caracas, M. Cote, T. Deutsch, L. Genovese, Ph. Ghosez, M. Giantomassi
 S. Goedecker, D.R. Hamann, P. Hermet, F. Jollet, G. Jomard, S. Leroux, M. Mancini, S. Mazevet,
 M.J.T. Oliveira, G. Onida, Y. Pouillon, T. Rangel, G.-M. Rignanese, D. Sangalli, R. Shaltaf,
 M. Torrent, M.J. Verstraete, G. Zerah, J.W. Zwanziger
 Computer Phys. Comm. 180, 2582-2615 (2009).
 Comment : the third generic paper describing the ABINIT project.
 Note that a version of this paper, that is not formatted for Computer Phys. Comm. 
 is available at http://www.abinit.org/about/ABINIT_CPC_v10.pdf .
 The licence allows the authors to put it on the Web.

 [5] A brief introduction to the ABINIT software package.
 X. Gonze, G.-M. Rignanese, M. Verstraete, J.-M. Beuken, Y. Pouillon, R. Caracas, F. Jollet,
 M. Torrent, G. Zerah, M. Mikami, Ph. Ghosez, M. Veithen, J.-Y. Raty, V. Olevano, F. Bruneval,
 L. Reining, R. Godby, G. Onida, D.R. Hamann, and D.C. Allan.
 Z. Kristallogr. 220, 558-562 (2005).
 Comment : the second generic paper describing the ABINIT project. Note that this paper
 should be cited especially if you are using the GW part of ABINIT, as several authors
 of this part are not in the list of authors of the first or third paper.
 The .pdf of the latter paper is available at http://www.abinit.org/about/zfk_0505-06_558-562.pdf.
 Note that it should not redistributed (Copyright by Oldenburg Wissenshaftverlag,
 the licence allows the authors to put it on the Web).
-
- Proc.   0 individual time (sec): cpu=          1.3  wall=          1.3

================================================================================

 Calculation completed.
.Delivered    2 WARNINGs and   0 COMMENTs to log file.
+Overall time at end (sec) : cpu=          5.0  wall=          5.0
