
.Version 7.10.1 of ABINIT 
.(MPI version, prepared for a x86_64_linux_gnu4.7 computer) 

.Copyright (C) 1998-2014 ABINIT group . 
 ABINIT comes with ABSOLUTELY NO WARRANTY.
 It is free software, and you are welcome to redistribute it
 under certain conditions (GNU General Public License,
 see ~abinit/COPYING or http://www.gnu.org/copyleft/gpl.txt).

 ABINIT is a project of the Universite Catholique de Louvain,
 Corning Inc. and other collaborators, see ~abinit/doc/developers/contributors.txt .
 Please read ~abinit/doc/users/acknowledgments.html for suggested
 acknowledgments of the ABINIT effort.
 For more information, see http://www.abinit.org .

.Starting date : Thu  2 Oct 2014.
- ( at 00h06 )
  
- input  file    -> t30.in
- output file    -> t30.out
- root for input  files -> t30i
- root for output files -> t30o


 DATASET    1 : space group Pm -3 m (#221); Bravais cP (primitive cubic)
================================================================================
 Values of the parameters that define the memory need for DATASET  1.
   intxc =         0  ionmov =         0    iscf =        17 xclevel =         1
  lmnmax =        22   lnmax =         8   mband =        23  mffmem =         1
P  mgfft =        30   mkmem =        10 mpssoang=         3     mpw =      1181
  mqgrid =      3001   natom =         5    nfft =     27000    nkpt =        10
  nloalg =         4  nspden =         2 nspinor =         1  nsppol =         2
    nsym =        48  n1xccc =         1  ntypat =         3  occopt =         3
 PAW method is used; the additional fine FFT grid is defined by:
   mgfftf=        36    nfftf =     46656
================================================================================
P This job should need less than                      37.637 Mbytes of memory.
  Rough estimation (10% accuracy) of disk space for files :
_ WF disk file :      8.291 Mbytes ; DEN or POT disk file :      0.714 Mbytes.
================================================================================


 DATASET    2 : space group Pm -3 m (#221); Bravais cP (primitive cubic)
================================================================================
 Values of the parameters that define the memory need for DATASET  2.
   intxc =         0  ionmov =         0    iscf =        17 xclevel =         1
  lmnmax =        22   lnmax =         8   mband =        23  mffmem =         1
P  mgfft =        30   mkmem =        10 mpssoang=         3     mpw =      1181
  mqgrid =      3001   natom =         5    nfft =     27000    nkpt =        10
  nloalg =         4  nspden =         2 nspinor =         1  nsppol =         2
    nsym =        48  n1xccc =         1  ntypat =         3  occopt =         3
 PAW method is used; the additional fine FFT grid is defined by:
   mgfftf=        36    nfftf =     46656
================================================================================
P This job should need less than                      37.637 Mbytes of memory.
  Rough estimation (10% accuracy) of disk space for files :
_ WF disk file :      8.291 Mbytes ; DEN or POT disk file :      0.714 Mbytes.
================================================================================

--------------------------------------------------------------------------------
------------- Echo of variables that govern the present computation ------------
--------------------------------------------------------------------------------
-
- outvars: echo of selected default values                                      
-   accesswff0 =  0 , fftalg0 =112 , wfoptalg0 = 10
-
- outvars: echo of global parameters not present in the input file              
-  max_nthreads =    0
-
 -outvars: echo values of preprocessed input variables --------
            acell      7.2605000000E+00  7.2605000000E+00  7.2605000000E+00 Bohr
              amu      5.09415000E+01  8.76200000E+01  1.59994000E+01
        dmatpuopt           1
        dmftbandf1          0
        dmftbandf2         23
        dmftbandi1          0
        dmftbandi2         21
        dmft_iter1          0
        dmft_iter2          1
        dmft_mxsf1     3.0000000000E-01
        dmft_mxsf2     7.0000000000E-01
        dmft_nwli1          0
        dmft_nwli2     100000
        dmft_nwlo1          0
        dmft_nwlo2        100
        dmft_rslf1          0
        dmft_rslf2          1
             ecut      1.60000000E+01 Hartree
-          fftalg         112
           getwfk          -1
           istwfk        0    0    0    0    0    0    0    0    1    1
              ixc           7
           jdtset        1    2
            jpawu1     0.00000000E+00  0.00000000E+00  0.00000000E+00 Hartree
            jpawu2     2.78682384E-02  0.00000000E+00  0.00000000E+00 Hartree
              kpt     -1.66666667E-01 -3.33333333E-01  0.00000000E+00
                      -1.66666667E-01 -1.66666667E-01  1.66666667E-01
                      -3.33333333E-01  5.00000000E-01  0.00000000E+00
                      -1.66666667E-01  5.00000000E-01  1.66666667E-01
                      -3.33333333E-01 -3.33333333E-01  1.66666667E-01
                      -1.66666667E-01  0.00000000E+00  0.00000000E+00
                       5.00000000E-01  5.00000000E-01  1.66666667E-01
                      -3.33333333E-01  5.00000000E-01  3.33333333E-01
                       5.00000000E-01  0.00000000E+00  0.00000000E+00
                       5.00000000E-01  5.00000000E-01  5.00000000E-01
           kptopt           4
         kptrlatt        3   -3    3     -3    3    3     -3   -3    3
          kptrlen      3.77266647E+01
            lpawu           2      -1      -1
P           mkmem          10
            natom           5
            nband          23
           ndtset           2
            ngfft          30      30      30
          ngfftdg          36      36      36
             nkpt          10
           nspden           2
           nsppol           2
            nstep1         30
            nstep2          1
             nsym          48
           ntypat           3
              occ      1.000000  1.000000  1.000000  1.000000  1.000000  1.000000
                       1.000000  1.000000  1.000000  1.000000  1.000000  1.000000
                       1.000000  1.000000  1.000000  1.000000  1.000000  1.000000
                       1.000000  1.000000  1.000000  0.000000  0.000000
                       1.000000  1.000000  1.000000  1.000000  1.000000  1.000000
                       1.000000  1.000000  1.000000  1.000000  1.000000  1.000000
                       1.000000  1.000000  1.000000  1.000000  1.000000  1.000000
                       1.000000  1.000000  1.000000  0.000000  0.000000
                       1.000000  1.000000  1.000000  1.000000  1.000000  1.000000
                       1.000000  1.000000  1.000000  1.000000  1.000000  1.000000
                       1.000000  1.000000  1.000000  1.000000  1.000000  1.000000
                       1.000000  1.000000  1.000000  0.000000  0.000000
                       1.000000  1.000000  1.000000  1.000000  1.000000  1.000000
                       1.000000  1.000000  1.000000  1.000000  1.000000  1.000000
                       1.000000  1.000000  1.000000  1.000000  1.000000  1.000000
                       1.000000  1.000000  1.000000  0.000000  0.000000
                       1.000000  1.000000  1.000000  1.000000  1.000000  1.000000
                       1.000000  1.000000  1.000000  1.000000  1.000000  1.000000
                       1.000000  1.000000  1.000000  1.000000  1.000000  1.000000
                       1.000000  1.000000  1.000000  0.000000  0.000000
                       1.000000  1.000000  1.000000  1.000000  1.000000  1.000000
                       1.000000  1.000000  1.000000  1.000000  1.000000  1.000000
                       1.000000  1.000000  1.000000  1.000000  1.000000  1.000000
                       1.000000  1.000000  1.000000  0.000000  0.000000
                       1.000000  1.000000  1.000000  1.000000  1.000000  1.000000
                       1.000000  1.000000  1.000000  1.000000  1.000000  1.000000
                       1.000000  1.000000  1.000000  1.000000  1.000000  1.000000
                       1.000000  1.000000  1.000000  0.000000  0.000000
                       1.000000  1.000000  1.000000  1.000000  1.000000  1.000000
                       1.000000  1.000000  1.000000  1.000000  1.000000  1.000000
                       1.000000  1.000000  1.000000  1.000000  1.000000  1.000000
                       1.000000  1.000000  1.000000  0.000000  0.000000
                       1.000000  1.000000  1.000000  1.000000  1.000000  1.000000
                       1.000000  1.000000  1.000000  1.000000  1.000000  1.000000
                       1.000000  1.000000  1.000000  1.000000  1.000000  1.000000
                       1.000000  1.000000  1.000000  0.000000  0.000000
                       1.000000  1.000000  1.000000  1.000000  1.000000  1.000000
                       1.000000  1.000000  1.000000  1.000000  1.000000  1.000000
                       1.000000  1.000000  1.000000  1.000000  1.000000  1.000000
                       1.000000  1.000000  1.000000  0.000000  0.000000
                       1.000000  1.000000  1.000000  1.000000  1.000000  1.000000
                       1.000000  1.000000  1.000000  1.000000  1.000000  1.000000
                       1.000000  1.000000  1.000000  1.000000  1.000000  1.000000
                       1.000000  1.000000  0.000000  0.000000  0.000000
                       1.000000  1.000000  1.000000  1.000000  1.000000  1.000000
                       1.000000  1.000000  1.000000  1.000000  1.000000  1.000000
                       1.000000  1.000000  1.000000  1.000000  1.000000  1.000000
                       1.000000  1.000000  0.000000  0.000000  0.000000
                       1.000000  1.000000  1.000000  1.000000  1.000000  1.000000
                       1.000000  1.000000  1.000000  1.000000  1.000000  1.000000
                       1.000000  1.000000  1.000000  1.000000  1.000000  1.000000
                       1.000000  1.000000  0.000000  0.000000  0.000000
                       1.000000  1.000000  1.000000  1.000000  1.000000  1.000000
                       1.000000  1.000000  1.000000  1.000000  1.000000  1.000000
                       1.000000  1.000000  1.000000  1.000000  1.000000  1.000000
                       1.000000  1.000000  0.000000  0.000000  0.000000
                       1.000000  1.000000  1.000000  1.000000  1.000000  1.000000
                       1.000000  1.000000  1.000000  1.000000  1.000000  1.000000
                       1.000000  1.000000  1.000000  1.000000  1.000000  1.000000
                       1.000000  1.000000  0.000000  0.000000  0.000000
                       1.000000  1.000000  1.000000  1.000000  1.000000  1.000000
                       1.000000  1.000000  1.000000  1.000000  1.000000  1.000000
                       1.000000  1.000000  1.000000  1.000000  1.000000  1.000000
                       1.000000  1.000000  0.000000  0.000000  0.000000
                       1.000000  1.000000  1.000000  1.000000  1.000000  1.000000
                       1.000000  1.000000  1.000000  1.000000  1.000000  1.000000
                       1.000000  1.000000  1.000000  1.000000  1.000000  1.000000
                       1.000000  1.000000  0.000000  0.000000  0.000000
                       1.000000  1.000000  1.000000  1.000000  1.000000  1.000000
                       1.000000  1.000000  1.000000  1.000000  1.000000  1.000000
                       1.000000  1.000000  1.000000  1.000000  1.000000  1.000000
                       1.000000  1.000000  0.000000  0.000000  0.000000
                       1.000000  1.000000  1.000000  1.000000  1.000000  1.000000
                       1.000000  1.000000  1.000000  1.000000  1.000000  1.000000
                       1.000000  1.000000  1.000000  1.000000  1.000000  1.000000
                       1.000000  1.000000  0.000000  0.000000  0.000000
                       1.000000  1.000000  1.000000  1.000000  1.000000  1.000000
                       1.000000  1.000000  1.000000  1.000000  1.000000  1.000000
                       1.000000  1.000000  1.000000  1.000000  1.000000  1.000000
                       1.000000  1.000000  0.000000  0.000000  0.000000
           occopt           3
        pawecutdg      3.00000000E+01 Hartree
           shiftk      5.00000000E-01  5.00000000E-01  5.00000000E-01
          spgroup         221
           symrel      1  0  0   0  1  0   0  0  1      -1  0  0   0 -1  0   0  0 -1
                      -1  0  0   0  1  0   0  0 -1       1  0  0   0 -1  0   0  0  1
                      -1  0  0   0 -1  0   0  0  1       1  0  0   0  1  0   0  0 -1
                       1  0  0   0 -1  0   0  0 -1      -1  0  0   0  1  0   0  0  1
                       0  1  0   1  0  0   0  0  1       0 -1  0  -1  0  0   0  0 -1
                       0 -1  0   1  0  0   0  0 -1       0  1  0  -1  0  0   0  0  1
                       0 -1  0  -1  0  0   0  0  1       0  1  0   1  0  0   0  0 -1
                       0  1  0  -1  0  0   0  0 -1       0 -1  0   1  0  0   0  0  1
                       0  0  1   1  0  0   0  1  0       0  0 -1  -1  0  0   0 -1  0
                       0  0 -1   1  0  0   0 -1  0       0  0  1  -1  0  0   0  1  0
                       0  0 -1  -1  0  0   0  1  0       0  0  1   1  0  0   0 -1  0
                       0  0  1  -1  0  0   0 -1  0       0  0 -1   1  0  0   0  1  0
                       1  0  0   0  0  1   0  1  0      -1  0  0   0  0 -1   0 -1  0
                      -1  0  0   0  0  1   0 -1  0       1  0  0   0  0 -1   0  1  0
                      -1  0  0   0  0 -1   0  1  0       1  0  0   0  0  1   0 -1  0
                       1  0  0   0  0 -1   0 -1  0      -1  0  0   0  0  1   0  1  0
                       0  1  0   0  0  1   1  0  0       0 -1  0   0  0 -1  -1  0  0
                       0 -1  0   0  0  1  -1  0  0       0  1  0   0  0 -1   1  0  0
                       0 -1  0   0  0 -1   1  0  0       0  1  0   0  0  1  -1  0  0
                       0  1  0   0  0 -1  -1  0  0       0 -1  0   0  0  1   1  0  0
                       0  0  1   0  1  0   1  0  0       0  0 -1   0 -1  0  -1  0  0
                       0  0 -1   0  1  0  -1  0  0       0  0  1   0 -1  0   1  0  0
                       0  0 -1   0 -1  0   1  0  0       0  0  1   0  1  0  -1  0  0
                       0  0  1   0 -1  0  -1  0  0       0  0 -1   0  1  0   1  0  0
           tolvrs      1.00000000E-07
           tsmear      3.67490000E-03 Hartree
            typat      1  2  3  3  3
            upawu1     0.00000000E+00  0.00000000E+00  0.00000000E+00 Hartree
            upawu2     1.15147886E-01  0.00000000E+00  0.00000000E+00 Hartree
          usedmft1          0
          usedmft2          1
          usepawu1          1
          usepawu2         10
           useylm           1
              wtk        0.22222    0.07407    0.11111    0.11111    0.22222    0.05556
                         0.05556    0.11111    0.02778    0.00926
           xangst      0.0000000000E+00  0.0000000000E+00  0.0000000000E+00
                       1.9210455615E+00  1.9210455615E+00  1.9210455615E+00
                       1.9210455615E+00  0.0000000000E+00  0.0000000000E+00
                       0.0000000000E+00  1.9210455615E+00  0.0000000000E+00
                       0.0000000000E+00  0.0000000000E+00  1.9210455615E+00
            xcart      0.0000000000E+00  0.0000000000E+00  0.0000000000E+00
                       3.6302500000E+00  3.6302500000E+00  3.6302500000E+00
                       3.6302500000E+00  0.0000000000E+00  0.0000000000E+00
                       0.0000000000E+00  3.6302500000E+00  0.0000000000E+00
                       0.0000000000E+00  0.0000000000E+00  3.6302500000E+00
             xred      0.0000000000E+00  0.0000000000E+00  0.0000000000E+00
                       5.0000000000E-01  5.0000000000E-01  5.0000000000E-01
                       5.0000000000E-01  0.0000000000E+00  0.0000000000E+00
                       0.0000000000E+00  5.0000000000E-01  0.0000000000E+00
                       0.0000000000E+00  0.0000000000E+00  5.0000000000E-01
            znucl       23.00000   38.00000    8.00000

================================================================================

 chkinp: Checking input parameters for consistency, jdtset=   1.

 chkinp: Checking input parameters for consistency, jdtset=   2.

================================================================================
== DATASET  1 ==================================================================
-   nproc =    1

 Exchange-correlation functional for the present dataset will be:
  LDA: Perdew-Wang 92 LSD fit to Ceperley-Alder data - ixc=7
 Citation for XC functional:
  J.P.Perdew and Y.Wang, PRB 45, 13244 (1992)

 Real(R)+Recip(G) space primitive vectors, cartesian coordinates (Bohr,Bohr^-1):
 R(1)=  7.2605000  0.0000000  0.0000000  G(1)=  0.1377316  0.0000000  0.0000000
 R(2)=  0.0000000  7.2605000  0.0000000  G(2)=  0.0000000  0.1377316  0.0000000
 R(3)=  0.0000000  0.0000000  7.2605000  G(3)=  0.0000000  0.0000000  0.1377316
 Unit cell volume ucvol=  3.8273624E+02 bohr^3
 Angles (23,13,12)=  9.00000000E+01  9.00000000E+01  9.00000000E+01 degrees

 Coarse grid specifications (used for wave-functions):

 getcut: wavevector=  0.0000  0.0000  0.0000  ngfft=  30  30  30
         ecut(hartree)=     16.000   => boxcut(ratio)=   2.29472

 getcut : COMMENT -
  Note that boxcut > 2.2 ; recall that boxcut=Gcut(box)/Gcut(sphere) = 2
  is sufficient for exact treatment of convolution.
  Such a large boxcut is a waste : you could raise ecut
  e.g. ecut=   21.062951 Hartrees makes boxcut=2


 Fine grid specifications (used for densities):

 getcut: wavevector=  0.0000  0.0000  0.0000  ngfft=  36  36  36
         ecut(hartree)=     30.000   => boxcut(ratio)=   2.01099

--- Pseudopotential description ------------------------------------------------
- pspini: atom type   1  psp file is /data/ABINIT/testf_gcc47/biederj_7.10.1-public/tests/Psps_for_tests/23v.paw
- pspatm: opening atomic psp file    /data/ABINIT/testf_gcc47/biederj_7.10.1-public/tests/Psps_for_tests/23v.paw
- Paw atomic data for element V - Generated by AtomPAW + AtomPAW2Abinit v3.2.0
- 23.00000  13.00000  20070917                znucl, zion, pspdat
    7    7    2    0      1505   0.00000      pspcod,pspxc,lmax,lloc,mmax,r2well
 Pseudopotential format is: paw3
 basis_size (lnmax)=  8 (lmn_size= 22), orbitals=   0   0   0   1   1   1   2   2
 Spheres core radius: rc_sph= 2.35000000
 3 radial meshes are used:
  - mesh 1: r(i)=AA*[exp(BB*(i-1))-1], size=1505 , AA= 0.26380E-03 BB= 0.60673E-02
  - mesh 2: r(i)=AA*[exp(BB*(i-1))-1], size=1500 , AA= 0.26380E-03 BB= 0.60673E-02
  - mesh 3: r(i)=AA*[exp(BB*(i-1))-1], size=1738 , AA= 0.26380E-03 BB= 0.60673E-02
 Shapefunction is SIN type: shapef(r)=[sin(pi*r/rshp)/(pi*r/rshp)]**2
 Radius for shape functions =  2.00701120
 Radial grid used for partial waves is grid 1
 Radial grid used for projectors is grid  2
 Radial grid used for (t)core density is grid 1
 Radial grid used for Vloc is grid 3
 Compensation charge density is taken into account in XC energy/potential
 pspatm: atomic psp has been read  and splines computed

- pspini: atom type   2  psp file is /data/ABINIT/testf_gcc47/biederj_7.10.1-public/tests/Psps_for_tests/38sr.paw
- pspatm: opening atomic psp file    /data/ABINIT/testf_gcc47/biederj_7.10.1-public/tests/Psps_for_tests/38sr.paw
- Paw atomic data for element Sr - Generated by AtomPAW + AtomPAW2Abinit v3.2.0
- 38.00000  10.00000  20070917                znucl, zion, pspdat
    7    7    2    0      1068   0.00000      pspcod,pspxc,lmax,lloc,mmax,r2well
 Pseudopotential format is: paw3
 basis_size (lnmax)=  6 (lmn_size= 18), orbitals=   0   0   1   1   2   2
 Spheres core radius: rc_sph= 1.92519986
 4 radial meshes are used:
  - mesh 1: r(i)=AA*[exp(BB*(i-1))-1], size=1068 , AA= 0.22443E-03 BB= 0.85283E-02
  - mesh 2: r(i)=AA*[exp(BB*(i-1))-1], size=1063 , AA= 0.22443E-03 BB= 0.85283E-02
  - mesh 3: r(i)=AA*[exp(BB*(i-1))-1], size=1134 , AA= 0.22443E-03 BB= 0.85283E-02
  - mesh 4: r(i)=AA*[exp(BB*(i-1))-1], size=1256 , AA= 0.22443E-03 BB= 0.85283E-02
 Shapefunction is SIN type: shapef(r)=[sin(pi*r/rshp)/(pi*r/rshp)]**2
 Radius for shape functions =  1.81361893
 Radial grid used for partial waves is grid 1
 Radial grid used for projectors is grid  2
 Radial grid used for (t)core density is grid 3
 Radial grid used for Vloc is grid 4
 Compensation charge density is taken into account in XC energy/potential
 pspatm: atomic psp has been read  and splines computed

- pspini: atom type   3  psp file is /data/ABINIT/testf_gcc47/biederj_7.10.1-public/tests/Psps_for_tests/8o.2.paw
- pspatm: opening atomic psp file    /data/ABINIT/testf_gcc47/biederj_7.10.1-public/tests/Psps_for_tests/8o.2.paw
- Paw atomic data extracted from US-psp (D.Vanderbilt): Oxygen
-  8.00000   6.00000  20050722                znucl, zion, pspdat
    7   11    2    0       489   0.00000      pspcod,pspxc,lmax,lloc,mmax,r2well
 Pseudopotential format is: paw3
 basis_size (lnmax)=  6 (lmn_size= 18), orbitals=   0   0   1   1   2   2
 Spheres core radius: rc_sph= 1.21105161
 4 radial meshes are used:
  - mesh 1: r(i)=AA*[exp(BB*(i-1))-1], size= 489 , AA= 0.30984E-03 BB= 0.16949E-01
  - mesh 2: r(i)=AA*[exp(BB*(i-1))-1], size= 548 , AA= 0.30984E-03 BB= 0.16949E-01
  - mesh 3: r(i)=AA*[exp(BB*(i-1))-1], size= 509 , AA= 0.30984E-03 BB= 0.16949E-01
  - mesh 4: r(i)=AA*[exp(BB*(i-1))-1], size= 613 , AA= 0.30984E-03 BB= 0.16949E-01
 Shapefunction is SIN type: shapef(r)=[sin(pi*r/rshp)/(pi*r/rshp)]**2
 Radius for shape functions = sphere core radius
 Radial grid used for partial waves is grid 1
 Radial grid used for projectors is grid  2
 Radial grid used for (t)core density is grid 3
 Radial grid used for Vloc is grid 4

 pawpsp_calc: WARNING -
  Atomic data could produce inaccurate results:
    Wavefunctions and pseudo-wavefunctions should
    be given on a radial mesh larger than the PAW
    spheres (at least 2 additional points) !
  Action: check your pseudopotential file.
 Compensation charge density is taken into account in XC energy/potential
 pspatm: atomic psp has been read  and splines computed

   2.04308614E+03                                ecore*ucvol(ha*bohr**3)
--------------------------------------------------------------------------------

P newkpt: treating     23 bands with npw=    1174 for ikpt=   1 by node    0
P newkpt: treating     23 bands with npw=    1165 for ikpt=   2 by node    0
P newkpt: treating     23 bands with npw=    1172 for ikpt=   3 by node    0
P newkpt: treating     23 bands with npw=    1160 for ikpt=   4 by node    0
P newkpt: treating     23 bands with npw=    1171 for ikpt=   5 by node    0
P newkpt: treating     23 bands with npw=    1181 for ikpt=   6 by node    0
P newkpt: treating     23 bands with npw=    1180 for ikpt=   7 by node    0
P newkpt: treating     23 bands with npw=    1162 for ikpt=   8 by node    0
P newkpt: treating     23 bands with npw=    1166 for ikpt=   9 by node    0
P newkpt: treating     23 bands with npw=    1088 for ikpt=  10 by node    0
P newkpt: treating     23 bands with npw=    1174 for ikpt=   1 by node    0
P newkpt: treating     23 bands with npw=    1165 for ikpt=   2 by node    0
P newkpt: treating     23 bands with npw=    1172 for ikpt=   3 by node    0
P newkpt: treating     23 bands with npw=    1160 for ikpt=   4 by node    0
P newkpt: treating     23 bands with npw=    1171 for ikpt=   5 by node    0
P newkpt: treating     23 bands with npw=    1181 for ikpt=   6 by node    0
P newkpt: treating     23 bands with npw=    1180 for ikpt=   7 by node    0
P newkpt: treating     23 bands with npw=    1162 for ikpt=   8 by node    0
P newkpt: treating     23 bands with npw=    1166 for ikpt=   9 by node    0
P newkpt: treating     23 bands with npw=    1088 for ikpt=  10 by node    0

_setup2: Arith. and geom. avg. npw (full set) are    1169.259    1169.216


 ******************************************
 LDA+U Method used: FLL
 ******************************************

================================================================================

     iter   Etot(hartree)     deltaE(h) residm    nres2    magn
 ETOT  1  -146.17787269044    -1.46E+02 1.02E+01 2.15E+02 0.000
 ETOT  2  -155.11440524136    -8.94E+00 1.46E+00 4.30E+02 0.000
 ETOT  3  -152.45949895854     2.65E+00 7.95E-01 1.67E+02 0.000
 ETOT  4  -151.89060865562     5.69E-01 1.21E+00 1.51E+02 0.000
 ETOT  5  -151.90134459889    -1.07E-02 5.13E-01 1.23E+01 0.000
 ETOT  6  -151.99454670439    -9.32E-02 4.21E-01 2.86E+00 0.000
 ETOT  7  -152.02404408764    -2.95E-02 2.20E-01 7.07E+00 0.000
 ETOT  8  -152.00275591679     2.13E-02 1.43E-02 2.28E-01 0.000
 ETOT  9  -152.00447657180    -1.72E-03 1.41E-03 1.72E-01 0.000
 ETOT 10  -152.00392588293     5.51E-04 9.43E-04 4.56E-02 0.000
 ETOT 11  -152.00399263148    -6.67E-05 7.50E-04 2.65E-02 0.000
 ETOT 12  -152.00386479583     1.28E-04 6.60E-04 4.27E-03 0.000
 ETOT 13  -152.00383818923     2.66E-05 5.53E-04 4.31E-04 0.000
 ETOT 14  -152.00383811258     7.67E-08 4.54E-04 7.74E-05 0.000
 ETOT 15  -152.00383835990    -2.47E-07 3.41E-04 5.86E-05 0.000
 ETOT 16  -152.00383818775     1.72E-07 2.48E-04 8.19E-06 0.000
 ETOT 17  -152.00383818952    -1.78E-09 1.86E-04 2.82E-07 0.000
 ETOT 18  -152.00383819637    -6.84E-09 1.35E-04 1.34E-07 0.000
 ETOT 19  -152.00383819742    -1.05E-09 9.99E-05 8.43E-08 0.000

 At SCF step   19       nres2   =  8.43E-08 < tolvrs=  1.00E-07 =>converged.

 Cartesian components of stress tensor (hartree/bohr^3)
  sigma(1 1)=  3.40377455E-04  sigma(3 2)=  0.00000000E+00
  sigma(2 2)=  3.40377455E-04  sigma(3 1)=  0.00000000E+00
  sigma(3 3)=  3.40377455E-04  sigma(2 1)=  0.00000000E+00


 PAW TEST:
 ==== Compensation charge inside spheres ============
 The following values must be close to each other ...
 Compensation charge over spherical meshes =      7.379190114258817
 Compensation charge over fine fft grid    =      7.379397117078829

 ==== Results concerning PAW augmentation regions ====

 Total pseudopotential strength Dij (hartree):
 Atom #  1 - Spin component 1
  -1.46094   0.30858  -1.65262   0.00000   0.00000   0.00000   0.00000   0.00000   0.00000   0.00000   0.00000   0.00000 ...
   0.30858   0.16795  -1.51699   0.00000   0.00000   0.00000   0.00000   0.00000   0.00000   0.00000   0.00000   0.00000 ...
  -1.65262  -1.51699  15.91509   0.00000   0.00000   0.00000   0.00000   0.00000   0.00000   0.00000   0.00000   0.00000 ...
   0.00000   0.00000   0.00000  -1.05625   0.00000   0.00000   0.07294   0.00000   0.00000   0.07829   0.00000   0.00000 ...
   0.00000   0.00000   0.00000   0.00000  -1.05625   0.00000   0.00000   0.07294   0.00000   0.00000   0.07829   0.00000 ...
   0.00000   0.00000   0.00000   0.00000   0.00000  -1.05625   0.00000   0.00000   0.07294   0.00000   0.00000   0.07829 ...
   0.00000   0.00000   0.00000   0.07294   0.00000   0.00000   0.03952   0.00000   0.00000  -0.16659   0.00000   0.00000 ...
   0.00000   0.00000   0.00000   0.00000   0.07294   0.00000   0.00000   0.03952   0.00000   0.00000  -0.16659   0.00000 ...
   0.00000   0.00000   0.00000   0.00000   0.00000   0.07294   0.00000   0.00000   0.03952   0.00000   0.00000  -0.16659 ...
   0.00000   0.00000   0.00000   0.07829   0.00000   0.00000  -0.16659   0.00000   0.00000   2.30145   0.00000   0.00000 ...
   0.00000   0.00000   0.00000   0.00000   0.07829   0.00000   0.00000  -0.16659   0.00000   0.00000   2.30145   0.00000 ...
   0.00000   0.00000   0.00000   0.00000   0.00000   0.07829   0.00000   0.00000  -0.16659   0.00000   0.00000   2.30145 ...
   ...  only 12  components have been written...
 Atom #  1 - Spin component 2
  -1.46094   0.30858  -1.65262   0.00000   0.00000   0.00000   0.00000   0.00000   0.00000   0.00000   0.00000   0.00000 ...
   0.30858   0.16795  -1.51699   0.00000   0.00000   0.00000   0.00000   0.00000   0.00000   0.00000   0.00000   0.00000 ...
  -1.65262  -1.51699  15.91509   0.00000   0.00000   0.00000   0.00000   0.00000   0.00000   0.00000   0.00000   0.00000 ...
   0.00000   0.00000   0.00000  -1.05625   0.00000   0.00000   0.07294   0.00000   0.00000   0.07829   0.00000   0.00000 ...
   0.00000   0.00000   0.00000   0.00000  -1.05625   0.00000   0.00000   0.07294   0.00000   0.00000   0.07829   0.00000 ...
   0.00000   0.00000   0.00000   0.00000   0.00000  -1.05625   0.00000   0.00000   0.07294   0.00000   0.00000   0.07829 ...
   0.00000   0.00000   0.00000   0.07294   0.00000   0.00000   0.03952   0.00000   0.00000  -0.16659   0.00000   0.00000 ...
   0.00000   0.00000   0.00000   0.00000   0.07294   0.00000   0.00000   0.03952   0.00000   0.00000  -0.16659   0.00000 ...
   0.00000   0.00000   0.00000   0.00000   0.00000   0.07294   0.00000   0.00000   0.03952   0.00000   0.00000  -0.16659 ...
   0.00000   0.00000   0.00000   0.07829   0.00000   0.00000  -0.16659   0.00000   0.00000   2.30145   0.00000   0.00000 ...
   0.00000   0.00000   0.00000   0.00000   0.07829   0.00000   0.00000  -0.16659   0.00000   0.00000   2.30145   0.00000 ...
   0.00000   0.00000   0.00000   0.00000   0.00000   0.07829   0.00000   0.00000  -0.16659   0.00000   0.00000   2.30145 ...
   ...  only 12  components have been written...
 Atom #  5 - Spin component 1
   0.63674   1.07122   0.00000   0.00000   0.00000   0.00000   0.00000   0.00000   0.00000   0.00000   0.00026   0.00000 ...
   1.07122   1.79910   0.00000   0.00000   0.00000   0.00000   0.00000   0.00000   0.00000   0.00000   0.00038   0.00000 ...
   0.00000   0.00000  -0.27260   0.00000   0.00000  -0.30352   0.00000   0.00000   0.00000   0.00000   0.00000   0.00000 ...
   0.00000   0.00000   0.00000  -0.27491   0.00000   0.00000  -0.30675   0.00000   0.00000   0.00000   0.00000   0.00000 ...
   0.00000   0.00000   0.00000   0.00000  -0.27260   0.00000   0.00000  -0.30352   0.00000   0.00000   0.00000   0.00000 ...
   0.00000   0.00000  -0.30352   0.00000   0.00000  -0.30223   0.00000   0.00000   0.00000   0.00000   0.00000   0.00000 ...
   0.00000   0.00000   0.00000  -0.30675   0.00000   0.00000  -0.30674   0.00000   0.00000   0.00000   0.00000   0.00000 ...
   0.00000   0.00000   0.00000   0.00000  -0.30352   0.00000   0.00000  -0.30223   0.00000   0.00000   0.00000   0.00000 ...
   0.00000   0.00000   0.00000   0.00000   0.00000   0.00000   0.00000   0.00000  -0.01517   0.00000   0.00000   0.00000 ...
   0.00000   0.00000   0.00000   0.00000   0.00000   0.00000   0.00000   0.00000   0.00000  -0.01537   0.00000   0.00000 ...
   0.00026   0.00038   0.00000   0.00000   0.00000   0.00000   0.00000   0.00000   0.00000   0.00000  -0.01552   0.00000 ...
   0.00000   0.00000   0.00000   0.00000   0.00000   0.00000   0.00000   0.00000   0.00000   0.00000   0.00000  -0.01537 ...
   ...  only 12  components have been written...
 Atom #  5 - Spin component 2
   0.63674   1.07122   0.00000   0.00000   0.00000   0.00000   0.00000   0.00000   0.00000   0.00000   0.00026   0.00000 ...
   1.07122   1.79910   0.00000   0.00000   0.00000   0.00000   0.00000   0.00000   0.00000   0.00000   0.00038   0.00000 ...
   0.00000   0.00000  -0.27260   0.00000   0.00000  -0.30352   0.00000   0.00000   0.00000   0.00000   0.00000   0.00000 ...
   0.00000   0.00000   0.00000  -0.27491   0.00000   0.00000  -0.30675   0.00000   0.00000   0.00000   0.00000   0.00000 ...
   0.00000   0.00000   0.00000   0.00000  -0.27260   0.00000   0.00000  -0.30352   0.00000   0.00000   0.00000   0.00000 ...
   0.00000   0.00000  -0.30352   0.00000   0.00000  -0.30223   0.00000   0.00000   0.00000   0.00000   0.00000   0.00000 ...
   0.00000   0.00000   0.00000  -0.30675   0.00000   0.00000  -0.30674   0.00000   0.00000   0.00000   0.00000   0.00000 ...
   0.00000   0.00000   0.00000   0.00000  -0.30352   0.00000   0.00000  -0.30223   0.00000   0.00000   0.00000   0.00000 ...
   0.00000   0.00000   0.00000   0.00000   0.00000   0.00000   0.00000   0.00000  -0.01517   0.00000   0.00000   0.00000 ...
   0.00000   0.00000   0.00000   0.00000   0.00000   0.00000   0.00000   0.00000   0.00000  -0.01537   0.00000   0.00000 ...
   0.00026   0.00038   0.00000   0.00000   0.00000   0.00000   0.00000   0.00000   0.00000   0.00000  -0.01552   0.00000 ...
   0.00000   0.00000   0.00000   0.00000   0.00000   0.00000   0.00000   0.00000   0.00000   0.00000   0.00000  -0.01537 ...
   ...  only 12  components have been written...


 Augmentation waves occupancies Rhoij:
 Atom #  1 - Spin component 1
   1.00063   0.00053   0.00176   0.00000   0.00000   0.00000   0.00000   0.00000   0.00000   0.00000   0.00000   0.00000 ...
   0.00053   0.73962   0.00988   0.00000   0.00000   0.00000   0.00000   0.00000   0.00000   0.00000   0.00000   0.00000 ...
   0.00176   0.00988   0.00017   0.00000   0.00000   0.00000   0.00000   0.00000   0.00000   0.00000   0.00000   0.00000 ...
   0.00000   0.00000   0.00000   0.99956   0.00000   0.00000  -0.01667   0.00000   0.00000   0.00391   0.00000   0.00000 ...
   0.00000   0.00000   0.00000   0.00000   0.99956   0.00000   0.00000  -0.01667   0.00000   0.00000   0.00391   0.00000 ...
   0.00000   0.00000   0.00000   0.00000   0.00000   0.99956   0.00000   0.00000  -0.01667   0.00000   0.00000   0.00391 ...
   0.00000   0.00000   0.00000  -0.01667   0.00000   0.00000   1.07504   0.00000   0.00000   0.01707   0.00000   0.00000 ...
   0.00000   0.00000   0.00000   0.00000  -0.01667   0.00000   0.00000   1.07504   0.00000   0.00000   0.01707   0.00000 ...
   0.00000   0.00000   0.00000   0.00000   0.00000  -0.01667   0.00000   0.00000   1.07504   0.00000   0.00000   0.01707 ...
   0.00000   0.00000   0.00000   0.00391   0.00000   0.00000   0.01707   0.00000   0.00000   0.00034   0.00000   0.00000 ...
   0.00000   0.00000   0.00000   0.00000   0.00391   0.00000   0.00000   0.01707   0.00000   0.00000   0.00034   0.00000 ...
   0.00000   0.00000   0.00000   0.00000   0.00000   0.00391   0.00000   0.00000   0.01707   0.00000   0.00000   0.00034 ...
   ...  only 12  components have been written...
 Atom #  1 - Spin component 2
   1.00063   0.00053   0.00176   0.00000   0.00000   0.00000   0.00000   0.00000   0.00000   0.00000   0.00000   0.00000 ...
   0.00053   0.73962   0.00988   0.00000   0.00000   0.00000   0.00000   0.00000   0.00000   0.00000   0.00000   0.00000 ...
   0.00176   0.00988   0.00017   0.00000   0.00000   0.00000   0.00000   0.00000   0.00000   0.00000   0.00000   0.00000 ...
   0.00000   0.00000   0.00000   0.99956   0.00000   0.00000  -0.01667   0.00000   0.00000   0.00391   0.00000   0.00000 ...
   0.00000   0.00000   0.00000   0.00000   0.99956   0.00000   0.00000  -0.01667   0.00000   0.00000   0.00391   0.00000 ...
   0.00000   0.00000   0.00000   0.00000   0.00000   0.99956   0.00000   0.00000  -0.01667   0.00000   0.00000   0.00391 ...
   0.00000   0.00000   0.00000  -0.01667   0.00000   0.00000   1.07504   0.00000   0.00000   0.01707   0.00000   0.00000 ...
   0.00000   0.00000   0.00000   0.00000  -0.01667   0.00000   0.00000   1.07504   0.00000   0.00000   0.01707   0.00000 ...
   0.00000   0.00000   0.00000   0.00000   0.00000  -0.01667   0.00000   0.00000   1.07504   0.00000   0.00000   0.01707 ...
   0.00000   0.00000   0.00000   0.00391   0.00000   0.00000   0.01707   0.00000   0.00000   0.00034   0.00000   0.00000 ...
   0.00000   0.00000   0.00000   0.00000   0.00391   0.00000   0.00000   0.01707   0.00000   0.00000   0.00034   0.00000 ...
   0.00000   0.00000   0.00000   0.00000   0.00000   0.00391   0.00000   0.00000   0.01707   0.00000   0.00000   0.00034 ...
   ...  only 12  components have been written...
 Atom #  5 - Spin component 1
   1.08309  -0.06202   0.00000   0.00000   0.00000   0.00000   0.00000   0.00000   0.00000   0.00000   0.02109   0.00000 ...
  -0.06202   0.00715   0.00000   0.00000   0.00000   0.00000   0.00000   0.00000   0.00000   0.00000   0.00297   0.00000 ...
   0.00000   0.00000   0.95601   0.00000   0.00000  -0.08422   0.00000   0.00000   0.00000   0.00000   0.00000   0.00000 ...
   0.00000   0.00000   0.00000   1.09717   0.00000   0.00000  -0.15714   0.00000   0.00000   0.00000   0.00000   0.00000 ...
   0.00000   0.00000   0.00000   0.00000   0.95601   0.00000   0.00000  -0.08422   0.00000   0.00000   0.00000   0.00000 ...
   0.00000   0.00000  -0.08422   0.00000   0.00000   0.01287   0.00000   0.00000   0.00000   0.00000   0.00000   0.00000 ...
   0.00000   0.00000   0.00000  -0.15714   0.00000   0.00000   0.03007   0.00000   0.00000   0.00000   0.00000   0.00000 ...
   0.00000   0.00000   0.00000   0.00000  -0.08422   0.00000   0.00000   0.01287   0.00000   0.00000   0.00000   0.00000 ...
   0.00000   0.00000   0.00000   0.00000   0.00000   0.00000   0.00000   0.00000   0.00150   0.00000   0.00000   0.00000 ...
   0.00000   0.00000   0.00000   0.00000   0.00000   0.00000   0.00000   0.00000   0.00000   0.00626   0.00000   0.00000 ...
   0.02109   0.00297   0.00000   0.00000   0.00000   0.00000   0.00000   0.00000   0.00000   0.00000   0.02118   0.00000 ...
   0.00000   0.00000   0.00000   0.00000   0.00000   0.00000   0.00000   0.00000   0.00000   0.00000   0.00000   0.00626 ...
   ...  only 12  components have been written...
 Atom #  5 - Spin component 2
   1.08309  -0.06202   0.00000   0.00000   0.00000   0.00000   0.00000   0.00000   0.00000   0.00000   0.02109   0.00000 ...
  -0.06202   0.00715   0.00000   0.00000   0.00000   0.00000   0.00000   0.00000   0.00000   0.00000   0.00297   0.00000 ...
   0.00000   0.00000   0.95601   0.00000   0.00000  -0.08422   0.00000   0.00000   0.00000   0.00000   0.00000   0.00000 ...
   0.00000   0.00000   0.00000   1.09717   0.00000   0.00000  -0.15714   0.00000   0.00000   0.00000   0.00000   0.00000 ...
   0.00000   0.00000   0.00000   0.00000   0.95601   0.00000   0.00000  -0.08422   0.00000   0.00000   0.00000   0.00000 ...
   0.00000   0.00000  -0.08422   0.00000   0.00000   0.01287   0.00000   0.00000   0.00000   0.00000   0.00000   0.00000 ...
   0.00000   0.00000   0.00000  -0.15714   0.00000   0.00000   0.03007   0.00000   0.00000   0.00000   0.00000   0.00000 ...
   0.00000   0.00000   0.00000   0.00000  -0.08422   0.00000   0.00000   0.01287   0.00000   0.00000   0.00000   0.00000 ...
   0.00000   0.00000   0.00000   0.00000   0.00000   0.00000   0.00000   0.00000   0.00150   0.00000   0.00000   0.00000 ...
   0.00000   0.00000   0.00000   0.00000   0.00000   0.00000   0.00000   0.00000   0.00000   0.00626   0.00000   0.00000 ...
   0.02109   0.00297   0.00000   0.00000   0.00000   0.00000   0.00000   0.00000   0.00000   0.00000   0.02118   0.00000 ...
   0.00000   0.00000   0.00000   0.00000   0.00000   0.00000   0.00000   0.00000   0.00000   0.00000   0.00000   0.00626 ...
   ...  only 12  components have been written...

 "PAW+U" part of augmentation waves occupancies Rhoij:
 Atom #  1 - L=2 ONLY - Spin component 1
   0.32342   0.00000   0.00000   0.00000   0.00000   0.02548   0.00000   0.00000   0.00000   0.00000
   0.00000   0.32342   0.00000   0.00000   0.00000   0.00000   0.02548   0.00000   0.00000   0.00000
   0.00000   0.00000   0.31971   0.00000   0.00000   0.00000   0.00000   0.06725   0.00000   0.00000
   0.00000   0.00000   0.00000   0.32342   0.00000   0.00000   0.00000   0.00000   0.02548   0.00000
   0.00000   0.00000   0.00000   0.00000   0.31971   0.00000   0.00000   0.00000   0.00000   0.06725
   0.02548   0.00000   0.00000   0.00000   0.00000   0.00474   0.00000   0.00000   0.00000   0.00000
   0.00000   0.02548   0.00000   0.00000   0.00000   0.00000   0.00474   0.00000   0.00000   0.00000
   0.00000   0.00000   0.06725   0.00000   0.00000   0.00000   0.00000   0.01684   0.00000   0.00000
   0.00000   0.00000   0.00000   0.02548   0.00000   0.00000   0.00000   0.00000   0.00474   0.00000
   0.00000   0.00000   0.00000   0.00000   0.06725   0.00000   0.00000   0.00000   0.00000   0.01684
 Atom #  1 - L=2 ONLY - Spin component 2
   0.32342   0.00000   0.00000   0.00000   0.00000   0.02548   0.00000   0.00000   0.00000   0.00000
   0.00000   0.32342   0.00000   0.00000   0.00000   0.00000   0.02548   0.00000   0.00000   0.00000
   0.00000   0.00000   0.31971   0.00000   0.00000   0.00000   0.00000   0.06725   0.00000   0.00000
   0.00000   0.00000   0.00000   0.32342   0.00000   0.00000   0.00000   0.00000   0.02548   0.00000
   0.00000   0.00000   0.00000   0.00000   0.31971   0.00000   0.00000   0.00000   0.00000   0.06725
   0.02548   0.00000   0.00000   0.00000   0.00000   0.00474   0.00000   0.00000   0.00000   0.00000
   0.00000   0.02548   0.00000   0.00000   0.00000   0.00000   0.00474   0.00000   0.00000   0.00000
   0.00000   0.00000   0.06725   0.00000   0.00000   0.00000   0.00000   0.01684   0.00000   0.00000
   0.00000   0.00000   0.00000   0.02548   0.00000   0.00000   0.00000   0.00000   0.00474   0.00000
   0.00000   0.00000   0.00000   0.00000   0.06725   0.00000   0.00000   0.00000   0.00000   0.01684

 ---------- LDA+U DATA --------------------------------------------------- 

 ====== For Atom     1, occupations for correlated orbitals. lpawu =   2

 Atom   1. Occ. for lpawu and for spin  1 =   1.15959
 Atom   1. Occ. for lpawu and for spin  2 =   1.15959
 => On atom   1,  local Mag. for lpawu is       -0.000000

 == Occupation matrix for correlated orbitals:

 Occupation matrix for spin  1
     0.23734    0.00000    0.00000    0.00000    0.00000
     0.00000    0.23734    0.00000    0.00000    0.00000
     0.00000    0.00000    0.22378    0.00000    0.00000
     0.00000    0.00000    0.00000    0.23734    0.00000
     0.00000    0.00000    0.00000    0.00000    0.22378


 Occupation matrix for spin  2
     0.23734    0.00000    0.00000    0.00000    0.00000
     0.00000    0.23734    0.00000    0.00000    0.00000
     0.00000    0.00000    0.22378    0.00000    0.00000
     0.00000    0.00000    0.00000    0.23734    0.00000
     0.00000    0.00000    0.00000    0.00000    0.22378



================================================================================

 ----iterations are completed or convergence reached----

 Mean square residual over all n,k,spin=   4.3474E-07; max=  9.9927E-05
  -0.1667 -0.3333  0.0000    1  1.99305E-09 kpt; spin; max resid(k); each band:
  5.79E-10 7.87E-11 7.46E-11 4.50E-10 5.37E-11 4.99E-11 3.43E-11 1.40E-11
  3.24E-12 1.66E-11 1.86E-11 1.14E-11 1.30E-11 7.52E-12 2.58E-11 8.41E-12
  1.04E-11 3.44E-12 2.15E-11 1.65E-11 5.20E-11 1.99E-09 1.54E-10
  -0.1667 -0.1667  0.1667    1  6.47991E-10 kpt; spin; max resid(k); each band:
  6.48E-10 1.25E-10 2.04E-10 2.03E-10 2.30E-11 8.79E-11 5.82E-12 3.00E-11
  9.01E-12 1.29E-11 1.25E-11 2.93E-11 8.08E-12 5.67E-12 8.33E-12 8.11E-12
  3.46E-11 1.19E-11 1.10E-11 1.08E-12 6.45E-12 2.92E-11 2.15E-11
  -0.3333  0.5000  0.0000    1  4.60333E-08 kpt; spin; max resid(k); each band:
  6.00E-10 1.20E-11 1.16E-10 6.99E-11 8.84E-11 6.39E-11 3.25E-11 1.74E-11
  3.54E-12 2.57E-11 1.17E-11 2.05E-12 3.68E-11 4.63E-12 1.19E-11 3.09E-12
  3.73E-11 7.92E-12 3.97E-12 4.12E-12 1.13E-10 1.24E-09 4.60E-08
  -0.1667  0.5000  0.1667    1  1.56826E-09 kpt; spin; max resid(k); each band:
  3.02E-10 1.18E-11 1.61E-10 1.14E-10 6.86E-11 2.75E-11 1.40E-10 6.23E-12
  6.93E-12 1.14E-11 1.53E-11 3.12E-12 4.36E-11 5.03E-12 1.09E-11 6.55E-12
  1.39E-11 1.18E-11 3.28E-12 1.12E-11 4.00E-11 1.57E-09 2.52E-10
  -0.3333 -0.3333  0.1667    1  3.05335E-10 kpt; spin; max resid(k); each band:
  3.05E-10 9.00E-11 1.57E-10 2.53E-10 2.61E-11 7.66E-11 3.44E-11 2.28E-11
  9.50E-12 2.23E-11 1.28E-11 5.77E-11 3.19E-12 5.88E-11 7.93E-12 1.16E-11
  1.54E-11 4.32E-12 2.22E-12 1.20E-12 1.31E-10 3.87E-11 8.11E-11
  -0.1667  0.0000  0.0000    1  4.48651E-10 kpt; spin; max resid(k); each band:
  4.49E-10 1.64E-10 2.52E-11 1.94E-10 8.01E-11 4.98E-11 2.20E-11 5.74E-12
  7.41E-12 1.39E-11 3.21E-11 1.36E-11 7.47E-12 1.78E-11 2.23E-11 3.68E-11
  2.10E-12 7.68E-12 3.25E-11 4.31E-11 9.61E-13 1.79E-11 6.95E-11
   0.5000  0.5000  0.1667    1  4.26568E-10 kpt; spin; max resid(k); each band:
  4.27E-10 1.59E-11 7.55E-11 8.29E-11 2.10E-11 2.58E-11 8.26E-12 6.56E-11
  7.07E-12 8.21E-12 2.71E-11 1.99E-12 1.22E-10 2.52E-12 1.02E-11 1.12E-11
  3.56E-12 3.81E-12 3.37E-12 8.16E-14 1.50E-11 1.83E-10 1.71E-10
  -0.3333  0.5000  0.3333    1  7.88329E-11 kpt; spin; max resid(k); each band:
  7.69E-11 7.88E-11 1.68E-11 7.16E-11 2.26E-11 7.13E-11 4.15E-11 2.97E-12
  8.74E-12 1.98E-11 9.04E-12 2.38E-12 2.83E-12 4.79E-11 5.15E-12 1.21E-11
  1.93E-11 8.74E-13 3.83E-12 5.52E-13 3.53E-11 2.17E-11 1.13E-11
   0.5000  0.0000  0.0000    1  9.99274E-05 kpt; spin; max resid(k); each band:
  4.80E-10 6.43E-11 2.68E-11 6.36E-11 2.24E-11 6.50E-11 3.67E-12 2.45E-11
  9.58E-12 3.54E-12 1.41E-11 2.01E-12 4.92E-12 5.26E-12 7.64E-12 7.48E-12
  2.39E-11 1.93E-12 4.11E-12 3.94E-12 2.83E-11 1.81E-11 9.99E-05
   0.5000  0.5000  0.5000    1  9.60943E-11 kpt; spin; max resid(k); each band:
  5.96E-11 5.89E-12 7.17E-12 5.26E-11 9.61E-11 8.50E-13 1.50E-12 8.89E-12
  9.21E-12 1.19E-11 1.08E-11 1.03E-12 2.72E-12 2.01E-12 5.39E-12 7.14E-12
  1.86E-11 1.37E-12 1.74E-12 5.52E-13 1.01E-11 1.76E-11 1.90E-11
  -0.1667 -0.3333  0.0000    2  1.99305E-09 kpt; spin; max resid(k); each band:
  5.79E-10 7.87E-11 7.46E-11 4.50E-10 5.37E-11 4.99E-11 3.43E-11 1.40E-11
  3.24E-12 1.66E-11 1.86E-11 1.14E-11 1.30E-11 7.52E-12 2.58E-11 8.41E-12
  1.04E-11 3.44E-12 2.15E-11 1.65E-11 5.20E-11 1.99E-09 1.54E-10
  -0.1667 -0.1667  0.1667    2  6.47975E-10 kpt; spin; max resid(k); each band:
  6.48E-10 1.25E-10 2.04E-10 2.03E-10 2.30E-11 8.79E-11 5.82E-12 3.00E-11
  9.01E-12 1.29E-11 1.25E-11 2.93E-11 8.08E-12 5.67E-12 8.33E-12 8.11E-12
  3.46E-11 1.19E-11 1.10E-11 1.08E-12 6.45E-12 2.92E-11 2.15E-11
  -0.3333  0.5000  0.0000    2  4.60333E-08 kpt; spin; max resid(k); each band:
  6.00E-10 1.20E-11 1.16E-10 6.99E-11 8.84E-11 6.39E-11 3.25E-11 1.74E-11
  3.54E-12 2.57E-11 1.17E-11 2.05E-12 3.68E-11 4.63E-12 1.19E-11 3.09E-12
  3.73E-11 7.92E-12 3.97E-12 4.12E-12 1.13E-10 1.24E-09 4.60E-08
  -0.1667  0.5000  0.1667    2  1.56826E-09 kpt; spin; max resid(k); each band:
  3.02E-10 1.18E-11 1.61E-10 1.14E-10 6.86E-11 2.75E-11 1.40E-10 6.23E-12
  6.93E-12 1.14E-11 1.53E-11 3.12E-12 4.36E-11 5.03E-12 1.09E-11 6.55E-12
  1.39E-11 1.18E-11 3.28E-12 1.12E-11 4.00E-11 1.57E-09 2.52E-10
  -0.3333 -0.3333  0.1667    2  3.05336E-10 kpt; spin; max resid(k); each band:
  3.05E-10 9.00E-11 1.57E-10 2.53E-10 2.61E-11 7.66E-11 3.44E-11 2.28E-11
  9.50E-12 2.23E-11 1.28E-11 5.77E-11 3.19E-12 5.88E-11 7.93E-12 1.16E-11
  1.54E-11 4.32E-12 2.22E-12 1.20E-12 1.31E-10 3.87E-11 8.11E-11
  -0.1667  0.0000  0.0000    2  4.48652E-10 kpt; spin; max resid(k); each band:
  4.49E-10 1.64E-10 2.52E-11 1.94E-10 8.01E-11 4.98E-11 2.20E-11 5.74E-12
  7.41E-12 1.39E-11 3.21E-11 1.36E-11 7.47E-12 1.78E-11 2.23E-11 3.68E-11
  2.10E-12 7.68E-12 3.25E-11 4.31E-11 9.61E-13 1.79E-11 6.95E-11
   0.5000  0.5000  0.1667    2  4.26568E-10 kpt; spin; max resid(k); each band:
  4.27E-10 1.59E-11 7.55E-11 8.29E-11 2.10E-11 2.58E-11 8.26E-12 6.56E-11
  7.07E-12 8.21E-12 2.71E-11 1.99E-12 1.22E-10 2.52E-12 1.02E-11 1.12E-11
  3.56E-12 3.81E-12 3.37E-12 8.16E-14 1.50E-11 1.83E-10 1.71E-10
  -0.3333  0.5000  0.3333    2  7.88324E-11 kpt; spin; max resid(k); each band:
  7.69E-11 7.88E-11 1.68E-11 7.16E-11 2.26E-11 7.13E-11 4.15E-11 2.97E-12
  8.74E-12 1.98E-11 9.05E-12 2.38E-12 2.83E-12 4.79E-11 5.15E-12 1.21E-11
  1.93E-11 8.74E-13 3.83E-12 5.52E-13 3.53E-11 2.17E-11 1.13E-11
   0.5000  0.0000  0.0000    2  9.99274E-05 kpt; spin; max resid(k); each band:
  4.80E-10 6.43E-11 2.68E-11 6.36E-11 2.24E-11 6.50E-11 3.67E-12 2.45E-11
  9.58E-12 3.54E-12 1.41E-11 2.01E-12 4.92E-12 5.26E-12 7.64E-12 7.48E-12
  2.39E-11 1.93E-12 4.11E-12 3.94E-12 2.83E-11 1.81E-11 9.99E-05
   0.5000  0.5000  0.5000    2  9.60939E-11 kpt; spin; max resid(k); each band:
  5.96E-11 5.89E-12 7.17E-12 5.26E-11 9.61E-11 8.49E-13 1.50E-12 8.89E-12
  9.21E-12 1.19E-11 1.08E-11 1.03E-12 2.72E-12 2.01E-12 5.39E-12 7.14E-12
  1.86E-11 1.37E-12 1.74E-12 5.53E-13 1.01E-11 1.76E-11 1.90E-11
 reduced coordinates (array xred) for    5 atoms
       0.000000000000      0.000000000000      0.000000000000
       0.500000000000      0.500000000000      0.500000000000
       0.500000000000      0.000000000000      0.000000000000
       0.000000000000      0.500000000000      0.000000000000
       0.000000000000      0.000000000000      0.500000000000
 rms dE/dt=  0.0000E+00; max dE/dt=  0.0000E+00; dE/dt below (all hartree)
    1       0.000000000000      0.000000000000      0.000000000000
    2       0.000000000000      0.000000000000      0.000000000000
    3       0.000000000000      0.000000000000      0.000000000000
    4       0.000000000000      0.000000000000      0.000000000000
    5       0.000000000000      0.000000000000      0.000000000000

 cartesian coordinates (angstrom) at end:
    1      0.00000000000000     0.00000000000000     0.00000000000000
    2      1.92104556148385     1.92104556148385     1.92104556148385
    3      1.92104556148385     0.00000000000000     0.00000000000000
    4      0.00000000000000     1.92104556148385     0.00000000000000
    5      0.00000000000000     0.00000000000000     1.92104556148385

 cartesian forces (hartree/bohr) at end:
    1     -0.00000000000000    -0.00000000000000    -0.00000000000000
    2     -0.00000000000000    -0.00000000000000    -0.00000000000000
    3     -0.00000000000000    -0.00000000000000    -0.00000000000000
    4     -0.00000000000000    -0.00000000000000    -0.00000000000000
    5     -0.00000000000000    -0.00000000000000    -0.00000000000000
 frms,max,avg= 0.0000000E+00 0.0000000E+00   0.000E+00  0.000E+00  0.000E+00 h/b

 cartesian forces (eV/Angstrom) at end:
    1     -0.00000000000000    -0.00000000000000    -0.00000000000000
    2     -0.00000000000000    -0.00000000000000    -0.00000000000000
    3     -0.00000000000000    -0.00000000000000    -0.00000000000000
    4     -0.00000000000000    -0.00000000000000    -0.00000000000000
    5     -0.00000000000000    -0.00000000000000    -0.00000000000000
 frms,max,avg= 0.0000000E+00 0.0000000E+00   0.000E+00  0.000E+00  0.000E+00 e/A
 length scales=  7.260500000000  7.260500000000  7.260500000000 bohr
              =  3.842091122968  3.842091122968  3.842091122968 angstroms
 prteigrs : about to open file t30o_DS1_EIG
 Fermi (or HOMO) energy (hartree) =   0.32210   Average Vxc (hartree)=  -0.44651
 Magnetization (Bohr magneton)=  1.17061916E-11
 Total spin up =  2.05000000E+01   Total spin down =  2.05000000E+01
 Eigenvalues (hartree) for nkpt=  10  k points, SPIN UP:
 kpt#   1, nband= 23, wtk=  0.22222, kpt= -0.1667 -0.3333  0.0000 (reduced coord)
  -2.07064  -1.12231  -1.12161  -1.12127  -0.93274  -0.39073  -0.34837  -0.34306
  -0.27182  -0.26819  -0.25650   0.08960   0.11843   0.13295   0.13321   0.16095
   0.17919   0.20334   0.20803   0.21325   0.31388   0.34677   0.34777
      occupation numbers for kpt#   1
   1.00000   1.00000   1.00000   1.00000   1.00000   1.00000   1.00000   1.00000
   1.00000   1.00000   1.00000   1.00000   1.00000   1.00000   1.00000   1.00000
   1.00000   1.00000   1.00000   1.00000   0.90333   0.00121   0.00092
 kpt#   2, nband= 23, wtk=  0.07407, kpt= -0.1667 -0.1667  0.1667 (reduced coord)
  -2.07064  -1.12165  -1.12162  -1.12162  -0.93305  -0.38772  -0.34751  -0.34751
  -0.27111  -0.27111  -0.26152   0.10490   0.12629   0.12629   0.15989   0.15989
   0.17761   0.21620   0.21620   0.21637   0.32079   0.32509   0.32509
      occupation numbers for kpt#   2
   1.00000   1.00000   1.00000   1.00000   1.00000   1.00000   1.00000   1.00000
   1.00000   1.00000   1.00000   1.00000   1.00000   1.00000   1.00000   1.00000
   1.00000   1.00000   1.00000   1.00000   0.58792   0.30701   0.30701
 kpt#   3, nband= 23, wtk=  0.11111, kpt= -0.3333  0.5000  0.0000 (reduced coord)
  -2.07062  -1.12258  -1.12224  -1.12122  -0.93201  -0.37752  -0.35323  -0.34674
  -0.26977  -0.26104  -0.25681   0.07328   0.08096   0.09571   0.13535   0.14145
   0.18276   0.18591   0.19240   0.23911   0.34659   0.36074   0.36723
      occupation numbers for kpt#   3
   1.00000   1.00000   1.00000   1.00000   1.00000   1.00000   1.00000   1.00000
   1.00000   1.00000   1.00000   1.00000   1.00000   1.00000   1.00000   1.00000
   1.00000   1.00000   1.00000   1.00000   0.00127   0.00003   0.00000
 kpt#   4, nband= 23, wtk=  0.11111, kpt= -0.1667  0.5000  0.1667 (reduced coord)
  -2.07062  -1.12261  -1.12158  -1.12157  -0.93223  -0.38678  -0.34642  -0.34242
  -0.27569  -0.26328  -0.25608   0.07599   0.10785   0.12010   0.12867   0.12886
   0.17379   0.20302   0.20829   0.21189   0.32706   0.36169   0.36298
      occupation numbers for kpt#   4
   1.00000   1.00000   1.00000   1.00000   1.00000   1.00000   1.00000   1.00000
   1.00000   1.00000   1.00000   1.00000   1.00000   1.00000   1.00000   1.00000
   1.00000   1.00000   1.00000   1.00000   0.20580   0.00002   0.00001
 kpt#   5, nband= 23, wtk=  0.22222, kpt= -0.3333 -0.3333  0.1667 (reduced coord)
  -2.07062  -1.12225  -1.12223  -1.12156  -0.93203  -0.37635  -0.35165  -0.34297
  -0.27480  -0.26636  -0.25830   0.08072   0.09981   0.10213   0.12284   0.13430
   0.15125   0.20681   0.21202   0.23445   0.34967   0.35267   0.36033
      occupation numbers for kpt#   5
   1.00000   1.00000   1.00000   1.00000   1.00000   1.00000   1.00000   1.00000
   1.00000   1.00000   1.00000   1.00000   1.00000   1.00000   1.00000   1.00000
   1.00000   1.00000   1.00000   1.00000   0.00055   0.00024   0.00003
 kpt#   6, nband= 23, wtk=  0.05556, kpt= -0.1667  0.0000  0.0000 (reduced coord)
  -2.07066  -1.12167  -1.12132  -1.12132  -0.93361  -0.39118  -0.34688  -0.34513
  -0.27372  -0.27372  -0.26694   0.12002   0.13363   0.13363   0.19047   0.19047
   0.19650   0.20841   0.23044   0.23044   0.28978   0.31264   0.31264
      occupation numbers for kpt#   6
   1.00000   1.00000   1.00000   1.00000   1.00000   1.00000   1.00000   1.00000
   1.00000   1.00000   1.00000   1.00000   1.00000   1.00000   1.00000   1.00000
   1.00000   1.00000   1.00000   1.00000   0.99985   0.92914   0.92914
 kpt#   7, nband= 23, wtk=  0.05556, kpt=  0.5000  0.5000  0.1667 (reduced coord)
  -2.07060  -1.12254  -1.12254  -1.12153  -0.93157  -0.35606  -0.35349  -0.35349
  -0.27374  -0.26411  -0.26411   0.06704   0.07892   0.08488   0.12574   0.12574
   0.14443   0.21073   0.21073   0.24932   0.36493   0.36493   0.37549
      occupation numbers for kpt#   7
   1.00000   1.00000   1.00000   1.00000   1.00000   1.00000   1.00000   1.00000
   1.00000   1.00000   1.00000   1.00000   1.00000   1.00000   1.00000   1.00000
   1.00000   1.00000   1.00000   1.00000   0.00001   0.00001   0.00000
 kpt#   8, nband= 23, wtk=  0.11111, kpt= -0.3333  0.5000  0.3333 (reduced coord)
  -2.07060  -1.12252  -1.12219  -1.12218  -0.93134  -0.35837  -0.34646  -0.33941
  -0.28311  -0.27277  -0.27015   0.07114   0.09515   0.09790   0.10103   0.11192
   0.11982   0.23005   0.23506   0.24335   0.36662   0.37284   0.37379
      occupation numbers for kpt#   8
   1.00000   1.00000   1.00000   1.00000   1.00000   1.00000   1.00000   1.00000
   1.00000   1.00000   1.00000   1.00000   1.00000   1.00000   1.00000   1.00000
   1.00000   1.00000   1.00000   1.00000   0.00001   0.00000   0.00000
 kpt#   9, nband= 23, wtk=  0.02778, kpt=  0.5000  0.0000  0.0000 (reduced coord)
  -2.07064  -1.12267  -1.12127  -1.12127  -0.93267  -0.39836  -0.34378  -0.33925
  -0.27188  -0.27188  -0.24977   0.07753   0.13280   0.13280   0.15609   0.15684
   0.15684   0.17315   0.22080   0.22080   0.29328   0.36139   0.36157
      occupation numbers for kpt#   9
   1.00000   1.00000   1.00000   1.00000   1.00000   1.00000   1.00000   1.00000
   1.00000   1.00000   1.00000   1.00000   1.00000   1.00000   1.00000   1.00000
   1.00000   1.00000   1.00000   1.00000   0.99961   0.00002   0.00002
 kpt#  10, nband= 23, wtk=  0.00926, kpt=  0.5000  0.5000  0.5000 (reduced coord)
  -2.07058  -1.12248  -1.12248  -1.12248  -0.93089  -0.33775  -0.33775  -0.33775
  -0.28671  -0.28671  -0.28671   0.05886   0.08539   0.08539   0.10767   0.10767
   0.10767   0.25192   0.25192   0.25192   0.38234   0.38234   0.38234
      occupation numbers for kpt#  10
   1.00000   1.00000   1.00000   1.00000   1.00000   1.00000   1.00000   1.00000
   1.00000   1.00000   1.00000   1.00000   1.00000   1.00000   1.00000   1.00000
   1.00000   1.00000   1.00000   1.00000   0.00000   0.00000   0.00000
 Eigenvalues (hartree) for nkpt=  10  k points, SPIN DOWN:
 kpt#   1, nband= 23, wtk=  0.22222, kpt= -0.1667 -0.3333  0.0000 (reduced coord)
  -2.07064  -1.12231  -1.12161  -1.12127  -0.93274  -0.39073  -0.34837  -0.34306
  -0.27182  -0.26819  -0.25650   0.08960   0.11843   0.13295   0.13321   0.16095
   0.17919   0.20334   0.20803   0.21325   0.31388   0.34677   0.34777
      occupation numbers for kpt#   1
   1.00000   1.00000   1.00000   1.00000   1.00000   1.00000   1.00000   1.00000
   1.00000   1.00000   1.00000   1.00000   1.00000   1.00000   1.00000   1.00000
   1.00000   1.00000   1.00000   1.00000   0.90333   0.00121   0.00092
 kpt#   2, nband= 23, wtk=  0.07407, kpt= -0.1667 -0.1667  0.1667 (reduced coord)
  -2.07064  -1.12165  -1.12162  -1.12162  -0.93305  -0.38772  -0.34751  -0.34751
  -0.27111  -0.27111  -0.26152   0.10490   0.12629   0.12629   0.15989   0.15989
   0.17761   0.21620   0.21620   0.21637   0.32079   0.32509   0.32509
      occupation numbers for kpt#   2
   1.00000   1.00000   1.00000   1.00000   1.00000   1.00000   1.00000   1.00000
   1.00000   1.00000   1.00000   1.00000   1.00000   1.00000   1.00000   1.00000
   1.00000   1.00000   1.00000   1.00000   0.58792   0.30701   0.30701
 kpt#   3, nband= 23, wtk=  0.11111, kpt= -0.3333  0.5000  0.0000 (reduced coord)
  -2.07062  -1.12258  -1.12224  -1.12122  -0.93201  -0.37752  -0.35323  -0.34674
  -0.26977  -0.26104  -0.25681   0.07328   0.08096   0.09571   0.13535   0.14145
   0.18276   0.18591   0.19240   0.23911   0.34659   0.36074   0.36723
      occupation numbers for kpt#   3
   1.00000   1.00000   1.00000   1.00000   1.00000   1.00000   1.00000   1.00000
   1.00000   1.00000   1.00000   1.00000   1.00000   1.00000   1.00000   1.00000
   1.00000   1.00000   1.00000   1.00000   0.00127   0.00003   0.00000
 kpt#   4, nband= 23, wtk=  0.11111, kpt= -0.1667  0.5000  0.1667 (reduced coord)
  -2.07062  -1.12261  -1.12158  -1.12157  -0.93223  -0.38678  -0.34642  -0.34242
  -0.27569  -0.26328  -0.25608   0.07599   0.10785   0.12010   0.12867   0.12886
   0.17379   0.20302   0.20829   0.21189   0.32706   0.36169   0.36298
      occupation numbers for kpt#   4
   1.00000   1.00000   1.00000   1.00000   1.00000   1.00000   1.00000   1.00000
   1.00000   1.00000   1.00000   1.00000   1.00000   1.00000   1.00000   1.00000
   1.00000   1.00000   1.00000   1.00000   0.20580   0.00002   0.00001
 kpt#   5, nband= 23, wtk=  0.22222, kpt= -0.3333 -0.3333  0.1667 (reduced coord)
  -2.07062  -1.12225  -1.12223  -1.12156  -0.93203  -0.37635  -0.35165  -0.34297
  -0.27480  -0.26636  -0.25830   0.08072   0.09981   0.10213   0.12284   0.13430
   0.15125   0.20681   0.21202   0.23445   0.34967   0.35267   0.36033
      occupation numbers for kpt#   5
   1.00000   1.00000   1.00000   1.00000   1.00000   1.00000   1.00000   1.00000
   1.00000   1.00000   1.00000   1.00000   1.00000   1.00000   1.00000   1.00000
   1.00000   1.00000   1.00000   1.00000   0.00055   0.00024   0.00003
 kpt#   6, nband= 23, wtk=  0.05556, kpt= -0.1667  0.0000  0.0000 (reduced coord)
  -2.07066  -1.12167  -1.12132  -1.12132  -0.93361  -0.39118  -0.34688  -0.34513
  -0.27372  -0.27372  -0.26694   0.12002   0.13363   0.13363   0.19047   0.19047
   0.19650   0.20841   0.23044   0.23044   0.28978   0.31264   0.31264
      occupation numbers for kpt#   6
   1.00000   1.00000   1.00000   1.00000   1.00000   1.00000   1.00000   1.00000
   1.00000   1.00000   1.00000   1.00000   1.00000   1.00000   1.00000   1.00000
   1.00000   1.00000   1.00000   1.00000   0.99985   0.92914   0.92914
 kpt#   7, nband= 23, wtk=  0.05556, kpt=  0.5000  0.5000  0.1667 (reduced coord)
  -2.07060  -1.12254  -1.12254  -1.12153  -0.93157  -0.35606  -0.35349  -0.35349
  -0.27374  -0.26411  -0.26411   0.06704   0.07892   0.08488   0.12574   0.12574
   0.14443   0.21073   0.21073   0.24932   0.36493   0.36493   0.37549
      occupation numbers for kpt#   7
   1.00000   1.00000   1.00000   1.00000   1.00000   1.00000   1.00000   1.00000
   1.00000   1.00000   1.00000   1.00000   1.00000   1.00000   1.00000   1.00000
   1.00000   1.00000   1.00000   1.00000   0.00001   0.00001   0.00000
 kpt#   8, nband= 23, wtk=  0.11111, kpt= -0.3333  0.5000  0.3333 (reduced coord)
  -2.07060  -1.12252  -1.12219  -1.12218  -0.93134  -0.35837  -0.34646  -0.33941
  -0.28311  -0.27277  -0.27015   0.07114   0.09515   0.09790   0.10103   0.11192
   0.11982   0.23005   0.23506   0.24335   0.36662   0.37284   0.37379
      occupation numbers for kpt#   8
   1.00000   1.00000   1.00000   1.00000   1.00000   1.00000   1.00000   1.00000
   1.00000   1.00000   1.00000   1.00000   1.00000   1.00000   1.00000   1.00000
   1.00000   1.00000   1.00000   1.00000   0.00001   0.00000   0.00000
 kpt#   9, nband= 23, wtk=  0.02778, kpt=  0.5000  0.0000  0.0000 (reduced coord)
  -2.07064  -1.12267  -1.12127  -1.12127  -0.93267  -0.39836  -0.34378  -0.33925
  -0.27188  -0.27188  -0.24977   0.07753   0.13280   0.13280   0.15609   0.15684
   0.15684   0.17315   0.22080   0.22080   0.29328   0.36139   0.36157
      occupation numbers for kpt#   9
   1.00000   1.00000   1.00000   1.00000   1.00000   1.00000   1.00000   1.00000
   1.00000   1.00000   1.00000   1.00000   1.00000   1.00000   1.00000   1.00000
   1.00000   1.00000   1.00000   1.00000   0.99961   0.00002   0.00002
 kpt#  10, nband= 23, wtk=  0.00926, kpt=  0.5000  0.5000  0.5000 (reduced coord)
  -2.07058  -1.12248  -1.12248  -1.12248  -0.93089  -0.33775  -0.33775  -0.33775
  -0.28671  -0.28671  -0.28671   0.05886   0.08539   0.08539   0.10767   0.10767
   0.10767   0.25192   0.25192   0.25192   0.38234   0.38234   0.38234
      occupation numbers for kpt#  10
   1.00000   1.00000   1.00000   1.00000   1.00000   1.00000   1.00000   1.00000
   1.00000   1.00000   1.00000   1.00000   1.00000   1.00000   1.00000   1.00000
   1.00000   1.00000   1.00000   1.00000   0.00000   0.00000   0.00000
 Total charge density [el/Bohr^3]
,     Maximum=    1.5049E+00  at reduced coord.    0.0000    0.0000    0.0000
,Next maximum=    1.4662E+00  at reduced coord.    0.0000    0.0000    0.9722
,     Minimum=    5.6625E-03  at reduced coord.    0.5000    0.5000    0.0000
,Next minimum=    5.6625E-03  at reduced coord.    0.5000    0.0000    0.5000
,  Integrated=    4.1000E+01
 Spin up density      [el/Bohr^3]
,     Maximum=    7.5245E-01  at reduced coord.    0.0000    0.0000    0.0000
,Next maximum=    7.3311E-01  at reduced coord.    0.0000    0.0000    0.9722
,     Minimum=    2.8312E-03  at reduced coord.    0.5000    0.5000    0.0000
,Next minimum=    2.8312E-03  at reduced coord.    0.5000    0.0000    0.5000
,  Integrated=    2.0500E+01
 Spin down density    [el/Bohr^3]
,     Maximum=    7.5245E-01  at reduced coord.    0.0000    0.0000    0.0000
,Next maximum=    7.3311E-01  at reduced coord.    0.0000    0.0000    0.9722
,     Minimum=    2.8312E-03  at reduced coord.    0.5000    0.5000    0.0000
,Next minimum=    2.8312E-03  at reduced coord.    0.5000    0.0000    0.5000
,  Integrated=    2.0500E+01
 Magnetization (spin up - spin down) [el/Bohr^3]
,     Maximum=    3.4320E-12  at reduced coord.    0.5278    0.5278    0.5278
,Next maximum=    4.0077E-12  at reduced coord.    0.5000    0.5278    0.5278
,     Minimum=    5.9863E-13  at reduced coord.    0.1389    0.0000    0.0000
,Next minimum=    3.3079E-13  at reduced coord.    0.1667    0.0000    0.0000
,  Integrated=    0.0000E+00
 Relative magnetization (=zeta, between -1 and 1)
,     Maximum=    3.6937E-11  at reduced coord.    0.5000    0.5000    0.5000
,Next maximum=    2.4857E-11  at reduced coord.    0.5000    0.5000    0.5278
,     Minimum=   -1.3999E-12  at reduced coord.    0.4444    0.4444    0.0000
,Next minimum=   -1.3738E-12  at reduced coord.    0.4722    0.4444    0.0000

--------------------------------------------------------------------------------
 Components of total free energy (in Hartree) :

    Kinetic energy  =  3.81467308831539E+01
    Hartree energy  =  3.21097591380928E+01
    XC energy       = -2.26125763822243E+01
    Ewald energy    = -1.14220316979058E+02
    PspCore energy  =  5.33810470792061E+00
    Loc. psp. energy= -1.07783138134076E+02
    Spherical terms =  1.70198481848325E+01
    >>>>> Internal E= -1.52001588581358E+02

    -kT*entropy     = -2.23283796696296E-03
    >>>>>>>>> Etotal= -1.52003821419325E+02

 "Double-counting" decomposition of free energy:
    Band energy     = -1.33978094244494E+01
    Ewald energy    = -1.14220316979058E+02
    PspCore energy  =  5.33810470792061E+00
    Dble-C XC-energy= -2.51312455621694E+01
    Spherical terms = -4.59033810169864E+00
    >>>>> Internal E= -1.52001605359454E+02

    -kT*entropy     = -2.23283796696296E-03
    >>>> Etotal (DC)= -1.52003838197421E+02

  >Total energy in eV           = -4.13623433282814E+03
  >Total DC energy in eV        = -4.13623478938336E+03
--------------------------------------------------------------------------------

 Cartesian components of stress tensor (hartree/bohr^3)
  sigma(1 1)=  3.40377455E-04  sigma(3 2)=  0.00000000E+00
  sigma(2 2)=  3.40377455E-04  sigma(3 1)=  0.00000000E+00
  sigma(3 3)=  3.40377455E-04  sigma(2 1)=  0.00000000E+00

-Cartesian components of stress tensor (GPa)         [Pressure= -1.0014E+01 GPa]
- sigma(1 1)=  1.00142488E+01  sigma(3 2)=  0.00000000E+00
- sigma(2 2)=  1.00142488E+01  sigma(3 1)=  0.00000000E+00
- sigma(3 3)=  1.00142488E+01  sigma(2 1)=  0.00000000E+00

================================================================================
== DATASET  2 ==================================================================
-   nproc =    1

 mkfilename : getwfk/=0, take file _WFK from output of DATASET   1.

 Exchange-correlation functional for the present dataset will be:
  LDA: Perdew-Wang 92 LSD fit to Ceperley-Alder data - ixc=7
 Citation for XC functional:
  J.P.Perdew and Y.Wang, PRB 45, 13244 (1992)

 Real(R)+Recip(G) space primitive vectors, cartesian coordinates (Bohr,Bohr^-1):
 R(1)=  7.2605000  0.0000000  0.0000000  G(1)=  0.1377316  0.0000000  0.0000000
 R(2)=  0.0000000  7.2605000  0.0000000  G(2)=  0.0000000  0.1377316  0.0000000
 R(3)=  0.0000000  0.0000000  7.2605000  G(3)=  0.0000000  0.0000000  0.1377316
 Unit cell volume ucvol=  3.8273624E+02 bohr^3
 Angles (23,13,12)=  9.00000000E+01  9.00000000E+01  9.00000000E+01 degrees

 Coarse grid specifications (used for wave-functions):

 getcut: wavevector=  0.0000  0.0000  0.0000  ngfft=  30  30  30
         ecut(hartree)=     16.000   => boxcut(ratio)=   2.29472

 getcut : COMMENT -
  Note that boxcut > 2.2 ; recall that boxcut=Gcut(box)/Gcut(sphere) = 2
  is sufficient for exact treatment of convolution.
  Such a large boxcut is a waste : you could raise ecut
  e.g. ecut=   21.062951 Hartrees makes boxcut=2


 Fine grid specifications (used for densities):

 getcut: wavevector=  0.0000  0.0000  0.0000  ngfft=  36  36  36
         ecut(hartree)=     30.000   => boxcut(ratio)=   2.01099
--------------------------------------------------------------------------------

-inwffil : will read wavefunctions from disk file t30o_DS1_WFK
P newkpt: treating     23 bands with npw=    1174 for ikpt=   1 by node    0
P newkpt: treating     23 bands with npw=    1165 for ikpt=   2 by node    0
P newkpt: treating     23 bands with npw=    1172 for ikpt=   3 by node    0
P newkpt: treating     23 bands with npw=    1160 for ikpt=   4 by node    0
P newkpt: treating     23 bands with npw=    1171 for ikpt=   5 by node    0
P newkpt: treating     23 bands with npw=    1181 for ikpt=   6 by node    0
P newkpt: treating     23 bands with npw=    1180 for ikpt=   7 by node    0
P newkpt: treating     23 bands with npw=    1162 for ikpt=   8 by node    0
P newkpt: treating     23 bands with npw=    1166 for ikpt=   9 by node    0
P newkpt: treating     23 bands with npw=    1088 for ikpt=  10 by node    0
P newkpt: treating     23 bands with npw=    1174 for ikpt=   1 by node    0
P newkpt: treating     23 bands with npw=    1165 for ikpt=   2 by node    0
P newkpt: treating     23 bands with npw=    1172 for ikpt=   3 by node    0
P newkpt: treating     23 bands with npw=    1160 for ikpt=   4 by node    0
P newkpt: treating     23 bands with npw=    1171 for ikpt=   5 by node    0
P newkpt: treating     23 bands with npw=    1181 for ikpt=   6 by node    0
P newkpt: treating     23 bands with npw=    1180 for ikpt=   7 by node    0
P newkpt: treating     23 bands with npw=    1162 for ikpt=   8 by node    0
P newkpt: treating     23 bands with npw=    1166 for ikpt=   9 by node    0
P newkpt: treating     23 bands with npw=    1088 for ikpt=  10 by node    0

_setup2: Arith. and geom. avg. npw (full set) are    1169.259    1169.216


 ******************************************
 DFT+DMFT Method is used
 ******************************************

 DMFT uses the Continuous Time Quantum Monte Carlo solver

================================================================================

 +----------------------------------------------------------------------------+
 |             Calculation of entropy withing the DMFT Framework              |
 +----------------------------------------------------------------------------+

 +----------------------------------------------------------------------------+
 |   1) lambda = 0.0000                                                       |
 |      - Atom type    1     ->        U = 0.0000 Ha   J = 0.0000 Ha          |
 +----------------------------------------------------------------------------+

     iter   Etot(hartree)     deltaE(h) residm    nres2    magn
 (Edmft  1   0.00000000000)
 ETOT  1  -152.00384089265    -1.52E+02 5.33E-05 1.13E-06 0.000

 Cartesian components of stress tensor (hartree/bohr^3)
  sigma(1 1)=  3.39249181E-04  sigma(3 2)=  0.00000000E+00
  sigma(2 2)=  3.39249181E-04  sigma(3 1)=  0.00000000E+00
  sigma(3 3)=  3.39249181E-04  sigma(2 1)=  0.00000000E+00


 scprqt:  WARNING -
  nstep=    1 was not enough SCF cycles to converge;
  density residual=  1.135E-06 exceeds tolvrs=  1.000E-07


 PAW TEST:
 ==== Compensation charge inside spheres ============
 The following values must be close to each other ...
 Compensation charge over spherical meshes =      7.379195624705889
 Compensation charge over fine fft grid    =      7.379297959875786

 ==== Results concerning PAW augmentation regions ====

 Total pseudopotential strength Dij (hartree):
 Atom #  1 - Spin component 1
  -1.46092   0.30857  -1.65258   0.00000   0.00000   0.00000   0.00000   0.00000   0.00000   0.00000   0.00000   0.00000 ...
   0.30857   0.16795  -1.51699   0.00000   0.00000   0.00000   0.00000   0.00000   0.00000   0.00000   0.00000   0.00000 ...
  -1.65258  -1.51699  15.91508   0.00000   0.00000   0.00000   0.00000   0.00000   0.00000   0.00000   0.00000   0.00000 ...
   0.00000   0.00000   0.00000  -1.05623   0.00000   0.00000   0.07294   0.00000   0.00000   0.07830   0.00000   0.00000 ...
   0.00000   0.00000   0.00000   0.00000  -1.05623   0.00000   0.00000   0.07294   0.00000   0.00000   0.07830   0.00000 ...
   0.00000   0.00000   0.00000   0.00000   0.00000  -1.05623   0.00000   0.00000   0.07294   0.00000   0.00000   0.07830 ...
   0.00000   0.00000   0.00000   0.07294   0.00000   0.00000   0.03952   0.00000   0.00000  -0.16659   0.00000   0.00000 ...
   0.00000   0.00000   0.00000   0.00000   0.07294   0.00000   0.00000   0.03952   0.00000   0.00000  -0.16659   0.00000 ...
   0.00000   0.00000   0.00000   0.00000   0.00000   0.07294   0.00000   0.00000   0.03952   0.00000   0.00000  -0.16659 ...
   0.00000   0.00000   0.00000   0.07830   0.00000   0.00000  -0.16659   0.00000   0.00000   2.30146   0.00000   0.00000 ...
   0.00000   0.00000   0.00000   0.00000   0.07830   0.00000   0.00000  -0.16659   0.00000   0.00000   2.30146   0.00000 ...
   0.00000   0.00000   0.00000   0.00000   0.00000   0.07830   0.00000   0.00000  -0.16659   0.00000   0.00000   2.30146 ...
   ...  only 12  components have been written...
 Atom #  1 - Spin component 2
  -1.46092   0.30857  -1.65258   0.00000   0.00000   0.00000   0.00000   0.00000   0.00000   0.00000   0.00000   0.00000 ...
   0.30857   0.16795  -1.51699   0.00000   0.00000   0.00000   0.00000   0.00000   0.00000   0.00000   0.00000   0.00000 ...
  -1.65258  -1.51699  15.91508   0.00000   0.00000   0.00000   0.00000   0.00000   0.00000   0.00000   0.00000   0.00000 ...
   0.00000   0.00000   0.00000  -1.05623   0.00000   0.00000   0.07294   0.00000   0.00000   0.07830   0.00000   0.00000 ...
   0.00000   0.00000   0.00000   0.00000  -1.05623   0.00000   0.00000   0.07294   0.00000   0.00000   0.07830   0.00000 ...
   0.00000   0.00000   0.00000   0.00000   0.00000  -1.05623   0.00000   0.00000   0.07294   0.00000   0.00000   0.07830 ...
   0.00000   0.00000   0.00000   0.07294   0.00000   0.00000   0.03952   0.00000   0.00000  -0.16659   0.00000   0.00000 ...
   0.00000   0.00000   0.00000   0.00000   0.07294   0.00000   0.00000   0.03952   0.00000   0.00000  -0.16659   0.00000 ...
   0.00000   0.00000   0.00000   0.00000   0.00000   0.07294   0.00000   0.00000   0.03952   0.00000   0.00000  -0.16659 ...
   0.00000   0.00000   0.00000   0.07830   0.00000   0.00000  -0.16659   0.00000   0.00000   2.30146   0.00000   0.00000 ...
   0.00000   0.00000   0.00000   0.00000   0.07830   0.00000   0.00000  -0.16659   0.00000   0.00000   2.30146   0.00000 ...
   0.00000   0.00000   0.00000   0.00000   0.00000   0.07830   0.00000   0.00000  -0.16659   0.00000   0.00000   2.30146 ...
   ...  only 12  components have been written...
 Atom #  5 - Spin component 1
   0.63674   1.07122   0.00000   0.00000   0.00000   0.00000   0.00000   0.00000   0.00000   0.00000   0.00026   0.00000 ...
   1.07122   1.79910   0.00000   0.00000   0.00000   0.00000   0.00000   0.00000   0.00000   0.00000   0.00038   0.00000 ...
   0.00000   0.00000  -0.27260   0.00000   0.00000  -0.30353   0.00000   0.00000   0.00000   0.00000   0.00000   0.00000 ...
   0.00000   0.00000   0.00000  -0.27491   0.00000   0.00000  -0.30676   0.00000   0.00000   0.00000   0.00000   0.00000 ...
   0.00000   0.00000   0.00000   0.00000  -0.27260   0.00000   0.00000  -0.30353   0.00000   0.00000   0.00000   0.00000 ...
   0.00000   0.00000  -0.30353   0.00000   0.00000  -0.30224   0.00000   0.00000   0.00000   0.00000   0.00000   0.00000 ...
   0.00000   0.00000   0.00000  -0.30676   0.00000   0.00000  -0.30675   0.00000   0.00000   0.00000   0.00000   0.00000 ...
   0.00000   0.00000   0.00000   0.00000  -0.30353   0.00000   0.00000  -0.30224   0.00000   0.00000   0.00000   0.00000 ...
   0.00000   0.00000   0.00000   0.00000   0.00000   0.00000   0.00000   0.00000  -0.01517   0.00000   0.00000   0.00000 ...
   0.00000   0.00000   0.00000   0.00000   0.00000   0.00000   0.00000   0.00000   0.00000  -0.01537   0.00000   0.00000 ...
   0.00026   0.00038   0.00000   0.00000   0.00000   0.00000   0.00000   0.00000   0.00000   0.00000  -0.01552   0.00000 ...
   0.00000   0.00000   0.00000   0.00000   0.00000   0.00000   0.00000   0.00000   0.00000   0.00000   0.00000  -0.01537 ...
   ...  only 12  components have been written...
 Atom #  5 - Spin component 2
   0.63674   1.07122   0.00000   0.00000   0.00000   0.00000   0.00000   0.00000   0.00000   0.00000   0.00026   0.00000 ...
   1.07122   1.79910   0.00000   0.00000   0.00000   0.00000   0.00000   0.00000   0.00000   0.00000   0.00038   0.00000 ...
   0.00000   0.00000  -0.27260   0.00000   0.00000  -0.30353   0.00000   0.00000   0.00000   0.00000   0.00000   0.00000 ...
   0.00000   0.00000   0.00000  -0.27491   0.00000   0.00000  -0.30676   0.00000   0.00000   0.00000   0.00000   0.00000 ...
   0.00000   0.00000   0.00000   0.00000  -0.27260   0.00000   0.00000  -0.30353   0.00000   0.00000   0.00000   0.00000 ...
   0.00000   0.00000  -0.30353   0.00000   0.00000  -0.30224   0.00000   0.00000   0.00000   0.00000   0.00000   0.00000 ...
   0.00000   0.00000   0.00000  -0.30676   0.00000   0.00000  -0.30675   0.00000   0.00000   0.00000   0.00000   0.00000 ...
   0.00000   0.00000   0.00000   0.00000  -0.30353   0.00000   0.00000  -0.30224   0.00000   0.00000   0.00000   0.00000 ...
   0.00000   0.00000   0.00000   0.00000   0.00000   0.00000   0.00000   0.00000  -0.01517   0.00000   0.00000   0.00000 ...
   0.00000   0.00000   0.00000   0.00000   0.00000   0.00000   0.00000   0.00000   0.00000  -0.01537   0.00000   0.00000 ...
   0.00026   0.00038   0.00000   0.00000   0.00000   0.00000   0.00000   0.00000   0.00000   0.00000  -0.01552   0.00000 ...
   0.00000   0.00000   0.00000   0.00000   0.00000   0.00000   0.00000   0.00000   0.00000   0.00000   0.00000  -0.01537 ...
   ...  only 12  components have been written...


 Augmentation waves occupancies Rhoij:
 Atom #  1 - Spin component 1
   1.00063   0.00053   0.00176   0.00000   0.00000   0.00000   0.00000   0.00000   0.00000   0.00000   0.00000   0.00000 ...
   0.00053   0.73961   0.00988   0.00000   0.00000   0.00000   0.00000   0.00000   0.00000   0.00000   0.00000   0.00000 ...
   0.00176   0.00988   0.00017   0.00000   0.00000   0.00000   0.00000   0.00000   0.00000   0.00000   0.00000   0.00000 ...
   0.00000   0.00000   0.00000   0.99956   0.00000   0.00000  -0.01667   0.00000   0.00000   0.00391   0.00000   0.00000 ...
   0.00000   0.00000   0.00000   0.00000   0.99956   0.00000   0.00000  -0.01667   0.00000   0.00000   0.00391   0.00000 ...
   0.00000   0.00000   0.00000   0.00000   0.00000   0.99956   0.00000   0.00000  -0.01667   0.00000   0.00000   0.00391 ...
   0.00000   0.00000   0.00000  -0.01667   0.00000   0.00000   1.07502   0.00000   0.00000   0.01708   0.00000   0.00000 ...
   0.00000   0.00000   0.00000   0.00000  -0.01667   0.00000   0.00000   1.07502   0.00000   0.00000   0.01708   0.00000 ...
   0.00000   0.00000   0.00000   0.00000   0.00000  -0.01667   0.00000   0.00000   1.07502   0.00000   0.00000   0.01708 ...
   0.00000   0.00000   0.00000   0.00391   0.00000   0.00000   0.01708   0.00000   0.00000   0.00034   0.00000   0.00000 ...
   0.00000   0.00000   0.00000   0.00000   0.00391   0.00000   0.00000   0.01708   0.00000   0.00000   0.00034   0.00000 ...
   0.00000   0.00000   0.00000   0.00000   0.00000   0.00391   0.00000   0.00000   0.01708   0.00000   0.00000   0.00034 ...
   ...  only 12  components have been written...
 Atom #  1 - Spin component 2
   1.00063   0.00053   0.00176   0.00000   0.00000   0.00000   0.00000   0.00000   0.00000   0.00000   0.00000   0.00000 ...
   0.00053   0.73961   0.00988   0.00000   0.00000   0.00000   0.00000   0.00000   0.00000   0.00000   0.00000   0.00000 ...
   0.00176   0.00988   0.00017   0.00000   0.00000   0.00000   0.00000   0.00000   0.00000   0.00000   0.00000   0.00000 ...
   0.00000   0.00000   0.00000   0.99956   0.00000   0.00000  -0.01667   0.00000   0.00000   0.00391   0.00000   0.00000 ...
   0.00000   0.00000   0.00000   0.00000   0.99956   0.00000   0.00000  -0.01667   0.00000   0.00000   0.00391   0.00000 ...
   0.00000   0.00000   0.00000   0.00000   0.00000   0.99956   0.00000   0.00000  -0.01667   0.00000   0.00000   0.00391 ...
[...]
                       1.000000  1.000000  1.000000  1.000000  1.000000  1.000000
                       1.000000  1.000000  1.000000  1.000000  1.000000  1.000000
                       1.000000  1.000000  0.000551  0.000244  0.000030
                       1.000000  1.000000  1.000000  1.000000  1.000000  1.000000
                       1.000000  1.000000  1.000000  1.000000  1.000000  1.000000
                       1.000000  1.000000  1.000000  1.000000  1.000000  1.000000
                       1.000000  1.000000  0.999848  0.929140  0.929140
                       1.000000  1.000000  1.000000  1.000000  1.000000  1.000000
                       1.000000  1.000000  1.000000  1.000000  1.000000  1.000000
                       1.000000  1.000000  1.000000  1.000000  1.000000  1.000000
                       1.000000  1.000000  0.000009  0.000009  0.000000
                       1.000000  1.000000  1.000000  1.000000  1.000000  1.000000
                       1.000000  1.000000  1.000000  1.000000  1.000000  1.000000
                       1.000000  1.000000  1.000000  1.000000  1.000000  1.000000
                       1.000000  1.000000  0.000005  0.000001  0.000001
                       1.000000  1.000000  1.000000  1.000000  1.000000  1.000000
                       1.000000  1.000000  1.000000  1.000000  1.000000  1.000000
                       1.000000  1.000000  1.000000  1.000000  1.000000  1.000000
                       1.000000  1.000000  0.999607  0.000023  0.000022
                       1.000000  1.000000  1.000000  1.000000  1.000000  1.000000
                       1.000000  1.000000  1.000000  1.000000  1.000000  1.000000
                       1.000000  1.000000  1.000000  1.000000  1.000000  1.000000
                       1.000000  1.000000  0.000000  0.000000  0.000000
                       1.000000  1.000000  1.000000  1.000000  1.000000  1.000000
                       1.000000  1.000000  1.000000  1.000000  1.000000  1.000000
                       1.000000  1.000000  1.000000  1.000000  1.000000  1.000000
                       1.000000  1.000000  0.903328  0.001213  0.000923
                       1.000000  1.000000  1.000000  1.000000  1.000000  1.000000
                       1.000000  1.000000  1.000000  1.000000  1.000000  1.000000
                       1.000000  1.000000  1.000000  1.000000  1.000000  1.000000
                       1.000000  1.000000  0.587921  0.307011  0.307011
                       1.000000  1.000000  1.000000  1.000000  1.000000  1.000000
                       1.000000  1.000000  1.000000  1.000000  1.000000  1.000000
                       1.000000  1.000000  1.000000  1.000000  1.000000  1.000000
                       1.000000  1.000000  0.001271  0.000027  0.000005
                       1.000000  1.000000  1.000000  1.000000  1.000000  1.000000
                       1.000000  1.000000  1.000000  1.000000  1.000000  1.000000
                       1.000000  1.000000  1.000000  1.000000  1.000000  1.000000
                       1.000000  1.000000  0.205796  0.000021  0.000015
                       1.000000  1.000000  1.000000  1.000000  1.000000  1.000000
                       1.000000  1.000000  1.000000  1.000000  1.000000  1.000000
                       1.000000  1.000000  1.000000  1.000000  1.000000  1.000000
                       1.000000  1.000000  0.000551  0.000244  0.000030
                       1.000000  1.000000  1.000000  1.000000  1.000000  1.000000
                       1.000000  1.000000  1.000000  1.000000  1.000000  1.000000
                       1.000000  1.000000  1.000000  1.000000  1.000000  1.000000
                       1.000000  1.000000  0.999848  0.929140  0.929140
                       1.000000  1.000000  1.000000  1.000000  1.000000  1.000000
                       1.000000  1.000000  1.000000  1.000000  1.000000  1.000000
                       1.000000  1.000000  1.000000  1.000000  1.000000  1.000000
                       1.000000  1.000000  0.000009  0.000009  0.000000
                       1.000000  1.000000  1.000000  1.000000  1.000000  1.000000
                       1.000000  1.000000  1.000000  1.000000  1.000000  1.000000
                       1.000000  1.000000  1.000000  1.000000  1.000000  1.000000
                       1.000000  1.000000  0.000005  0.000001  0.000001
                       1.000000  1.000000  1.000000  1.000000  1.000000  1.000000
                       1.000000  1.000000  1.000000  1.000000  1.000000  1.000000
                       1.000000  1.000000  1.000000  1.000000  1.000000  1.000000
                       1.000000  1.000000  0.999607  0.000023  0.000022
                       1.000000  1.000000  1.000000  1.000000  1.000000  1.000000
                       1.000000  1.000000  1.000000  1.000000  1.000000  1.000000
                       1.000000  1.000000  1.000000  1.000000  1.000000  1.000000
                       1.000000  1.000000  0.000000  0.000000  0.000000
              occ2     1.000000  1.000000  1.000000  1.000000  1.000000  1.000000
                       1.000000  1.000000  1.000000  1.000000  1.000000  1.000000
                       1.000000  1.000000  1.000000  1.000000  1.000000  1.000000
                       1.000000  1.000000  0.808792  0.017693  0.016486
                       1.000000  1.000000  1.000000  1.000000  1.000000  1.000000
                       1.000000  1.000000  1.000000  1.000000  1.000000  1.000000
                       1.000000  1.000000  1.000000  1.000000  1.000000  1.000000
                       1.000000  1.000000  0.554363  0.364982  0.364982
                       1.000000  1.000000  1.000000  1.000000  1.000000  1.000000
                       1.000000  1.000000  1.000000  1.000000  1.000000  1.000000
                       1.000000  1.000000  1.000000  1.000000  1.000000  1.000000
                       1.000000  1.000000  0.017797  0.010028  0.008943
                       1.000000  1.000000  1.000000  1.000000  1.000000  1.000000
                       1.000000  1.000000  1.000000  1.000000  1.000000  1.000000
                       1.000000  1.000000  1.000000  1.000000  1.000000  1.000000
                       1.000000  1.000000  0.254665  0.009894  0.009447
                       1.000000  1.000000  1.000000  1.000000  1.000000  1.000000
                       1.000000  1.000000  1.000000  1.000000  1.000000  1.000000
                       1.000000  1.000000  1.000000  1.000000  1.000000  1.000000
                       1.000000  1.000000  0.014837  0.012950  0.010371
                       1.000000  1.000000  1.000000  1.000000  1.000000  1.000000
                       1.000000  1.000000  1.000000  1.000000  1.000000  1.000000
                       1.000000  1.000000  1.000000  1.000000  1.000000  1.000000
                       1.000000  1.000000  0.921759  0.847885  0.847884
                       1.000000  1.000000  1.000000  1.000000  1.000000  1.000000
                       1.000000  1.000000  1.000000  1.000000  1.000000  1.000000
                       1.000000  1.000000  1.000000  1.000000  1.000000  1.000000
                       1.000000  1.000000  0.009161  0.009161  0.007673
                       1.000000  1.000000  1.000000  1.000000  1.000000  1.000000
                       1.000000  1.000000  1.000000  1.000000  1.000000  1.000000
                       1.000000  1.000000  1.000000  1.000000  1.000000  1.000000
                       1.000000  1.000000  0.008886  0.007934  0.007745
                       1.000000  1.000000  1.000000  1.000000  1.000000  1.000000
                       1.000000  1.000000  1.000000  1.000000  1.000000  1.000000
                       1.000000  1.000000  1.000000  1.000000  1.000000  1.000000
                       1.000000  1.000000  0.914763  0.009692  0.009675
                       1.000000  1.000000  1.000000  1.000000  1.000000  1.000000
                       1.000000  1.000000  1.000000  1.000000  1.000000  1.000000
                       1.000000  1.000000  1.000000  1.000000  1.000000  1.000000
                       1.000000  1.000000  0.006693  0.006693  0.006693
                       1.000000  1.000000  1.000000  1.000000  1.000000  1.000000
                       1.000000  1.000000  1.000000  1.000000  1.000000  1.000000
                       1.000000  1.000000  1.000000  1.000000  1.000000  1.000000
                       1.000000  1.000000  0.807328  0.017363  0.016237
                       1.000000  1.000000  1.000000  1.000000  1.000000  1.000000
                       1.000000  1.000000  1.000000  1.000000  1.000000  1.000000
                       1.000000  1.000000  1.000000  1.000000  1.000000  1.000000
                       1.000000  1.000000  0.549530  0.359228  0.359228
                       1.000000  1.000000  1.000000  1.000000  1.000000  1.000000
                       1.000000  1.000000  1.000000  1.000000  1.000000  1.000000
                       1.000000  1.000000  1.000000  1.000000  1.000000  1.000000
                       1.000000  1.000000  0.017474  0.010188  0.009169
                       1.000000  1.000000  1.000000  1.000000  1.000000  1.000000
                       1.000000  1.000000  1.000000  1.000000  1.000000  1.000000
                       1.000000  1.000000  1.000000  1.000000  1.000000  1.000000
                       1.000000  1.000000  0.249162  0.010069  0.009630
                       1.000000  1.000000  1.000000  1.000000  1.000000  1.000000
                       1.000000  1.000000  1.000000  1.000000  1.000000  1.000000
                       1.000000  1.000000  1.000000  1.000000  1.000000  1.000000
                       1.000000  1.000000  0.014703  0.012935  0.010535
                       1.000000  1.000000  1.000000  1.000000  1.000000  1.000000
                       1.000000  1.000000  1.000000  1.000000  1.000000  1.000000
                       1.000000  1.000000  1.000000  1.000000  1.000000  1.000000
                       1.000000  1.000000  0.919442  0.846853  0.846853
                       1.000000  1.000000  1.000000  1.000000  1.000000  1.000000
                       1.000000  1.000000  1.000000  1.000000  1.000000  1.000000
                       1.000000  1.000000  1.000000  1.000000  1.000000  1.000000
                       1.000000  1.000000  0.009365  0.009365  0.007919
                       1.000000  1.000000  1.000000  1.000000  1.000000  1.000000
                       1.000000  1.000000  1.000000  1.000000  1.000000  1.000000
                       1.000000  1.000000  1.000000  1.000000  1.000000  1.000000
                       1.000000  1.000000  0.009103  0.008174  0.007985
                       1.000000  1.000000  1.000000  1.000000  1.000000  1.000000
                       1.000000  1.000000  1.000000  1.000000  1.000000  1.000000
                       1.000000  1.000000  1.000000  1.000000  1.000000  1.000000
                       1.000000  1.000000  0.912732  0.009854  0.009836
                       1.000000  1.000000  1.000000  1.000000  1.000000  1.000000
                       1.000000  1.000000  1.000000  1.000000  1.000000  1.000000
                       1.000000  1.000000  1.000000  1.000000  1.000000  1.000000
                       1.000000  1.000000  0.006927  0.006927  0.006927
           occopt           3
        pawecutdg      3.00000000E+01 Hartree
           shiftk      5.00000000E-01  5.00000000E-01  5.00000000E-01
          spgroup         221
           strten1     3.4037745541E-04  3.4037745541E-04  3.4037745541E-04
                       0.0000000000E+00  0.0000000000E+00  0.0000000000E+00
           strten2     3.0805570763E-04  3.0805570763E-04  3.0805570763E-04
                       0.0000000000E+00  0.0000000000E+00  0.0000000000E+00
           symrel      1  0  0   0  1  0   0  0  1      -1  0  0   0 -1  0   0  0 -1
                      -1  0  0   0  1  0   0  0 -1       1  0  0   0 -1  0   0  0  1
                      -1  0  0   0 -1  0   0  0  1       1  0  0   0  1  0   0  0 -1
                       1  0  0   0 -1  0   0  0 -1      -1  0  0   0  1  0   0  0  1
                       0  1  0   1  0  0   0  0  1       0 -1  0  -1  0  0   0  0 -1
                       0 -1  0   1  0  0   0  0 -1       0  1  0  -1  0  0   0  0  1
                       0 -1  0  -1  0  0   0  0  1       0  1  0   1  0  0   0  0 -1
                       0  1  0  -1  0  0   0  0 -1       0 -1  0   1  0  0   0  0  1
                       0  0  1   1  0  0   0  1  0       0  0 -1  -1  0  0   0 -1  0
                       0  0 -1   1  0  0   0 -1  0       0  0  1  -1  0  0   0  1  0
                       0  0 -1  -1  0  0   0  1  0       0  0  1   1  0  0   0 -1  0
                       0  0  1  -1  0  0   0 -1  0       0  0 -1   1  0  0   0  1  0
                       1  0  0   0  0  1   0  1  0      -1  0  0   0  0 -1   0 -1  0
                      -1  0  0   0  0  1   0 -1  0       1  0  0   0  0 -1   0  1  0
                      -1  0  0   0  0 -1   0  1  0       1  0  0   0  0  1   0 -1  0
                       1  0  0   0  0 -1   0 -1  0      -1  0  0   0  0  1   0  1  0
                       0  1  0   0  0  1   1  0  0       0 -1  0   0  0 -1  -1  0  0
                       0 -1  0   0  0  1  -1  0  0       0  1  0   0  0 -1   1  0  0
                       0 -1  0   0  0 -1   1  0  0       0  1  0   0  0  1  -1  0  0
                       0  1  0   0  0 -1  -1  0  0       0 -1  0   0  0  1   1  0  0
                       0  0  1   0  1  0   1  0  0       0  0 -1   0 -1  0  -1  0  0
                       0  0 -1   0  1  0  -1  0  0       0  0  1   0 -1  0   1  0  0
                       0  0 -1   0 -1  0   1  0  0       0  0  1   0  1  0  -1  0  0
                       0  0  1   0 -1  0  -1  0  0       0  0 -1   0  1  0   1  0  0
           tolvrs      1.00000000E-07
           tsmear      3.67490000E-03 Hartree
            typat      1  2  3  3  3
            upawu1     0.00000000E+00  0.00000000E+00  0.00000000E+00 Hartree
            upawu2     1.15147886E-01  0.00000000E+00  0.00000000E+00 Hartree
          usedmft1          0
          usedmft2          1
          usepawu1          1
          usepawu2         10
           useylm           1
              wtk        0.22222    0.07407    0.11111    0.11111    0.22222    0.05556
                         0.05556    0.11111    0.02778    0.00926
           xangst      0.0000000000E+00  0.0000000000E+00  0.0000000000E+00
                       1.9210455615E+00  1.9210455615E+00  1.9210455615E+00
                       1.9210455615E+00  0.0000000000E+00  0.0000000000E+00
                       0.0000000000E+00  1.9210455615E+00  0.0000000000E+00
                       0.0000000000E+00  0.0000000000E+00  1.9210455615E+00
            xcart      0.0000000000E+00  0.0000000000E+00  0.0000000000E+00
                       3.6302500000E+00  3.6302500000E+00  3.6302500000E+00
                       3.6302500000E+00  0.0000000000E+00  0.0000000000E+00
                       0.0000000000E+00  3.6302500000E+00  0.0000000000E+00
                       0.0000000000E+00  0.0000000000E+00  3.6302500000E+00
             xred      0.0000000000E+00  0.0000000000E+00  0.0000000000E+00
                       5.0000000000E-01  5.0000000000E-01  5.0000000000E-01
                       5.0000000000E-01  0.0000000000E+00  0.0000000000E+00
                       0.0000000000E+00  5.0000000000E-01  0.0000000000E+00
                       0.0000000000E+00  0.0000000000E+00  5.0000000000E-01
            znucl       23.00000   38.00000    8.00000

================================================================================


- Timing analysis has been suppressed with timopt=0



================================================================================

 Suggested references for the acknowledgment of ABINIT usage.

 The users of ABINIT have little formal obligations with respect to the ABINIT group
 (those specified in the GNU General Public License, http://www.gnu.org/copyleft/gpl.txt).
 However, it is common practice in the scientific literature,
 to acknowledge the efforts of people that have made the research possible.
 In this spirit, please find below suggested citations of work written by ABINIT developers,
 corresponding to implementations inside of ABINIT that you have used in the present run.
 Note also that it will be of great value to readers of publications presenting these results,
 to read papers enabling them to understand the theoretical formalism and details
 of the ABINIT implementation.
 For information on why they are suggested, see also http://www.abinit.org/about/?text=acknowledgments.

 [1] A self-consistent DFT + DMFT scheme in the projector augmented wave method: 
 applications to cerium, Ce2O3 and Pu2O3 with the Hubbard I solver and comparison to DFT + U,
 B. Amadon,  J. Phys.: Condens. Matter 24 075604 (2012).
 Comment : Describes the self-consistent implementation of DFT+DMFT in PAW

 [2] Plane-wave based electronic strcture calculations for correlated materials.
 using dynamical mean-field theory and projected local orbitals,
 B. Amadon, F. Lechermann, A. Georges, F. Jollet, T.O. Wehling, A.I. Lichenstein,
 Phys. Rev. B 77, 205112 (2008).
 Comment : to be cited in case the computation of overlap operator for Wannier90 interface within PAW is used,
 i.e. prtwant=2 and usepaw=1. The paper describes also the DFT+DMFT implementation on Wannier functions

 [3] Gamma and beta cerium: LDA+U calculations of ground-state parameters.
 B. Amadon, F. Jollet and M. Torrent, Phys. Rev. B 77, 155104 (2008).
 Comment : LDA+U calculations, usepawu/=0. Strong suggestion to cite this paper.

 [4] Implementation of the Projector Augmented-Wave Method in the ABINIT code.
 M. Torrent, F. Jollet, F. Bottin, G. Zerah, and X. Gonze Comput. Mat. Science 42, 337, (2008).
 Comment : PAW calculations. Strong suggestion to cite this paper.

 [5] ABINIT : First-principles approach of materials and nanosystem properties.
 X. Gonze, B. Amadon, P.-M. Anglade, J.-M. Beuken, F. Bottin, P. Boulanger, F. Bruneval,
 D. Caliste, R. Caracas, M. Cote, T. Deutsch, L. Genovese, Ph. Ghosez, M. Giantomassi
 S. Goedecker, D.R. Hamann, P. Hermet, F. Jollet, G. Jomard, S. Leroux, M. Mancini, S. Mazevet,
 M.J.T. Oliveira, G. Onida, Y. Pouillon, T. Rangel, G.-M. Rignanese, D. Sangalli, R. Shaltaf,
 M. Torrent, M.J. Verstraete, G. Zerah, J.W. Zwanziger
 Computer Phys. Comm. 180, 2582-2615 (2009).
 Comment : the third generic paper describing the ABINIT project.
 Note that a version of this paper, that is not formatted for Computer Phys. Comm. 
 is available at http://www.abinit.org/about/ABINIT_CPC_v10.pdf .
 The licence allows the authors to put it on the Web.

 [6] A brief introduction to the ABINIT software package.
 X. Gonze, G.-M. Rignanese, M. Verstraete, J.-M. Beuken, Y. Pouillon, R. Caracas, F. Jollet,
 M. Torrent, G. Zerah, M. Mikami, Ph. Ghosez, M. Veithen, J.-Y. Raty, V. Olevano, F. Bruneval,
 L. Reining, R. Godby, G. Onida, D.R. Hamann, and D.C. Allan.
 Z. Kristallogr. 220, 558-562 (2005).
 Comment : the second generic paper describing the ABINIT project. Note that this paper
 should be cited especially if you are using the GW part of ABINIT, as several authors
 of this part are not in the list of authors of the first or third paper.
 The .pdf of the latter paper is available at http://www.abinit.org/about/zfk_0505-06_558-562.pdf.
 Note that it should not redistributed (Copyright by Oldenburg Wissenshaftverlag,
 the licence allows the authors to put it on the Web).
-
- Proc.   0 individual time (sec): cpu=        126.8  wall=        127.2

================================================================================

 Calculation completed.
.Delivered   26 WARNINGs and   2 COMMENTs to log file.
+Overall time at end (sec) : cpu=        126.8  wall=        127.2
