
.Version 7.10.4 of ABINIT 
.(MPI version, prepared for a x86_64_linux_gnu4.7 computer) 

.Copyright (C) 1998-2014 ABINIT group . 
 ABINIT comes with ABSOLUTELY NO WARRANTY.
 It is free software, and you are welcome to redistribute it
 under certain conditions (GNU General Public License,
 see ~abinit/COPYING or http://www.gnu.org/copyleft/gpl.txt).

 ABINIT is a project of the Universite Catholique de Louvain,
 Corning Inc. and other collaborators, see ~abinit/doc/developers/contributors.txt .
 Please read ~abinit/doc/users/acknowledgments.html for suggested
 acknowledgments of the ABINIT effort.
 For more information, see http://www.abinit.org .

.Starting date : Sun  1 Feb 2015.
- ( at 18h22 )
  
- input  file    -> t01.in
- output file    -> t01.out
- root for input  files -> t01i
- root for output files -> t01o


 DATASET    1 : space group F-4 3 m (#216); Bravais cF (face-center cubic)
================================================================================
 Values of the parameters that define the memory need for DATASET  1.
   intxc =         0  ionmov =         0    iscf =         7 xclevel =         1
_ lmnmax =         3   lnmax =         1   mband =         4  mffmem =         1
P  mgfft =        15   mkmem =         2 mpssoang=         2     mpw =       117
  mqgrid =      3001   natom =         2    nfft =      3375    nkpt =         2
  nloalg =         4  nspden =         1 nspinor =         1  nsppol =         1
    nsym =        24  n1xccc =      2501  ntypat =         2  occopt =         1
================================================================================
P This job should need less than                       1.699 Mbytes of memory.
  Rough estimation (10% accuracy) of disk space for files :
_ WF disk file :      0.016 Mbytes ; DEN or POT disk file :      0.028 Mbytes.
================================================================================


 DATASET    2 : space group F-4 3 m (#216); Bravais cF (face-center cubic)
================================================================================
 Values of the parameters that define the memory need for DATASET  2.
   intxc =         0  ionmov =         0    iscf =        -2 xclevel =         1
_ lmnmax =         3   lnmax =         1   mband =         4  mffmem =         1
P  mgfft =        15   mkmem =        19 mpssoang=         2     mpw =       120
  mqgrid =      3001   natom =         2    nfft =      3375    nkpt =        19
  nloalg =         4  nspden =         1 nspinor =         1  nsppol =         1
    nsym =        24  n1xccc =      2501  ntypat =         2  occopt =         1
================================================================================
P This job should need less than                       1.509 Mbytes of memory.
  Rough estimation (10% accuracy) of disk space for files :
_ WF disk file :      0.141 Mbytes ; DEN or POT disk file :      0.028 Mbytes.
================================================================================


 DATASET    3 : space group F-4 3 m (#216); Bravais cF (face-center cubic)
================================================================================
 Values of the parameters that define the memory need for DATASET  3.
   intxc =         0  ionmov =         0    iscf =        -2 xclevel =         1
_ lmnmax =         3   lnmax =         1   mband =         4  mffmem =         1
P  mgfft =        15   mkmem =        19 mpssoang=         2     mpw =       120
  mqgrid =      3001   natom =         2    nfft =      3375    nkpt =        19
  nloalg =         4  nspden =         1 nspinor =         1  nsppol =         1
    nsym =        24  n1xccc =      2501  ntypat =         2  occopt =         1
================================================================================
P This job should need less than                       1.509 Mbytes of memory.
  Rough estimation (10% accuracy) of disk space for files :
_ WF disk file :      0.141 Mbytes ; DEN or POT disk file :      0.028 Mbytes.
================================================================================


 DATASET    4 : space group F-4 3 m (#216); Bravais cF (face-center cubic)
================================================================================
 Values of the parameters that define the memory need for DATASET  4 (RF).
   intxc =         0    iscf =         7 xclevel =         1  lmnmax =         1
   lnmax =         1   mband =         4  mffmem =         1   mgfft =        15
P  mkmem =        19  mkqmem =        19  mk1mem =        19 mpssoang=         2
     mpw =       120  mqgrid =      3001   natom =         2    nfft =      3375
    nkpt =        19  nloalg =         4  nspden =         1 nspinor =         1
  nsppol =         1    nsym =        24  n1xccc =      2501  ntypat =         2
  occopt =         1
================================================================================
P This job should need less than                       2.035 Mbytes of memory.
  Rough estimation (10% accuracy) of disk space for files :
_ WF disk file :      0.141 Mbytes ; DEN or POT disk file :      0.028 Mbytes.
================================================================================

--------------------------------------------------------------------------------
------------- Echo of variables that govern the present computation ------------
--------------------------------------------------------------------------------
-
- outvars: echo of selected default values                                      
-   accesswff0 =  0 , fftalg0 =112 , wfoptalg0 =  0
-
- outvars: echo of global parameters not present in the input file              
-  max_nthreads =    0
-
 -outvars: echo values of preprocessed input variables --------
            acell      1.0600000000E+01  1.0600000000E+01  1.0600000000E+01 Bohr
              amu      6.97200000E+01  7.49216000E+01
      chksymbreak           0
             ecut      4.00000000E+00 Hartree
-          fftalg         112
           getden1          0
           getden2          1
           getden3          1
           getden4          0
           getwfk1          0
           getwfk2          1
           getwfk3          2
           getwfk4          2
           getwfq1          0
           getwfq2          0
           getwfq3          0
           getwfq4          3
             iscf1          7
             iscf2         -2
             iscf3         -2
             iscf4          7
           istwfk2       0    0    0    0    0    0    0    0    0    0
                         0    0    0    0    0    0    0    0    1
           istwfk4       0    0    0    0    0    0    0    0    0    0
                         0    0    0    0    0    0    0    0    1
              ixc           3
           jdtset        1    2    3    4
              kpt1     2.50000000E-01  2.50000000E-01  2.50000000E-01
                       2.50000000E-01  5.00000000E-01  5.00000000E-01
              kpt2     1.00000000E-01  1.00000000E-01  1.00000000E-01
                       3.00000000E-01  1.00000000E-01  1.00000000E-01
                       5.00000000E-01  1.00000000E-01  1.00000000E-01
                      -3.00000000E-01  1.00000000E-01  1.00000000E-01
                      -1.00000000E-01  1.00000000E-01  1.00000000E-01
                       3.00000000E-01  3.00000000E-01  1.00000000E-01
                       5.00000000E-01  3.00000000E-01  1.00000000E-01
                      -3.00000000E-01  3.00000000E-01  1.00000000E-01
                      -1.00000000E-01  3.00000000E-01  1.00000000E-01
                       5.00000000E-01  5.00000000E-01  1.00000000E-01
                      -3.00000000E-01  5.00000000E-01  1.00000000E-01
                      -1.00000000E-01  5.00000000E-01  1.00000000E-01
                      -3.00000000E-01 -3.00000000E-01  1.00000000E-01
                       3.00000000E-01  3.00000000E-01  3.00000000E-01
                       5.00000000E-01  3.00000000E-01  3.00000000E-01
                      -3.00000000E-01  3.00000000E-01  3.00000000E-01
                       5.00000000E-01  5.00000000E-01  3.00000000E-01
                      -3.00000000E-01  5.00000000E-01  3.00000000E-01
                       5.00000000E-01  5.00000000E-01  5.00000000E-01
              kpt3     1.00000000E-01  1.00000000E-01  1.00000000E-01
                       3.00000000E-01  1.00000000E-01  1.00000000E-01
                       5.00000000E-01  1.00000000E-01  1.00000000E-01
                      -3.00000000E-01  1.00000000E-01  1.00000000E-01
                      -1.00000000E-01  1.00000000E-01  1.00000000E-01
                       3.00000000E-01  3.00000000E-01  1.00000000E-01
                       5.00000000E-01  3.00000000E-01  1.00000000E-01
                      -3.00000000E-01  3.00000000E-01  1.00000000E-01
                      -1.00000000E-01  3.00000000E-01  1.00000000E-01
                       5.00000000E-01  5.00000000E-01  1.00000000E-01
                      -3.00000000E-01  5.00000000E-01  1.00000000E-01
                      -1.00000000E-01  5.00000000E-01  1.00000000E-01
                      -3.00000000E-01 -3.00000000E-01  1.00000000E-01
                       3.00000000E-01  3.00000000E-01  3.00000000E-01
                       5.00000000E-01  3.00000000E-01  3.00000000E-01
                      -3.00000000E-01  3.00000000E-01  3.00000000E-01
                       5.00000000E-01  5.00000000E-01  3.00000000E-01
                      -3.00000000E-01  5.00000000E-01  3.00000000E-01
                       5.00000000E-01  5.00000000E-01  5.00000000E-01
              kpt4     1.00000000E-01  1.00000000E-01  1.00000000E-01
                       3.00000000E-01  1.00000000E-01  1.00000000E-01
                       5.00000000E-01  1.00000000E-01  1.00000000E-01
                      -3.00000000E-01  1.00000000E-01  1.00000000E-01
                      -1.00000000E-01  1.00000000E-01  1.00000000E-01
                       3.00000000E-01  3.00000000E-01  1.00000000E-01
                       5.00000000E-01  3.00000000E-01  1.00000000E-01
                      -3.00000000E-01  3.00000000E-01  1.00000000E-01
                      -1.00000000E-01  3.00000000E-01  1.00000000E-01
                       5.00000000E-01  5.00000000E-01  1.00000000E-01
                      -3.00000000E-01  5.00000000E-01  1.00000000E-01
                      -1.00000000E-01  5.00000000E-01  1.00000000E-01
                      -3.00000000E-01 -3.00000000E-01  1.00000000E-01
                       3.00000000E-01  3.00000000E-01  3.00000000E-01
                       5.00000000E-01  3.00000000E-01  3.00000000E-01
                      -3.00000000E-01  3.00000000E-01  3.00000000E-01
                       5.00000000E-01  5.00000000E-01  3.00000000E-01
                      -3.00000000E-01  5.00000000E-01  3.00000000E-01
                       5.00000000E-01  5.00000000E-01  5.00000000E-01
           kptopt1          0
           kptopt2          1
           kptopt3          1
           kptopt4          1
         kptrlatt        5    0    0      0    5    0      0    0    5
          kptrlen1     3.00000000E+01
          kptrlen2     3.74766594E+01
          kptrlen3     3.74766594E+01
          kptrlen4     3.74766594E+01
P           mkmem1          2
P           mkmem2         19
P           mkmem3         19
P           mkmem4         19
P          mkqmem1          2
P          mkqmem2         19
P          mkqmem3         19
P          mkqmem4         19
P          mk1mem1          2
P          mk1mem2         19
P          mk1mem3         19
P          mk1mem4         19
            natom           2
            nband1          4
            nband2          4
            nband3          4
            nband4          4
           nbdbuf1          0
           nbdbuf2          2
           nbdbuf3          2
           nbdbuf4          0
           ndtset           4
            ngfft          15      15      15
             nkpt1          2
             nkpt2         19
             nkpt3         19
             nkpt4         19
             nqpt1          0
             nqpt2          0
             nqpt3          1
             nqpt4          1
             nsym          24
           ntypat           2
              occ1     2.000000  2.000000  2.000000  2.000000
              occ4     2.000000  2.000000  2.000000  2.000000
        optdriver1          0
        optdriver2          0
        optdriver3          0
        optdriver4          1
-          ortalg1         -2
-          ortalg2         -2
-          ortalg3         -2
-          ortalg4          2
           prtden1          1
           prtden2          0
           prtden3          0
           prtden4          0
           prteig           0
              qpt1     0.00000000E+00  0.00000000E+00  0.00000000E+00
              qpt2     0.00000000E+00  0.00000000E+00  0.00000000E+00
              qpt3     0.00000000E+00  5.00000000E-01  5.00000000E-01
              qpt4     0.00000000E+00  5.00000000E-01  5.00000000E-01
          rfatpol1          1       1
          rfatpol2          1       1
          rfatpol3          1       1
          rfatpol4          1       2
            rfdir1          0       0       0
            rfdir2          0       0       0
            rfdir3          0       0       0
            rfdir4          1       1       1
           rfphon1          0
           rfphon2          0
           rfphon3          0
           rfphon4          1
            rprim      0.0000000000E+00  5.0000000000E-01  5.0000000000E-01
                       5.0000000000E-01  0.0000000000E+00  5.0000000000E-01
                       5.0000000000E-01  5.0000000000E-01  0.0000000000E+00
           shiftk      5.00000000E-01  5.00000000E-01  5.00000000E-01
          spgroup         216
           symrel      1  0  0   0  1  0   0  0  1       0 -1  1   0 -1  0   1 -1  0
                      -1  0  0  -1  0  1  -1  1  0       0  1 -1   1  0 -1   0  0 -1
                      -1  0  0  -1  1  0  -1  0  1       0 -1  1   1 -1  0   0 -1  0
                       1  0  0   0  0  1   0  1  0       0  1 -1   0  0 -1   1  0 -1
                      -1  0  1  -1  1  0  -1  0  0       0 -1  0   1 -1  0   0 -1  1
                       1  0 -1   0  0 -1   0  1 -1       0  1  0   0  0  1   1  0  0
                       1  0 -1   0  1 -1   0  0 -1       0 -1  0   0 -1  1   1 -1  0
                      -1  0  1  -1  0  0  -1  1  0       0  1  0   1  0  0   0  0  1
                       0  0 -1   0  1 -1   1  0 -1       1 -1  0   0 -1  1   0 -1  0
                       0  0  1   1  0  0   0  1  0      -1  1  0  -1  0  0  -1  0  1
                       0  0  1   0  1  0   1  0  0       1 -1  0   0 -1  0   0 -1  1
                       0  0 -1   1  0 -1   0  1 -1      -1  1  0  -1  0  1  -1  0  0
           tolwfr1     1.00000000E-22
           tolwfr2     1.00000000E-22
           tolwfr3     1.00000000E-22
           tolwfr4     2.00000000E-15
            typat      1  2
-          useylm1          1
-          useylm2          1
-          useylm3          1
-          useylm4          0
-    use_gpu_cuda1          1
-    use_gpu_cuda2          1
-    use_gpu_cuda3          1
-    use_gpu_cuda4          0
-        wfoptalg1         14
-        wfoptalg2         14
-        wfoptalg3         14
-        wfoptalg4          0
              wtk1       0.25000    0.75000
              wtk2       0.01600    0.04800    0.04800    0.04800    0.04800    0.04800
                         0.09600    0.09600    0.09600    0.04800    0.09600    0.04800
                         0.04800    0.01600    0.04800    0.04800    0.04800    0.04800
                         0.00800
              wtk3       0.01600    0.04800    0.04800    0.04800    0.04800    0.04800
                         0.09600    0.09600    0.09600    0.04800    0.09600    0.04800
                         0.04800    0.01600    0.04800    0.04800    0.04800    0.04800
                         0.00800
              wtk4       0.01600    0.04800    0.04800    0.04800    0.04800    0.04800
                         0.09600    0.09600    0.09600    0.04800    0.09600    0.04800
                         0.04800    0.01600    0.04800    0.04800    0.04800    0.04800
                         0.00800
           xangst      0.0000000000E+00  0.0000000000E+00  0.0000000000E+00
                       1.4023196028E+00  1.4023196028E+00  1.4023196028E+00
            xcart      0.0000000000E+00  0.0000000000E+00  0.0000000000E+00
                       2.6500000000E+00  2.6500000000E+00  2.6500000000E+00
             xred      0.0000000000E+00  0.0000000000E+00  0.0000000000E+00
                       2.5000000000E-01  2.5000000000E-01  2.5000000000E-01
            znucl       31.00000   33.00000

================================================================================

 chkinp: Checking input parameters for consistency, jdtset=   1.

 chkinp: Checking input parameters for consistency, jdtset=   2.

 chkinp: Checking input parameters for consistency, jdtset=   3.

 chkinp: Checking input parameters for consistency, jdtset=   4.

================================================================================
== DATASET  1 ==================================================================
-   nproc =    1

 Exchange-correlation functional for the present dataset will be:
  LDA: old Teter (4/91) fit to Ceperley-Alder data - ixc=3

 Real(R)+Recip(G) space primitive vectors, cartesian coordinates (Bohr,Bohr^-1):
 R(1)=  0.0000000  5.3000000  5.3000000  G(1)= -0.0943396  0.0943396  0.0943396
 R(2)=  5.3000000  0.0000000  5.3000000  G(2)=  0.0943396 -0.0943396  0.0943396
 R(3)=  5.3000000  5.3000000  0.0000000  G(3)=  0.0943396  0.0943396 -0.0943396
 Unit cell volume ucvol=  2.9775400E+02 bohr^3
 Angles (23,13,12)=  6.00000000E+01  6.00000000E+01  6.00000000E+01 degrees

 getcut: wavevector=  0.0000  0.0000  0.0000  ngfft=  15  15  15
         ecut(hartree)=      4.000   => boxcut(ratio)=   2.08519

--- Pseudopotential description ------------------------------------------------
- pspini: atom type   1  psp file is /home/buildbot/ABINIT/buda_gcc47_cuda/trunk_7.10.4-training/tests/Psps_for_tests/31ga.pspnc
- pspatm: opening atomic psp file    /home/buildbot/ABINIT/buda_gcc47_cuda/trunk_7.10.4-training/tests/Psps_for_tests/31ga.pspnc
-  Troullier-Martins psp for element  Ga        Thu Oct 27 17:36:43 EDT 1994
- 31.00000   3.00000    940714                znucl, zion, pspdat
    1    1    1    0      2001   0.00000      pspcod,pspxc,lmax,lloc,mmax,r2well
    0   6.570  15.885    0   1.9956558        l,e99.0,e99.9,nproj,rcpsp
   0.00000000   0.00000000   0.00000000   0.00000000     rms, ekb1, ekb2, epsatm
    1   2.122   7.249    1   1.9956558        l,e99.0,e99.9,nproj,rcpsp
   0.00000000   0.00000000   0.00000000   0.00000000     rms, ekb1, ekb2, epsatm
    2.57649862033350    0.14924926558032    2.22766011456380   rchrg,fchrg,qchrg
 pspatm: epsatm=   27.06235248
         --- l  ekb(1:nproj) -->
             1    2.537532
 pspatm: atomic psp has been read  and splines computed

- pspini: atom type   2  psp file is /home/buildbot/ABINIT/buda_gcc47_cuda/trunk_7.10.4-training/tests/Psps_for_tests/33as.pspnc
- pspatm: opening atomic psp file    /home/buildbot/ABINIT/buda_gcc47_cuda/trunk_7.10.4-training/tests/Psps_for_tests/33as.pspnc
-  Troullier-Martins psp for element  As        Thu Oct 27 17:37:14 EDT 1994
- 33.00000   5.00000    940714                znucl, zion, pspdat
    1    1    1    1      2001   0.00000      pspcod,pspxc,lmax,lloc,mmax,r2well
    0   4.772  10.829    1   2.5306160        l,e99.0,e99.9,nproj,rcpsp
   0.00000000   0.00000000   0.00000000   0.00000000     rms, ekb1, ekb2, epsatm
    1   2.745   5.580    0   2.5306160        l,e99.0,e99.9,nproj,rcpsp
   0.00000000   0.00000000   0.00000000   0.00000000     rms, ekb1, ekb2, epsatm
    2.05731715564010    0.36322996461007    2.76014815959125   rchrg,fchrg,qchrg
 pspatm: epsatm=   27.20579911
         --- l  ekb(1:nproj) -->
             0    0.838751
 pspatm: atomic psp has been read  and splines computed

   4.34145213E+02                                ecore*ucvol(ha*bohr**3)
--------------------------------------------------------------------------------

P newkpt: treating      4 bands with npw=     117 for ikpt=   1 by node    0
P newkpt: treating      4 bands with npw=     113 for ikpt=   2 by node    0

_setup2: Arith. and geom. avg. npw (full set) are     114.000     113.987

================================================================================

     iter   Etot(hartree)      deltaE(h)  residm     vres2
 ETOT  1  -10.701194086646    -1.070E+01 4.865E-04 3.006E+00
 ETOT  2  -10.708062521245    -6.868E-03 5.886E-08 6.231E-02
 ETOT  3  -10.708203295286    -1.408E-04 2.467E-08 6.467E-03
 ETOT  4  -10.708215462320    -1.217E-05 8.934E-10 1.650E-04
 ETOT  5  -10.708215588279    -1.260E-07 7.377E-11 3.987E-06
 ETOT  6  -10.708215593685    -5.406E-09 1.890E-12 7.061E-08
 ETOT  7  -10.708215593851    -1.662E-10 5.511E-14 7.694E-09
 ETOT  8  -10.708215593868    -1.666E-11 3.083E-15 1.929E-10
 ETOT  9  -10.708215593869    -5.613E-13 2.915E-16 2.418E-12
 ETOT 10  -10.708215593869    -1.776E-15 1.233E-17 1.122E-14
 ETOT 11  -10.708215593869     1.776E-15 3.168E-19 3.363E-16
 ETOT 12  -10.708215593869    -3.908E-14 1.360E-20 1.767E-17
 ETOT 13  -10.708215593869     4.263E-14 3.360E-22 1.256E-20
 ETOT 14  -10.708215593869     1.599E-14 9.360E-23 3.988E-20

 At SCF step   14   max residual=  9.36E-23 < tolwfr=  1.00E-22 =>converged.

 Cartesian components of stress tensor (hartree/bohr^3)
  sigma(1 1)=  4.33113351E-04  sigma(3 2)=  0.00000000E+00
  sigma(2 2)=  4.33113351E-04  sigma(3 1)=  0.00000000E+00
  sigma(3 3)=  4.33113351E-04  sigma(2 1)=  0.00000000E+00

================================================================================

 ----iterations are completed or convergence reached----

 Mean square residual over all n,k,spin=   5.5119E-23; max=  9.3597E-23
   0.2500  0.2500  0.2500    1  9.35965E-23 kpt; spin; max resid(k); each band:
  1.86E-23 3.01E-23 8.56E-23 9.36E-23
   0.2500  0.5000  0.5000    1  8.81491E-23 kpt; spin; max resid(k); each band:
  2.70E-23 2.47E-23 8.81E-23 7.32E-23
 reduced coordinates (array xred) for    2 atoms
       0.000000000000      0.000000000000      0.000000000000
       0.250000000000      0.250000000000      0.250000000000
 rms dE/dt=  0.0000E+00; max dE/dt=  0.0000E+00; dE/dt below (all hartree)
    1       0.000000000000      0.000000000000      0.000000000000
    2       0.000000000000      0.000000000000      0.000000000000

 cartesian coordinates (angstrom) at end:
    1      0.00000000000000     0.00000000000000     0.00000000000000
    2      1.40231960276350     1.40231960276350     1.40231960276350

 cartesian forces (hartree/bohr) at end:
    1     -0.00000000000000    -0.00000000000000    -0.00000000000000
    2     -0.00000000000000    -0.00000000000000    -0.00000000000000
 frms,max,avg= 0.0000000E+00 0.0000000E+00   0.000E+00  0.000E+00  0.000E+00 h/b

 cartesian forces (eV/Angstrom) at end:
    1     -0.00000000000000    -0.00000000000000    -0.00000000000000
    2     -0.00000000000000    -0.00000000000000    -0.00000000000000
 frms,max,avg= 0.0000000E+00 0.0000000E+00   0.000E+00  0.000E+00  0.000E+00 e/A
 length scales= 10.600000000000 10.600000000000 10.600000000000 bohr
              =  5.609278411054  5.609278411054  5.609278411054 angstroms
 Fermi (or HOMO) energy (hartree) =  -0.03030   Average Vxc (hartree)=  -0.35453
 Eigenvalues (hartree) for nkpt=   2  k points:
 kpt#   1, nband=  4, wtk=  0.25000, kpt=  0.2500  0.2500  0.2500 (reduced coord)
  -0.44200  -0.15393  -0.03030  -0.03030
 kpt#   2, nband=  4, wtk=  0.75000, kpt=  0.2500  0.5000  0.5000 (reduced coord)
  -0.39477  -0.22845  -0.12208  -0.07621
 Total charge density [el/Bohr^3]
,     Maximum=    9.0520E-02  at reduced coord.    0.2000    0.2000    0.4667
,Next maximum=    9.0520E-02  at reduced coord.    0.1333    0.2000    0.4667
,     Minimum=    2.4886E-03  at reduced coord.    0.7333    0.7333    0.7333
,Next minimum=    2.4886E-03  at reduced coord.    0.8000    0.7333    0.7333
,  Integrated=    8.0000E+00

--------------------------------------------------------------------------------
 Components of total free energy (in Hartree) :

    Kinetic energy  =  2.96811996191688E+00
    Hartree energy  =  7.89694267120196E-01
    XC energy       = -4.88505933010453E+00
    Ewald energy    = -8.48789573682593E+00
    PspCore energy  =  1.45806676895429E+00
    Loc. psp. energy= -2.69399858366340E+00
    NL   psp  energy=  1.42857058733923E-01
    >>>>>>>>> Etotal= -1.07082155938686E+01

 Other information on the energy :
    Total energy(eV)= -2.91385364980396E+02 ; Band energy (Ha)=  -1.5605287916E+00
--------------------------------------------------------------------------------

 Cartesian components of stress tensor (hartree/bohr^3)
  sigma(1 1)=  4.33113351E-04  sigma(3 2)=  0.00000000E+00
  sigma(2 2)=  4.33113351E-04  sigma(3 1)=  0.00000000E+00
  sigma(3 3)=  4.33113351E-04  sigma(2 1)=  0.00000000E+00

-Cartesian components of stress tensor (GPa)         [Pressure= -1.2743E+01 GPa]
- sigma(1 1)=  1.27426326E+01  sigma(3 2)=  0.00000000E+00
- sigma(2 2)=  1.27426326E+01  sigma(3 1)=  0.00000000E+00
- sigma(3 3)=  1.27426326E+01  sigma(2 1)=  0.00000000E+00

================================================================================
== DATASET  2 ==================================================================
-   nproc =    1

 mkfilename : getwfk/=0, take file _WFK from output of DATASET   1.

 mkfilename : getden/=0, take file _DEN from output of DATASET   1.

 Exchange-correlation functional for the present dataset will be:
  LDA: old Teter (4/91) fit to Ceperley-Alder data - ixc=3

 Real(R)+Recip(G) space primitive vectors, cartesian coordinates (Bohr,Bohr^-1):
 R(1)=  0.0000000  5.3000000  5.3000000  G(1)= -0.0943396  0.0943396  0.0943396
 R(2)=  5.3000000  0.0000000  5.3000000  G(2)=  0.0943396 -0.0943396  0.0943396
 R(3)=  5.3000000  5.3000000  0.0000000  G(3)=  0.0943396  0.0943396 -0.0943396
 Unit cell volume ucvol=  2.9775400E+02 bohr^3
 Angles (23,13,12)=  6.00000000E+01  6.00000000E+01  6.00000000E+01 degrees

 getcut: wavevector=  0.0000  0.0000  0.0000  ngfft=  15  15  15
         ecut(hartree)=      4.000   => boxcut(ratio)=   2.08519
--------------------------------------------------------------------------------

-inwffil : will read wavefunctions from disk file t01o_DS1_WFK
- newkpt: read input wf with ikpt,npw=   1     116, make ikpt,npw=   1     116
- newkpt: read input wf with ikpt,npw=   2     116, make ikpt,npw=   2     116
- newkpt: read input wf with ikpt,npw=   3     114, make ikpt,npw=   3     114
- newkpt: read input wf with ikpt,npw=   4     111, make ikpt,npw=   4     111
- newkpt: read input wf with ikpt,npw=   5     119, make ikpt,npw=   5     119
- newkpt: read input wf with ikpt,npw=   6     119, make ikpt,npw=   6     119
- newkpt: read input wf with ikpt,npw=   7     115, make ikpt,npw=   7     115
- newkpt: read input wf with ikpt,npw=   8     113, make ikpt,npw=   8     113
- newkpt: read input wf with ikpt,npw=   9     116, make ikpt,npw=   9     116
- newkpt: read input wf with ikpt,npw=  10     114, make ikpt,npw=  10     114
- newkpt: read input wf with ikpt,npw=  11     107, make ikpt,npw=  11     107
- newkpt: read input wf with ikpt,npw=  12     116, make ikpt,npw=  12     116
- newkpt: read input wf with ikpt,npw=  13     114, make ikpt,npw=  13     114
- newkpt: read input wf with ikpt,npw=  14     114, make ikpt,npw=  14     114
- newkpt: read input wf with ikpt,npw=  15     113, make ikpt,npw=  15     113
- newkpt: read input wf with ikpt,npw=  16     114, make ikpt,npw=  16     114
- newkpt: read input wf with ikpt,npw=  17     115, make ikpt,npw=  17     115
- newkpt: read input wf with ikpt,npw=  18     112, make ikpt,npw=  18     112
- newkpt: read input wf with ikpt,npw=  19     120, make ikpt,npw=  19     120


================================================================================
 Non-SCF case, kpt    1 (  0.10000  0.10000  0.10000), residuals and eigenvalues=
  1.28E-23  6.61E-23  3.65E-23  3.54E-23
 -4.6021E-01 -5.9755E-02 -1.3931E-02 -1.3931E-02
 Non-SCF case, kpt    2 (  0.30000  0.10000  0.10000), residuals and eigenvalues=
  2.56E-23  5.30E-23  6.39E-20  1.12E-16
 -4.4109E-01 -1.4724E-01 -6.2212E-02 -2.2914E-02
  prteigrs : nnsclo,ikpt=   30    2 max resid (incl. the buffer)=  1.12494E-16
 Non-SCF case, kpt    3 (  0.50000  0.10000  0.10000), residuals and eigenvalues=
  2.59E-23  2.21E-23  8.27E-18  1.79E-23
 -4.0677E-01 -2.3297E-01 -7.6825E-02 -4.5785E-02
  prteigrs : nnsclo,ikpt=   30    3 max resid (incl. the buffer)=  8.27040E-18
 Non-SCF case, kpt    4 ( -0.30000  0.10000  0.10000), residuals and eigenvalues=
  3.25E-23  9.90E-23  8.66E-17  1.56E-17
 -4.1633E-01 -2.1182E-01 -6.3460E-02 -5.2664E-02
  prteigrs : nnsclo,ikpt=   30    4 max resid (incl. the buffer)=  8.65515E-17
 Non-SCF case, kpt    5 ( -0.10000  0.10000  0.10000), residuals and eigenvalues=
  6.52E-23  3.76E-23  1.32E-21  6.81E-20
 -4.5095E-01 -1.0948E-01 -3.7240E-02 -3.4868E-02
  prteigrs : nnsclo,ikpt=   30    5 max resid (incl. the buffer)=  6.80967E-20
 Non-SCF case, kpt    6 (  0.30000  0.30000  0.10000), residuals and eigenvalues=
  1.65E-23  8.37E-23  2.69E-19  2.65E-22
 -4.3187E-01 -1.6052E-01 -7.0006E-02 -6.3711E-02
  prteigrs : nnsclo,ikpt=   30    6 max resid (incl. the buffer)=  2.68872E-19
 Non-SCF case, kpt    7 (  0.50000  0.30000  0.10000), residuals and eigenvalues=
  4.01E-23  6.19E-23  3.97E-18  7.43E-19
 -4.0041E-01 -2.1769E-01 -1.1745E-01 -8.2109E-02
  prteigrs : nnsclo,ikpt=   30    7 max resid (incl. the buffer)=  3.97134E-18
 Non-SCF case, kpt    8 ( -0.30000  0.30000  0.10000), residuals and eigenvalues=
  3.99E-23  4.36E-23  1.44E-19  7.80E-18
 -3.9229E-01 -2.2942E-01 -1.3685E-01 -7.6205E-02
  prteigrs : nnsclo,ikpt=   30    8 max resid (incl. the buffer)=  7.79688E-18
 Non-SCF case, kpt    9 ( -0.10000  0.30000  0.10000), residuals and eigenvalues=
  1.24E-23  8.82E-23  8.66E-20  1.97E-18
 -4.2339E-01 -1.8530E-01 -9.2521E-02 -4.8950E-02
  prteigrs : nnsclo,ikpt=   30    9 max resid (incl. the buffer)=  1.97222E-18
 Non-SCF case, kpt   10 (  0.50000  0.50000  0.10000), residuals and eigenvalues=
  1.84E-23  8.98E-23  1.66E-19  3.08E-23
 -3.8290E-01 -2.4180E-01 -1.1129E-01 -9.4378E-02
  prteigrs : nnsclo,ikpt=   30   10 max resid (incl. the buffer)=  1.66357E-19
 Non-SCF case, kpt   11 ( -0.30000  0.50000  0.10000), residuals and eigenvalues=
  6.22E-23  1.69E-23  2.08E-22  4.17E-21
 -3.8100E-01 -2.3797E-01 -1.3261E-01 -1.0082E-01
  prteigrs : nnsclo,ikpt=   30   11 max resid (incl. the buffer)=  4.17121E-21
 Non-SCF case, kpt   12 ( -0.10000  0.50000  0.10000), residuals and eigenvalues=
  1.07E-23  2.47E-23  1.09E-17  5.12E-17
 -3.9776E-01 -2.3795E-01 -1.0635E-01 -6.3718E-02
  prteigrs : nnsclo,ikpt=   30   12 max resid (incl. the buffer)=  5.12362E-17
 Non-SCF case, kpt   13 ( -0.30000 -0.30000  0.10000), residuals and eigenvalues=
  3.20E-23  4.44E-23  2.19E-19  6.66E-23
 -4.0542E-01 -2.0775E-01 -9.7091E-02 -8.3717E-02
  prteigrs : nnsclo,ikpt=   30   13 max resid (incl. the buffer)=  2.19027E-19
 Non-SCF case, kpt   14 (  0.30000  0.30000  0.30000), residuals and eigenvalues=
  8.36E-23  1.67E-23  9.30E-23  8.94E-23
 -4.3246E-01 -1.8155E-01 -3.5209E-02 -3.5209E-02
 Non-SCF case, kpt   15 (  0.50000  0.30000  0.30000), residuals and eigenvalues=
  4.51E-23  2.06E-23  2.44E-19  4.70E-17
 -4.0858E-01 -2.1135E-01 -1.1921E-01 -4.7517E-02
  prteigrs : nnsclo,ikpt=   30   15 max resid (incl. the buffer)=  4.70479E-17
 Non-SCF case, kpt   16 ( -0.30000  0.30000  0.30000), residuals and eigenvalues=
  2.89E-23  2.27E-23  6.70E-20  4.26E-23
 -3.8562E-01 -2.3662E-01 -1.4427E-01 -7.6628E-02
  prteigrs : nnsclo,ikpt=   30   16 max resid (incl. the buffer)=  6.69674E-20
 Non-SCF case, kpt   17 (  0.50000  0.50000  0.30000), residuals and eigenvalues=
  6.25E-23  2.68E-23  3.72E-20  7.51E-23
 -3.9865E-01 -2.3092E-01 -1.1087E-01 -6.7964E-02
  prteigrs : nnsclo,ikpt=   30   17 max resid (incl. the buffer)=  3.72022E-20
 Non-SCF case, kpt   18 ( -0.30000  0.50000  0.30000), residuals and eigenvalues=
  1.00E-23  4.08E-23  8.82E-21  2.98E-20
 -3.8089E-01 -2.3720E-01 -1.4085E-01 -1.0837E-01
  prteigrs : nnsclo,ikpt=   30   18 max resid (incl. the buffer)=  2.97937E-20
 Non-SCF case, kpt   19 (  0.50000  0.50000  0.50000), residuals and eigenvalues=
  5.35E-23  4.16E-23  1.60E-23  1.61E-23
 -4.0574E-01 -2.4359E-01 -4.4678E-02 -4.4678E-02
================================================================================

 ----iterations are completed or convergence reached----

 Mean square residual over all n,k,spin=   4.5784E-18; max=  1.1249E-16
   0.1000  0.1000  0.1000    1  6.60966E-23 kpt; spin; max resid(k); each band:
  1.28E-23 6.61E-23 3.65E-23 3.54E-23
   0.3000  0.1000  0.1000    1  1.12494E-16 kpt; spin; max resid(k); each band:
  2.56E-23 5.30E-23 6.39E-20 1.12E-16
   0.5000  0.1000  0.1000    1  8.27040E-18 kpt; spin; max resid(k); each band:
  2.59E-23 2.21E-23 8.27E-18 1.79E-23
  -0.3000  0.1000  0.1000    1  8.65515E-17 kpt; spin; max resid(k); each band:
  3.25E-23 9.90E-23 8.66E-17 1.56E-17
  -0.1000  0.1000  0.1000    1  6.80967E-20 kpt; spin; max resid(k); each band:
  6.52E-23 3.76E-23 1.32E-21 6.81E-20
   0.3000  0.3000  0.1000    1  2.68872E-19 kpt; spin; max resid(k); each band:
  1.65E-23 8.37E-23 2.69E-19 2.65E-22
   0.5000  0.3000  0.1000    1  3.97134E-18 kpt; spin; max resid(k); each band:
  4.01E-23 6.19E-23 3.97E-18 7.43E-19
  -0.3000  0.3000  0.1000    1  7.79688E-18 kpt; spin; max resid(k); each band:
  3.99E-23 4.36E-23 1.44E-19 7.80E-18
  -0.1000  0.3000  0.1000    1  1.97222E-18 kpt; spin; max resid(k); each band:
  1.24E-23 8.82E-23 8.66E-20 1.97E-18
   0.5000  0.5000  0.1000    1  1.66357E-19 kpt; spin; max resid(k); each band:
  1.84E-23 8.98E-23 1.66E-19 3.08E-23
  -0.3000  0.5000  0.1000    1  4.17121E-21 kpt; spin; max resid(k); each band:
  6.22E-23 1.69E-23 2.08E-22 4.17E-21
  -0.1000  0.5000  0.1000    1  5.12362E-17 kpt; spin; max resid(k); each band:
  1.07E-23 2.47E-23 1.09E-17 5.12E-17
  -0.3000 -0.3000  0.1000    1  2.19027E-19 kpt; spin; max resid(k); each band:
  3.20E-23 4.44E-23 2.19E-19 6.66E-23
   0.3000  0.3000  0.3000    1  9.30311E-23 kpt; spin; max resid(k); each band:
  8.36E-23 1.67E-23 9.30E-23 8.94E-23
   0.5000  0.3000  0.3000    1  4.70479E-17 kpt; spin; max resid(k); each band:
  4.51E-23 2.06E-23 2.44E-19 4.70E-17
  -0.3000  0.3000  0.3000    1  6.69674E-20 kpt; spin; max resid(k); each band:
  2.89E-23 2.27E-23 6.70E-20 4.26E-23
   0.5000  0.5000  0.3000    1  3.72022E-20 kpt; spin; max resid(k); each band:
  6.25E-23 2.68E-23 3.72E-20 7.51E-23
  -0.3000  0.5000  0.3000    1  2.97937E-20 kpt; spin; max resid(k); each band:
  1.00E-23 4.08E-23 8.82E-21 2.98E-20
   0.5000  0.5000  0.5000    1  5.35426E-23 kpt; spin; max resid(k); each band:
  5.35E-23 4.16E-23 1.60E-23 1.61E-23
 reduced coordinates (array xred) for    2 atoms
       0.000000000000      0.000000000000      0.000000000000
       0.250000000000      0.250000000000      0.250000000000

 cartesian coordinates (angstrom) at end:
    1      0.00000000000000     0.00000000000000     0.00000000000000
    2      1.40231960276350     1.40231960276350     1.40231960276350
 length scales= 10.600000000000 10.600000000000 10.600000000000 bohr
              =  5.609278411054  5.609278411054  5.609278411054 angstroms
 Eigenvalues (hartree) for nkpt=  19  k points:
 kpt#   1, nband=  4, wtk=  0.01600, kpt=  0.1000  0.1000  0.1000 (reduced coord)
  -0.46021  -0.05975  -0.01393  -0.01393
 kpt#   2, nband=  4, wtk=  0.04800, kpt=  0.3000  0.1000  0.1000 (reduced coord)
  -0.44109  -0.14724  -0.06221  -0.02291
 kpt#   3, nband=  4, wtk=  0.04800, kpt=  0.5000  0.1000  0.1000 (reduced coord)
  -0.40677  -0.23297  -0.07683  -0.04578
 kpt#   4, nband=  4, wtk=  0.04800, kpt= -0.3000  0.1000  0.1000 (reduced coord)
  -0.41633  -0.21182  -0.06346  -0.05266
 kpt#   5, nband=  4, wtk=  0.04800, kpt= -0.1000  0.1000  0.1000 (reduced coord)
  -0.45095  -0.10948  -0.03724  -0.03487
 kpt#   6, nband=  4, wtk=  0.04800, kpt=  0.3000  0.3000  0.1000 (reduced coord)
  -0.43187  -0.16052  -0.07001  -0.06371
 kpt#   7, nband=  4, wtk=  0.09600, kpt=  0.5000  0.3000  0.1000 (reduced coord)
  -0.40041  -0.21769  -0.11745  -0.08211
 kpt#   8, nband=  4, wtk=  0.09600, kpt= -0.3000  0.3000  0.1000 (reduced coord)
  -0.39229  -0.22942  -0.13685  -0.07620
 kpt#   9, nband=  4, wtk=  0.09600, kpt= -0.1000  0.3000  0.1000 (reduced coord)
  -0.42339  -0.18530  -0.09252  -0.04895
 kpt#  10, nband=  4, wtk=  0.04800, kpt=  0.5000  0.5000  0.1000 (reduced coord)
  -0.38290  -0.24180  -0.11129  -0.09438
 kpt#  11, nband=  4, wtk=  0.09600, kpt= -0.3000  0.5000  0.1000 (reduced coord)
  -0.38100  -0.23797  -0.13261  -0.10082
 kpt#  12, nband=  4, wtk=  0.04800, kpt= -0.1000  0.5000  0.1000 (reduced coord)
  -0.39776  -0.23795  -0.10635  -0.06372
 kpt#  13, nband=  4, wtk=  0.04800, kpt= -0.3000 -0.3000  0.1000 (reduced coord)
  -0.40542  -0.20775  -0.09709  -0.08372
 kpt#  14, nband=  4, wtk=  0.01600, kpt=  0.3000  0.3000  0.3000 (reduced coord)
  -0.43246  -0.18155  -0.03521  -0.03521
 kpt#  15, nband=  4, wtk=  0.04800, kpt=  0.5000  0.3000  0.3000 (reduced coord)
  -0.40858  -0.21135  -0.11921  -0.04752
 kpt#  16, nband=  4, wtk=  0.04800, kpt= -0.3000  0.3000  0.3000 (reduced coord)
  -0.38562  -0.23662  -0.14427  -0.07663
 kpt#  17, nband=  4, wtk=  0.04800, kpt=  0.5000  0.5000  0.3000 (reduced coord)
  -0.39865  -0.23092  -0.11087  -0.06796
 kpt#  18, nband=  4, wtk=  0.04800, kpt= -0.3000  0.5000  0.3000 (reduced coord)
  -0.38089  -0.23720  -0.14085  -0.10837
 kpt#  19, nband=  4, wtk=  0.00800, kpt=  0.5000  0.5000  0.5000 (reduced coord)
  -0.40574  -0.24359  -0.04468  -0.04468
 Total charge density [el/Bohr^3]
,     Maximum=    9.0520E-02  at reduced coord.    0.2000    0.2000    0.4667
,Next maximum=    9.0520E-02  at reduced coord.    0.1333    0.2000    0.4667
,     Minimum=    2.4886E-03  at reduced coord.    0.7333    0.7333    0.7333
,Next minimum=    2.4886E-03  at reduced coord.    0.8000    0.7333    0.7333
,  Integrated=    8.0000E+00

================================================================================
== DATASET  3 ==================================================================
-   nproc =    1

 mkfilename : getwfk/=0, take file _WFK from output of DATASET   2.

 mkfilename : getden/=0, take file _DEN from output of DATASET   1.

 Exchange-correlation functional for the present dataset will be:
  LDA: old Teter (4/91) fit to Ceperley-Alder data - ixc=3

 Real(R)+Recip(G) space primitive vectors, cartesian coordinates (Bohr,Bohr^-1):
 R(1)=  0.0000000  5.3000000  5.3000000  G(1)= -0.0943396  0.0943396  0.0943396
 R(2)=  5.3000000  0.0000000  5.3000000  G(2)=  0.0943396 -0.0943396  0.0943396
 R(3)=  5.3000000  5.3000000  0.0000000  G(3)=  0.0943396  0.0943396 -0.0943396
 Unit cell volume ucvol=  2.9775400E+02 bohr^3
 Angles (23,13,12)=  6.00000000E+01  6.00000000E+01  6.00000000E+01 degrees

 getcut: wavevector=  0.0000  0.0000  0.0000  ngfft=  15  15  15
         ecut(hartree)=      4.000   => boxcut(ratio)=   2.08519
--------------------------------------------------------------------------------

-inwffil : will read wavefunctions from disk file t01o_DS2_WFK
- newkpt: read input wf with ikpt,npw=  10     114, make ikpt,npw=   1     114
- newkpt: read input wf with ikpt,npw=  16     114, make ikpt,npw=   2     114
- newkpt: read input wf with ikpt,npw=   3     114, make ikpt,npw=   3     114
- newkpt: read input wf with ikpt,npw=   4     111, make ikpt,npw=   4     111
- newkpt: read input wf with ikpt,npw=  13     114, make ikpt,npw=   5     114
- newkpt: read input wf with ikpt,npw=  18     112, make ikpt,npw=   6     112
- newkpt: read input wf with ikpt,npw=   7     115, make ikpt,npw=   7     115
- newkpt: read input wf with ikpt,npw=   9     116, make ikpt,npw=   8     116
- newkpt: read input wf with ikpt,npw=   9     116, make ikpt,npw=   9     116
- newkpt: read input wf with ikpt,npw=  10     114, make ikpt,npw=  10     114
- newkpt: read input wf with ikpt,npw=  13     114, make ikpt,npw=  11     114
- newkpt: read input wf with ikpt,npw=   4     111, make ikpt,npw=  12     111
- newkpt: read input wf with ikpt,npw=  11     107, make ikpt,npw=  13     107
- newkpt: read input wf with ikpt,npw=  17     115, make ikpt,npw=  14     115
- newkpt: read input wf with ikpt,npw=  15     113, make ikpt,npw=  15     113
- newkpt: read input wf with ikpt,npw=   2     116, make ikpt,npw=  16     116
- newkpt: read input wf with ikpt,npw=  17     115, make ikpt,npw=  17     115
- newkpt: read input wf with ikpt,npw=   6     119, make ikpt,npw=  18     119
- newkpt: read input wf with ikpt,npw=  19     120, make ikpt,npw=  19     120


================================================================================
 Non-SCF case, kpt    1 (  0.10000  0.60000  0.60000), residuals and eigenvalues=
  4.34E-23  9.84E-23  1.27E-21  4.21E-23
 -3.8290E-01 -2.4180E-01 -1.1129E-01 -9.4378E-02
  prteigrs : nnsclo,ikpt=   30    1 max resid (incl. the buffer)=  1.26856E-21
 Non-SCF case, kpt    2 (  0.30000  0.60000  0.60000), residuals and eigenvalues=
  2.74E-23  2.77E-23  1.32E-22  6.05E-23
 -3.8562E-01 -2.3662E-01 -1.4427E-01 -7.6628E-02
  prteigrs : nnsclo,ikpt=   30    2 max resid (incl. the buffer)=  1.32228E-22
 Non-SCF case, kpt    3 (  0.50000  0.60000  0.60000), residuals and eigenvalues=
  3.41E-23  2.51E-23  9.97E-20  3.34E-23
 -4.0677E-01 -2.3297E-01 -7.6825E-02 -4.5785E-02
  prteigrs : nnsclo,ikpt=   30    3 max resid (incl. the buffer)=  9.97493E-20
 Non-SCF case, kpt    4 ( -0.30000  0.60000  0.60000), residuals and eigenvalues=
  3.28E-23  1.48E-23  1.06E-18  1.50E-19
 -4.1633E-01 -2.1182E-01 -6.3460E-02 -5.2664E-02
  prteigrs : nnsclo,ikpt=   30    4 max resid (incl. the buffer)=  1.06178E-18
 Non-SCF case, kpt    5 ( -0.10000  0.60000  0.60000), residuals and eigenvalues=
  5.58E-23  5.63E-23  1.73E-21  8.53E-23
 -4.0542E-01 -2.0775E-01 -9.7091E-02 -8.3717E-02
  prteigrs : nnsclo,ikpt=   30    5 max resid (incl. the buffer)=  1.72735E-21
 Non-SCF case, kpt    6 (  0.30000  0.80000  0.60000), residuals and eigenvalues=
  1.54E-23  4.28E-23  3.85E-23  4.28E-23
 -3.8089E-01 -2.3720E-01 -1.4085E-01 -1.0837E-01
 Non-SCF case, kpt    7 (  0.50000  0.80000  0.60000), residuals and eigenvalues=
  3.68E-23  6.40E-23  1.08E-20  4.25E-21
 -4.0041E-01 -2.1769E-01 -1.1745E-01 -8.2109E-02
  prteigrs : nnsclo,ikpt=   30    7 max resid (incl. the buffer)=  1.08122E-20
 Non-SCF case, kpt    8 ( -0.30000  0.80000  0.60000), residuals and eigenvalues=
  1.91E-23  3.71E-23  3.42E-22  1.77E-20
 -4.2339E-01 -1.8530E-01 -9.2521E-02 -4.8950E-02
  prteigrs : nnsclo,ikpt=   30    8 max resid (incl. the buffer)=  1.77394E-20
 Non-SCF case, kpt    9 ( -0.10000  0.80000  0.60000), residuals and eigenvalues=
  1.77E-23  8.49E-23  3.41E-22  1.77E-20
 -4.2339E-01 -1.8530E-01 -9.2521E-02 -4.8950E-02
  prteigrs : nnsclo,ikpt=   30    9 max resid (incl. the buffer)=  1.77078E-20
 Non-SCF case, kpt   10 (  0.50000  1.00000  0.60000), residuals and eigenvalues=
  2.88E-23  9.17E-23  1.27E-21  3.47E-23
 -3.8290E-01 -2.4180E-01 -1.1129E-01 -9.4378E-02
  prteigrs : nnsclo,ikpt=   30   10 max resid (incl. the buffer)=  1.26603E-21
 Non-SCF case, kpt   11 ( -0.30000  1.00000  0.60000), residuals and eigenvalues=
  4.03E-23  4.51E-23  1.72E-21  7.86E-23
 -4.0542E-01 -2.0775E-01 -9.7091E-02 -8.3717E-02
  prteigrs : nnsclo,ikpt=   30   11 max resid (incl. the buffer)=  1.72343E-21
 Non-SCF case, kpt   12 ( -0.10000  1.00000  0.60000), residuals and eigenvalues=
  3.21E-23  1.91E-23  1.06E-18  1.50E-19
 -4.1633E-01 -2.1182E-01 -6.3460E-02 -5.2664E-02
  prteigrs : nnsclo,ikpt=   30   12 max resid (incl. the buffer)=  1.06222E-18
 Non-SCF case, kpt   13 ( -0.30000  0.20000  0.60000), residuals and eigenvalues=
  6.65E-23  1.75E-23  6.71E-23  6.55E-23
 -3.8100E-01 -2.3797E-01 -1.3261E-01 -1.0082E-01
 Non-SCF case, kpt   14 (  0.30000  0.80000  0.80000), residuals and eigenvalues=
  6.75E-23  3.73E-23  8.23E-23  7.67E-23
 -3.9865E-01 -2.3092E-01 -1.1087E-01 -6.7964E-02
 Non-SCF case, kpt   15 (  0.50000  0.80000  0.80000), residuals and eigenvalues=
  4.97E-23  2.70E-23  6.46E-22  1.51E-19
 -4.0858E-01 -2.1135E-01 -1.1921E-01 -4.7517E-02
  prteigrs : nnsclo,ikpt=   30   15 max resid (incl. the buffer)=  1.50625E-19
 Non-SCF case, kpt   16 ( -0.30000  0.80000  0.80000), residuals and eigenvalues=
  3.03E-23  5.49E-23  3.89E-22  3.07E-18
 -4.4109E-01 -1.4724E-01 -6.2212E-02 -2.2914E-02
  prteigrs : nnsclo,ikpt=   30   16 max resid (incl. the buffer)=  3.07171E-18
 Non-SCF case, kpt   17 (  0.50000  1.00000  0.80000), residuals and eigenvalues=
  6.47E-23  2.83E-23  7.71E-23  7.97E-23
 -3.9865E-01 -2.3092E-01 -1.1087E-01 -6.7964E-02
 Non-SCF case, kpt   18 ( -0.30000  1.00000  0.80000), residuals and eigenvalues=
  1.82E-23  9.59E-23  2.42E-21  3.54E-23
 -4.3187E-01 -1.6052E-01 -7.0006E-02 -6.3711E-02
  prteigrs : nnsclo,ikpt=   30   18 max resid (incl. the buffer)=  2.42497E-21
 Non-SCF case, kpt   19 (  0.50000  1.00000  1.00000), residuals and eigenvalues=
  5.28E-23  4.09E-23  3.31E-23  2.22E-23
 -4.0574E-01 -2.4359E-01 -4.4678E-02 -4.4678E-02
================================================================================

 ----iterations are completed or convergence reached----

 Mean square residual over all n,k,spin=   7.6447E-20; max=  1.0618E-18
   0.1000  0.6000  0.6000    1  1.26856E-21 kpt; spin; max resid(k); each band:
  4.34E-23 9.84E-23 1.27E-21 4.21E-23
   0.3000  0.6000  0.6000    1  1.32228E-22 kpt; spin; max resid(k); each band:
  2.74E-23 2.77E-23 1.32E-22 6.05E-23
   0.5000  0.6000  0.6000    1  9.97493E-20 kpt; spin; max resid(k); each band:
  3.41E-23 2.51E-23 9.97E-20 3.34E-23
  -0.3000  0.6000  0.6000    1  1.06178E-18 kpt; spin; max resid(k); each band:
  3.28E-23 1.48E-23 1.06E-18 1.50E-19
  -0.1000  0.6000  0.6000    1  1.72735E-21 kpt; spin; max resid(k); each band:
  5.58E-23 5.63E-23 1.73E-21 8.53E-23
   0.3000  0.8000  0.6000    1  4.28317E-23 kpt; spin; max resid(k); each band:
  1.54E-23 4.28E-23 3.85E-23 4.28E-23
   0.5000  0.8000  0.6000    1  1.08122E-20 kpt; spin; max resid(k); each band:
  3.68E-23 6.40E-23 1.08E-20 4.25E-21
  -0.3000  0.8000  0.6000    1  1.77394E-20 kpt; spin; max resid(k); each band:
  1.91E-23 3.71E-23 3.42E-22 1.77E-20
  -0.1000  0.8000  0.6000    1  1.77078E-20 kpt; spin; max resid(k); each band:
  1.77E-23 8.49E-23 3.41E-22 1.77E-20
   0.5000  1.0000  0.6000    1  1.26603E-21 kpt; spin; max resid(k); each band:
  2.88E-23 9.17E-23 1.27E-21 3.47E-23
  -0.3000  1.0000  0.6000    1  1.72343E-21 kpt; spin; max resid(k); each band:
  4.03E-23 4.51E-23 1.72E-21 7.86E-23
  -0.1000  1.0000  0.6000    1  1.06222E-18 kpt; spin; max resid(k); each band:
  3.21E-23 1.91E-23 1.06E-18 1.50E-19
  -0.3000  0.2000  0.6000    1  6.70573E-23 kpt; spin; max resid(k); each band:
  6.65E-23 1.75E-23 6.71E-23 6.55E-23
   0.3000  0.8000  0.8000    1  8.22966E-23 kpt; spin; max resid(k); each band:
  6.75E-23 3.73E-23 8.23E-23 7.67E-23
   0.5000  0.8000  0.8000    1  1.50625E-19 kpt; spin; max resid(k); each band:
  4.97E-23 2.70E-23 6.46E-22 1.51E-19
  -0.3000  0.8000  0.8000    1  3.07171E-18 kpt; spin; max resid(k); each band:
  3.03E-23 5.49E-23 3.89E-22 3.07E-18
   0.5000  1.0000  0.8000    1  7.96891E-23 kpt; spin; max resid(k); each band:
  6.47E-23 2.83E-23 7.71E-23 7.97E-23
  -0.3000  1.0000  0.8000    1  2.42497E-21 kpt; spin; max resid(k); each band:
  1.82E-23 9.59E-23 2.42E-21 3.54E-23
   0.5000  1.0000  1.0000    1  5.27783E-23 kpt; spin; max resid(k); each band:
  5.28E-23 4.09E-23 3.31E-23 2.22E-23
 reduced coordinates (array xred) for    2 atoms
       0.000000000000      0.000000000000      0.000000000000
       0.250000000000      0.250000000000      0.250000000000

 cartesian coordinates (angstrom) at end:
    1      0.00000000000000     0.00000000000000     0.00000000000000
    2      1.40231960276350     1.40231960276350     1.40231960276350
 length scales= 10.600000000000 10.600000000000 10.600000000000 bohr
              =  5.609278411054  5.609278411054  5.609278411054 angstroms
 Eigenvalues (hartree) for nkpt=  19  k points:
 kpt#   1, nband=  4, wtk=  0.01600, kpt=  0.1000  0.6000  0.6000 (reduced coord)
  -0.38290  -0.24180  -0.11129  -0.09438
 kpt#   2, nband=  4, wtk=  0.04800, kpt=  0.3000  0.6000  0.6000 (reduced coord)
  -0.38562  -0.23662  -0.14427  -0.07663
 kpt#   3, nband=  4, wtk=  0.04800, kpt=  0.5000  0.6000  0.6000 (reduced coord)
  -0.40677  -0.23297  -0.07683  -0.04578
 kpt#   4, nband=  4, wtk=  0.04800, kpt= -0.3000  0.6000  0.6000 (reduced coord)
  -0.41633  -0.21182  -0.06346  -0.05266
 kpt#   5, nband=  4, wtk=  0.04800, kpt= -0.1000  0.6000  0.6000 (reduced coord)
  -0.40542  -0.20775  -0.09709  -0.08372
 kpt#   6, nband=  4, wtk=  0.04800, kpt=  0.3000  0.8000  0.6000 (reduced coord)
  -0.38089  -0.23720  -0.14085  -0.10837
 kpt#   7, nband=  4, wtk=  0.09600, kpt=  0.5000  0.8000  0.6000 (reduced coord)
  -0.40041  -0.21769  -0.11745  -0.08211
 kpt#   8, nband=  4, wtk=  0.09600, kpt= -0.3000  0.8000  0.6000 (reduced coord)
  -0.42339  -0.18530  -0.09252  -0.04895
 kpt#   9, nband=  4, wtk=  0.09600, kpt= -0.1000  0.8000  0.6000 (reduced coord)
  -0.42339  -0.18530  -0.09252  -0.04895
 kpt#  10, nband=  4, wtk=  0.04800, kpt=  0.5000  1.0000  0.6000 (reduced coord)
  -0.38290  -0.24180  -0.11129  -0.09438
 kpt#  11, nband=  4, wtk=  0.09600, kpt= -0.3000  1.0000  0.6000 (reduced coord)
  -0.40542  -0.20775  -0.09709  -0.08372
 kpt#  12, nband=  4, wtk=  0.04800, kpt= -0.1000  1.0000  0.6000 (reduced coord)
  -0.41633  -0.21182  -0.06346  -0.05266
 kpt#  13, nband=  4, wtk=  0.04800, kpt= -0.3000  0.2000  0.6000 (reduced coord)
  -0.38100  -0.23797  -0.13261  -0.10082
 kpt#  14, nband=  4, wtk=  0.01600, kpt=  0.3000  0.8000  0.8000 (reduced coord)
  -0.39865  -0.23092  -0.11087  -0.06796
 kpt#  15, nband=  4, wtk=  0.04800, kpt=  0.5000  0.8000  0.8000 (reduced coord)
  -0.40858  -0.21135  -0.11921  -0.04752
 kpt#  16, nband=  4, wtk=  0.04800, kpt= -0.3000  0.8000  0.8000 (reduced coord)
  -0.44109  -0.14724  -0.06221  -0.02291
 kpt#  17, nband=  4, wtk=  0.04800, kpt=  0.5000  1.0000  0.8000 (reduced coord)
  -0.39865  -0.23092  -0.11087  -0.06796
 kpt#  18, nband=  4, wtk=  0.04800, kpt= -0.3000  1.0000  0.8000 (reduced coord)
  -0.43187  -0.16052  -0.07001  -0.06371
 kpt#  19, nband=  4, wtk=  0.00800, kpt=  0.5000  1.0000  1.0000 (reduced coord)
  -0.40574  -0.24359  -0.04468  -0.04468
 Total charge density [el/Bohr^3]
,     Maximum=    9.0520E-02  at reduced coord.    0.2000    0.2000    0.4667
,Next maximum=    9.0520E-02  at reduced coord.    0.1333    0.2000    0.4667
,     Minimum=    2.4886E-03  at reduced coord.    0.7333    0.7333    0.7333
,Next minimum=    2.4886E-03  at reduced coord.    0.8000    0.7333    0.7333
,  Integrated=    8.0000E+00

================================================================================
== DATASET  4 ==================================================================
-   nproc =    1

 mkfilename : getwfk/=0, take file _WFK from output of DATASET   2.

 mkfilename : getwfq/=0, take file _WFQ from output of DATASET   3.

 Exchange-correlation functional for the present dataset will be:
  LDA: old Teter (4/91) fit to Ceperley-Alder data - ixc=3

 Real(R)+Recip(G) space primitive vectors, cartesian coordinates (Bohr,Bohr^-1):
 R(1)=  0.0000000  5.3000000  5.3000000  G(1)= -0.0943396  0.0943396  0.0943396
 R(2)=  5.3000000  0.0000000  5.3000000  G(2)=  0.0943396 -0.0943396  0.0943396
 R(3)=  5.3000000  5.3000000  0.0000000  G(3)=  0.0943396  0.0943396 -0.0943396
 Unit cell volume ucvol=  2.9775400E+02 bohr^3
 Angles (23,13,12)=  6.00000000E+01  6.00000000E+01  6.00000000E+01 degrees
 setup1 : take into account q-point for computing boxcut.

 getcut: wavevector=  0.0000  0.5000  0.5000  ngfft=  15  15  15
         ecut(hartree)=      4.000   => boxcut(ratio)=   1.93214

--- Pseudopotential description ------------------------------------------------
- pspini: atom type   1  psp file is /home/buildbot/ABINIT/buda_gcc47_cuda/trunk_7.10.4-training/tests/Psps_for_tests/31ga.pspnc
- pspatm: opening atomic psp file    /home/buildbot/ABINIT/buda_gcc47_cuda/trunk_7.10.4-training/tests/Psps_for_tests/31ga.pspnc
-  Troullier-Martins psp for element  Ga        Thu Oct 27 17:36:43 EDT 1994
- 31.00000   3.00000    940714                znucl, zion, pspdat
    1    1    1    0      2001   0.00000      pspcod,pspxc,lmax,lloc,mmax,r2well
    0   6.570  15.885    0   1.9956558        l,e99.0,e99.9,nproj,rcpsp
   0.00000000   0.00000000   0.00000000   0.00000000     rms, ekb1, ekb2, epsatm
    1   2.122   7.249    1   1.9956558        l,e99.0,e99.9,nproj,rcpsp
   0.00000000   0.00000000   0.00000000   0.00000000     rms, ekb1, ekb2, epsatm
    2.57649862033350    0.14924926558032    2.22766011456380   rchrg,fchrg,qchrg
 pspatm: epsatm=   27.06235248
         --- l  ekb(1:nproj) -->
             1    2.537532
 pspatm: atomic psp has been read  and splines computed

- pspini: atom type   2  psp file is /home/buildbot/ABINIT/buda_gcc47_cuda/trunk_7.10.4-training/tests/Psps_for_tests/33as.pspnc
- pspatm: opening atomic psp file    /home/buildbot/ABINIT/buda_gcc47_cuda/trunk_7.10.4-training/tests/Psps_for_tests/33as.pspnc
-  Troullier-Martins psp for element  As        Thu Oct 27 17:37:14 EDT 1994
- 33.00000   5.00000    940714                znucl, zion, pspdat
    1    1    1    1      2001   0.00000      pspcod,pspxc,lmax,lloc,mmax,r2well
    0   4.772  10.829    1   2.5306160        l,e99.0,e99.9,nproj,rcpsp
   0.00000000   0.00000000   0.00000000   0.00000000     rms, ekb1, ekb2, epsatm
    1   2.745   5.580    0   2.5306160        l,e99.0,e99.9,nproj,rcpsp
   0.00000000   0.00000000   0.00000000   0.00000000     rms, ekb1, ekb2, epsatm
    2.05731715564010    0.36322996461007    2.76014815959125   rchrg,fchrg,qchrg
 pspatm: epsatm=   27.20579911
         --- l  ekb(1:nproj) -->
             0    0.838751
 pspatm: atomic psp has been read  and splines computed

--------------------------------------------------------------------------------

-inwffil : will read wavefunctions from disk file t01o_DS2_WFK
P newkpt: treating      4 bands with npw=     116 for ikpt=   1 by node    0
P newkpt: treating      4 bands with npw=     116 for ikpt=   2 by node    0
P newkpt: treating      4 bands with npw=     114 for ikpt=   3 by node    0
P newkpt: treating      4 bands with npw=     111 for ikpt=   4 by node    0
P newkpt: treating      4 bands with npw=     119 for ikpt=   5 by node    0
P newkpt: treating      4 bands with npw=     119 for ikpt=   6 by node    0
P newkpt: treating      4 bands with npw=     115 for ikpt=   7 by node    0
P newkpt: treating      4 bands with npw=     113 for ikpt=   8 by node    0
P newkpt: treating      4 bands with npw=     116 for ikpt=   9 by node    0
P newkpt: treating      4 bands with npw=     114 for ikpt=  10 by node    0
P newkpt: treating      4 bands with npw=     107 for ikpt=  11 by node    0
P newkpt: treating      4 bands with npw=     116 for ikpt=  12 by node    0
P newkpt: treating      4 bands with npw=     114 for ikpt=  13 by node    0
P newkpt: treating      4 bands with npw=     114 for ikpt=  14 by node    0
P newkpt: treating      4 bands with npw=     113 for ikpt=  15 by node    0
P newkpt: treating      4 bands with npw=     114 for ikpt=  16 by node    0
P newkpt: treating      4 bands with npw=     115 for ikpt=  17 by node    0
P newkpt: treating      4 bands with npw=     112 for ikpt=  18 by node    0
P newkpt: treating      4 bands with npw=     120 for ikpt=  19 by node    0


 ==>  initialize data related to q vector <== 

 The list of irreducible perturbations for this q vector is:
    1)    idir= 1    ipert=   1
    2)    idir= 2    ipert=   1
    3)    idir= 1    ipert=   2
    4)    idir= 2    ipert=   2

================================================================================

 The perturbation idir=   3  ipert=   1 is
 symmetric of a previously calculated perturbation.
 So, its SCF calculation is not needed.


 The perturbation idir=   3  ipert=   2 is
 symmetric of a previously calculated perturbation.
 So, its SCF calculation is not needed.


--------------------------------------------------------------------------------
 Perturbation wavevector (in red.coord.)   0.000000  0.500000  0.500000
 Perturbation : displacement of atom   1   along direction   1
 Found     2 symmetries that leave the perturbation invariant.
 symkpt : not enough symmetry to change the number of k points.

--------------------------------------------------------------------------------

-inwffil : will read wavefunctions from disk file t01o_DS2_WFK
P newkpt: treating      4 bands with npw=     116 for ikpt=   1 by node    0
P newkpt: treating      4 bands with npw=     116 for ikpt=   2 by node    0
P newkpt: treating      4 bands with npw=     114 for ikpt=   3 by node    0
P newkpt: treating      4 bands with npw=     111 for ikpt=   4 by node    0
P newkpt: treating      4 bands with npw=     119 for ikpt=   5 by node    0
P newkpt: treating      4 bands with npw=     119 for ikpt=   6 by node    0
P newkpt: treating      4 bands with npw=     115 for ikpt=   7 by node    0
P newkpt: treating      4 bands with npw=     113 for ikpt=   8 by node    0
P newkpt: treating      4 bands with npw=     116 for ikpt=   9 by node    0
P newkpt: treating      4 bands with npw=     114 for ikpt=  10 by node    0
P newkpt: treating      4 bands with npw=     107 for ikpt=  11 by node    0
P newkpt: treating      4 bands with npw=     116 for ikpt=  12 by node    0
P newkpt: treating      4 bands with npw=     114 for ikpt=  13 by node    0
P newkpt: treating      4 bands with npw=     114 for ikpt=  14 by node    0
P newkpt: treating      4 bands with npw=     113 for ikpt=  15 by node    0
P newkpt: treating      4 bands with npw=     114 for ikpt=  16 by node    0
P newkpt: treating      4 bands with npw=     115 for ikpt=  17 by node    0
P newkpt: treating      4 bands with npw=     112 for ikpt=  18 by node    0
P newkpt: treating      4 bands with npw=     120 for ikpt=  19 by node    0

--------------------------------------------------------------------------------

-inwffil : will read wavefunctions from disk file t01o_DS3_WFQ
P newkpt: treating      4 bands with npw=     114 for ikpt=   1 by node    0
P newkpt: treating      4 bands with npw=     114 for ikpt=   2 by node    0
P newkpt: treating      4 bands with npw=     114 for ikpt=   3 by node    0
P newkpt: treating      4 bands with npw=     111 for ikpt=   4 by node    0
P newkpt: treating      4 bands with npw=     114 for ikpt=   5 by node    0
P newkpt: treating      4 bands with npw=     112 for ikpt=   6 by node    0
P newkpt: treating      4 bands with npw=     115 for ikpt=   7 by node    0
P newkpt: treating      4 bands with npw=     116 for ikpt=   8 by node    0
P newkpt: treating      4 bands with npw=     116 for ikpt=   9 by node    0
P newkpt: treating      4 bands with npw=     114 for ikpt=  10 by node    0
P newkpt: treating      4 bands with npw=     114 for ikpt=  11 by node    0
P newkpt: treating      4 bands with npw=     111 for ikpt=  12 by node    0
P newkpt: treating      4 bands with npw=     107 for ikpt=  13 by node    0
P newkpt: treating      4 bands with npw=     115 for ikpt=  14 by node    0
P newkpt: treating      4 bands with npw=     113 for ikpt=  15 by node    0
P newkpt: treating      4 bands with npw=     116 for ikpt=  16 by node    0
P newkpt: treating      4 bands with npw=     115 for ikpt=  17 by node    0
P newkpt: treating      4 bands with npw=     119 for ikpt=  18 by node    0
P newkpt: treating      4 bands with npw=     120 for ikpt=  19 by node    0

 Initialisation of the first-order wave-functions :
  ireadwf=   0
P newkpt: treating      4 bands with npw=     114 for ikpt=   1 by node    0
P newkpt: treating      4 bands with npw=     114 for ikpt=   2 by node    0
P newkpt: treating      4 bands with npw=     114 for ikpt=   3 by node    0
P newkpt: treating      4 bands with npw=     111 for ikpt=   4 by node    0
P newkpt: treating      4 bands with npw=     114 for ikpt=   5 by node    0
P newkpt: treating      4 bands with npw=     112 for ikpt=   6 by node    0
P newkpt: treating      4 bands with npw=     115 for ikpt=   7 by node    0
P newkpt: treating      4 bands with npw=     116 for ikpt=   8 by node    0
P newkpt: treating      4 bands with npw=     116 for ikpt=   9 by node    0
P newkpt: treating      4 bands with npw=     114 for ikpt=  10 by node    0
P newkpt: treating      4 bands with npw=     114 for ikpt=  11 by node    0
P newkpt: treating      4 bands with npw=     111 for ikpt=  12 by node    0
P newkpt: treating      4 bands with npw=     107 for ikpt=  13 by node    0
P newkpt: treating      4 bands with npw=     115 for ikpt=  14 by node    0
P newkpt: treating      4 bands with npw=     113 for ikpt=  15 by node    0
P newkpt: treating      4 bands with npw=     116 for ikpt=  16 by node    0
P newkpt: treating      4 bands with npw=     115 for ikpt=  17 by node    0
P newkpt: treating      4 bands with npw=     119 for ikpt=  18 by node    0
P newkpt: treating      4 bands with npw=     120 for ikpt=  19 by node    0


     iter   2DEtotal(Ha)        deltaE(Ha) residm    vres2
-ETOT  1   22.381017593434     -1.443E+01 2.454E-01 5.375E+03
 ETOT  2   5.0315393499246     -1.735E+01 7.328E-02 2.499E+02
 ETOT  3   4.2888431100333     -7.427E-01 2.122E-03 1.252E+01
 ETOT  4   4.2570410942319     -3.180E-02 3.831E-05 8.383E-01
 ETOT  5   4.2553775836818     -1.664E-03 3.569E-06 1.706E-02
 ETOT  6   4.2553509475826     -2.664E-05 1.230E-07 1.239E-03
 ETOT  7   4.2553493376977     -1.610E-06 4.172E-09 1.149E-04
 ETOT  8   4.2553491735309     -1.642E-07 4.347E-10 7.195E-06
 ETOT  9   4.2553491612817     -1.225E-08 2.265E-11 2.210E-07
 ETOT 10   4.2553491608949     -3.868E-10 3.857E-13 3.636E-09
 ETOT 11   4.2553491608892     -5.663E-12 1.555E-14 2.257E-10
 ETOT 12   4.2553491608891     -1.350E-13 1.960E-15 9.968E-12

 At SCF step   12   max residual=  1.96E-15 < tolwfr=  2.00E-15 =>converged.
================================================================================

 ----iterations are completed or convergence reached----

 Mean square residual over all n,k,spin=   7.9875E-16; max=  1.9603E-15
   0.1000  0.1000  0.1000    1  1.09570E-15 kpt; spin; max resid(k); each band:
  4.76E-16 1.10E-15 6.94E-16 7.83E-16
   0.3000  0.1000  0.1000    1  1.84196E-15 kpt; spin; max resid(k); each band:
  3.97E-16 1.84E-15 5.75E-16 3.18E-16
   0.5000  0.1000  0.1000    1  1.01864E-15 kpt; spin; max resid(k); each band:
  5.33E-16 3.87E-16 1.02E-15 9.04E-16
  -0.3000  0.1000  0.1000    1  7.19115E-16 kpt; spin; max resid(k); each band:
  3.31E-16 4.13E-16 7.19E-16 2.42E-16
  -0.1000  0.1000  0.1000    1  1.63884E-15 kpt; spin; max resid(k); each band:
  3.64E-16 8.15E-16 4.45E-16 1.64E-15
   0.3000  0.3000  0.1000    1  1.83753E-15 kpt; spin; max resid(k); each band:
  3.62E-16 7.78E-16 1.84E-15 1.68E-15
   0.5000  0.3000  0.1000    1  1.57692E-15 kpt; spin; max resid(k); each band:
  3.29E-16 1.58E-15 4.49E-16 1.23E-15
  -0.3000  0.3000  0.1000    1  1.81866E-15 kpt; spin; max resid(k); each band:
  4.07E-16 5.07E-16 1.82E-15 6.47E-16
  -0.1000  0.3000  0.1000    1  7.23199E-16 kpt; spin; max resid(k); each band:
  2.78E-16 4.31E-16 7.02E-16 7.23E-16
   0.5000  0.5000  0.1000    1  1.96028E-15 kpt; spin; max resid(k); each band:
  2.16E-16 1.96E-15 9.21E-16 8.79E-16
  -0.3000  0.5000  0.1000    1  1.94859E-15 kpt; spin; max resid(k); each band:
  1.89E-15 1.21E-15 3.05E-16 1.95E-15
  -0.1000  0.5000  0.1000    1  1.54980E-15 kpt; spin; max resid(k); each band:
  4.90E-16 1.55E-15 5.69E-16 1.04E-15
  -0.3000 -0.3000  0.1000    1  1.21791E-15 kpt; spin; max resid(k); each band:
  2.26E-16 1.22E-15 4.73E-16 4.39E-16
   0.3000  0.3000  0.3000    1  9.32439E-16 kpt; spin; max resid(k); each band:
  3.15E-16 5.49E-16 9.32E-16 7.81E-16
   0.5000  0.3000  0.3000    1  1.32939E-15 kpt; spin; max resid(k); each band:
  3.46E-16 5.70E-16 4.90E-16 1.33E-15
  -0.3000  0.3000  0.3000    1  1.06093E-15 kpt; spin; max resid(k); each band:
  4.70E-16 1.06E-15 4.84E-16 9.66E-16
   0.5000  0.5000  0.3000    1  7.13969E-16 kpt; spin; max resid(k); each band:
  2.65E-16 5.07E-16 7.14E-16 5.69E-16
  -0.3000  0.5000  0.3000    1  1.90725E-15 kpt; spin; max resid(k); each band:
  1.91E-15 9.79E-16 4.72E-16 4.79E-16
   0.5000  0.5000  0.5000    1  1.28458E-15 kpt; spin; max resid(k); each band:
  4.34E-16 1.28E-15 4.94E-16 1.22E-15

 Thirteen components of 2nd-order total energy (hartree) are
 1,2,3: 0th-order hamiltonian combined with 1st-order wavefunctions
     kin0=   3.04232111E+01 eigvalue=   3.76181129E+00  local=  -8.91371675E+00
 4,5,6: 1st-order hamiltonian combined with 1st and 0th-order wfs
 loc psp =  -6.35022524E+01  Hartree=   8.92677655E+00     xc=  -2.56439305E+00
 note that "loc psp" includes a xc core correction that could be resolved
 7,8,9: eventually, occupation + non-local contributions
    edocc=   0.00000000E+00     enl0=   9.23651093E-01   enl1=  -1.61242804E+00
 1-9 gives the relaxation energy (to be shifted if some occ is /=2.0)
   erelax=  -3.25573403E+01
 10,11,12 Non-relaxation  contributions : frozen-wavefunctions and Ewald
 fr.local=   2.09620638E+01 fr.nonlo=   8.72976139E-01  Ewald=   1.52884093E+01
 13,14 Frozen wf xc core corrections (1) and (2)
 frxc 1  =  -7.18433955E+00  frxc 2 =   6.87357966E+00
 Resulting in :
 2DEtotal=    0.4255349161E+01 Ha. Also 2DEtotal=    0.115793939475E+03 eV
    (2DErelax=   -3.2557340258E+01 Ha. 2DEnonrelax=    3.6812689419E+01 Ha)
    (  non-var. 2DEtotal :    4.2553491874E+00 Ha)


--------------------------------------------------------------------------------
 Perturbation wavevector (in red.coord.)   0.000000  0.500000  0.500000
 Perturbation : displacement of atom   1   along direction   2
 The set of symmetries contains only one element for this perturbation.
 symkpt : not enough symmetry to change the number of k points.

--------------------------------------------------------------------------------

-inwffil : will read wavefunctions from disk file t01o_DS2_WFK
P newkpt: treating      4 bands with npw=     116 for ikpt=   1 by node    0
P newkpt: treating      4 bands with npw=     116 for ikpt=   2 by node    0
P newkpt: treating      4 bands with npw=     114 for ikpt=   3 by node    0
P newkpt: treating      4 bands with npw=     111 for ikpt=   4 by node    0
P newkpt: treating      4 bands with npw=     119 for ikpt=   5 by node    0
P newkpt: treating      4 bands with npw=     119 for ikpt=   6 by node    0
P newkpt: treating      4 bands with npw=     115 for ikpt=   7 by node    0
P newkpt: treating      4 bands with npw=     113 for ikpt=   8 by node    0
P newkpt: treating      4 bands with npw=     116 for ikpt=   9 by node    0
P newkpt: treating      4 bands with npw=     114 for ikpt=  10 by node    0
P newkpt: treating      4 bands with npw=     107 for ikpt=  11 by node    0
P newkpt: treating      4 bands with npw=     116 for ikpt=  12 by node    0
P newkpt: treating      4 bands with npw=     114 for ikpt=  13 by node    0
P newkpt: treating      4 bands with npw=     114 for ikpt=  14 by node    0
P newkpt: treating      4 bands with npw=     113 for ikpt=  15 by node    0
P newkpt: treating      4 bands with npw=     114 for ikpt=  16 by node    0
P newkpt: treating      4 bands with npw=     115 for ikpt=  17 by node    0
P newkpt: treating      4 bands with npw=     112 for ikpt=  18 by node    0
P newkpt: treating      4 bands with npw=     120 for ikpt=  19 by node    0

--------------------------------------------------------------------------------

-inwffil : will read wavefunctions from disk file t01o_DS3_WFQ
P newkpt: treating      4 bands with npw=     114 for ikpt=   1 by node    0
P newkpt: treating      4 bands with npw=     114 for ikpt=   2 by node    0
P newkpt: treating      4 bands with npw=     114 for ikpt=   3 by node    0
P newkpt: treating      4 bands with npw=     111 for ikpt=   4 by node    0
P newkpt: treating      4 bands with npw=     114 for ikpt=   5 by node    0
P newkpt: treating      4 bands with npw=     112 for ikpt=   6 by node    0
P newkpt: treating      4 bands with npw=     115 for ikpt=   7 by node    0
P newkpt: treating      4 bands with npw=     116 for ikpt=   8 by node    0
P newkpt: treating      4 bands with npw=     116 for ikpt=   9 by node    0
P newkpt: treating      4 bands with npw=     114 for ikpt=  10 by node    0
P newkpt: treating      4 bands with npw=     114 for ikpt=  11 by node    0
P newkpt: treating      4 bands with npw=     111 for ikpt=  12 by node    0
P newkpt: treating      4 bands with npw=     107 for ikpt=  13 by node    0
P newkpt: treating      4 bands with npw=     115 for ikpt=  14 by node    0
P newkpt: treating      4 bands with npw=     113 for ikpt=  15 by node    0
P newkpt: treating      4 bands with npw=     116 for ikpt=  16 by node    0
P newkpt: treating      4 bands with npw=     115 for ikpt=  17 by node    0
P newkpt: treating      4 bands with npw=     119 for ikpt=  18 by node    0
P newkpt: treating      4 bands with npw=     120 for ikpt=  19 by node    0

 Initialisation of the first-order wave-functions :
  ireadwf=   0
P newkpt: treating      4 bands with npw=     114 for ikpt=   1 by node    0
P newkpt: treating      4 bands with npw=     114 for ikpt=   2 by node    0
P newkpt: treating      4 bands with npw=     114 for ikpt=   3 by node    0
P newkpt: treating      4 bands with npw=     111 for ikpt=   4 by node    0
P newkpt: treating      4 bands with npw=     114 for ikpt=   5 by node    0
P newkpt: treating      4 bands with npw=     112 for ikpt=   6 by node    0
P newkpt: treating      4 bands with npw=     115 for ikpt=   7 by node    0
P newkpt: treating      4 bands with npw=     116 for ikpt=   8 by node    0
P newkpt: treating      4 bands with npw=     116 for ikpt=   9 by node    0
P newkpt: treating      4 bands with npw=     114 for ikpt=  10 by node    0
P newkpt: treating      4 bands with npw=     114 for ikpt=  11 by node    0
P newkpt: treating      4 bands with npw=     111 for ikpt=  12 by node    0
P newkpt: treating      4 bands with npw=     107 for ikpt=  13 by node    0
P newkpt: treating      4 bands with npw=     115 for ikpt=  14 by node    0
P newkpt: treating      4 bands with npw=     113 for ikpt=  15 by node    0
P newkpt: treating      4 bands with npw=     116 for ikpt=  16 by node    0
P newkpt: treating      4 bands with npw=     115 for ikpt=  17 by node    0
P newkpt: treating      4 bands with npw=     119 for ikpt=  18 by node    0
P newkpt: treating      4 bands with npw=     120 for ikpt=  19 by node    0


     iter   2DEtotal(Ha)        deltaE(Ha) residm    vres2
-ETOT  1   42.552859692630      2.207E-01 1.257E-01 1.684E+04
 ETOT  2   8.6884199441924     -3.386E+01 5.949E-02 7.518E+02
 ETOT  3   7.0565703391106     -1.632E+00 3.554E-03 2.486E+02
 ETOT  4   6.6739909221097     -3.826E-01 3.255E-04 6.810E+00
 ETOT  5   6.6647560186729     -9.235E-03 1.959E-05 1.490E-01
 ETOT  6   6.6645254146678     -2.306E-04 2.231E-07 4.205E-03
 ETOT  7   6.6645175907708     -7.824E-06 1.498E-08 8.367E-05
 ETOT  8   6.6645174271382     -1.636E-07 6.034E-10 7.903E-06
 ETOT  9   6.6645174069615     -2.018E-08 3.883E-11 3.988E-07
 ETOT 10   6.6645174062879     -6.736E-10 1.453E-12 1.831E-08
 ETOT 11   6.6645174062613     -2.656E-11 6.957E-14 1.504E-09
 ETOT 12   6.6645174062591     -2.260E-12 4.276E-15 2.007E-11
 ETOT 13   6.6645174062591      2.842E-14 1.984E-15 2.947E-12

 At SCF step   13   max residual=  1.98E-15 < tolwfr=  2.00E-15 =>converged.
================================================================================

 ----iterations are completed or convergence reached----

 Mean square residual over all n,k,spin=   1.0831E-15; max=  1.9837E-15
   0.1000  0.1000  0.1000    1  1.34316E-15 kpt; spin; max resid(k); each band:
  1.00E-15 1.34E-15 4.37E-16 1.14E-15
   0.3000  0.1000  0.1000    1  1.42160E-15 kpt; spin; max resid(k); each band:
  9.73E-16 1.04E-15 1.42E-15 1.11E-15
   0.5000  0.1000  0.1000    1  1.96904E-15 kpt; spin; max resid(k); each band:
  7.00E-16 1.97E-15 1.95E-16 1.97E-15
  -0.3000  0.1000  0.1000    1  1.45827E-15 kpt; spin; max resid(k); each band:
  7.86E-16 1.34E-15 2.89E-16 1.46E-15
  -0.1000  0.1000  0.1000    1  1.28529E-15 kpt; spin; max resid(k); each band:
  9.93E-16 1.29E-15 9.91E-16 6.66E-16
   0.3000  0.3000  0.1000    1  1.93930E-15 kpt; spin; max resid(k); each band:
  1.94E-15 6.67E-16 1.43E-15 1.06E-15
   0.5000  0.3000  0.1000    1  1.68747E-15 kpt; spin; max resid(k); each band:
  1.69E-15 9.44E-16 3.15E-16 8.97E-16
  -0.3000  0.3000  0.1000    1  1.77548E-15 kpt; spin; max resid(k); each band:
  2.52E-16 3.05E-16 2.20E-16 1.78E-15
  -0.1000  0.3000  0.1000    1  1.53787E-15 kpt; spin; max resid(k); each band:
  8.06E-16 2.50E-16 3.11E-16 1.54E-15
   0.5000  0.5000  0.1000    1  1.96643E-15 kpt; spin; max resid(k); each band:
  1.38E-15 1.27E-15 1.97E-15 1.79E-16
  -0.3000  0.5000  0.1000    1  1.96820E-15 kpt; spin; max resid(k); each band:
  1.71E-15 8.02E-16 3.22E-16 1.97E-15
  -0.1000  0.5000  0.1000    1  1.43786E-15 kpt; spin; max resid(k); each band:
  3.01E-16 1.19E-15 6.93E-16 1.44E-15
  -0.3000 -0.3000  0.1000    1  1.98366E-15 kpt; spin; max resid(k); each band:
  1.98E-15 9.08E-16 6.32E-16 1.68E-15
   0.3000  0.3000  0.3000    1  1.89895E-15 kpt; spin; max resid(k); each band:
  9.57E-16 1.18E-15 1.90E-15 1.84E-15
   0.5000  0.3000  0.3000    1  1.68376E-15 kpt; spin; max resid(k); each band:
  7.71E-16 9.08E-16 1.68E-15 1.29E-15
  -0.3000  0.3000  0.3000    1  1.21031E-15 kpt; spin; max resid(k); each band:
  5.56E-16 1.21E-15 5.15E-16 4.80E-16
   0.5000  0.5000  0.3000    1  1.70125E-15 kpt; spin; max resid(k); each band:
  1.65E-15 1.13E-15 1.70E-15 2.80E-16
  -0.3000  0.5000  0.3000    1  1.97660E-15 kpt; spin; max resid(k); each band:
  1.27E-15 7.91E-16 1.98E-15 1.89E-15
   0.5000  0.5000  0.5000    1  1.72521E-15 kpt; spin; max resid(k); each band:
  2.44E-16 1.73E-15 1.09E-15 1.38E-15

 Thirteen components of 2nd-order total energy (hartree) are
 1,2,3: 0th-order hamiltonian combined with 1st-order wavefunctions
     kin0=   3.11848354E+01 eigvalue=   4.04990608E+00  local=  -9.02949863E+00
 4,5,6: 1st-order hamiltonian combined with 1st and 0th-order wfs
 loc psp =  -6.97638788E+01  Hartree=   1.09059083E+01     xc=  -2.37152266E+00
 note that "loc psp" includes a xc core correction that could be resolved
 7,8,9: eventually, occupation + non-local contributions
    edocc=   0.00000000E+00     enl0=   9.28011359E-01   enl1=  -1.57140089E+00
 1-9 gives the relaxation energy (to be shifted if some occ is /=2.0)
   erelax=  -3.56676397E+01
 10,11,12 Non-relaxation  contributions : frozen-wavefunctions and Ewald
 fr.local=   2.09620638E+01 fr.nonlo=   8.72976139E-01  Ewald=   2.08079552E+01
 13,14 Frozen wf xc core corrections (1) and (2)
 frxc 1  =  -7.18441773E+00  frxc 2 =   6.87357966E+00
 Resulting in :
 2DEtotal=    0.6664517406E+01 Ha. Also 2DEtotal=    0.181350741383E+03 eV
    (2DErelax=   -3.5667639732E+01 Ha. 2DEnonrelax=    4.2332157138E+01 Ha)
    (  non-var. 2DEtotal :    6.6645173179E+00 Ha)


--------------------------------------------------------------------------------
 Perturbation wavevector (in red.coord.)   0.000000  0.500000  0.500000
 Perturbation : displacement of atom   2   along direction   1
 Found     2 symmetries that leave the perturbation invariant.
 symkpt : not enough symmetry to change the number of k points.

--------------------------------------------------------------------------------

-inwffil : will read wavefunctions from disk file t01o_DS2_WFK
P newkpt: treating      4 bands with npw=     116 for ikpt=   1 by node    0
P newkpt: treating      4 bands with npw=     116 for ikpt=   2 by node    0
P newkpt: treating      4 bands with npw=     114 for ikpt=   3 by node    0
P newkpt: treating      4 bands with npw=     111 for ikpt=   4 by node    0
P newkpt: treating      4 bands with npw=     119 for ikpt=   5 by node    0
P newkpt: treating      4 bands with npw=     119 for ikpt=   6 by node    0
P newkpt: treating      4 bands with npw=     115 for ikpt=   7 by node    0
P newkpt: treating      4 bands with npw=     113 for ikpt=   8 by node    0
P newkpt: treating      4 bands with npw=     116 for ikpt=   9 by node    0
P newkpt: treating      4 bands with npw=     114 for ikpt=  10 by node    0
P newkpt: treating      4 bands with npw=     107 for ikpt=  11 by node    0
P newkpt: treating      4 bands with npw=     116 for ikpt=  12 by node    0
P newkpt: treating      4 bands with npw=     114 for ikpt=  13 by node    0
P newkpt: treating      4 bands with npw=     114 for ikpt=  14 by node    0
P newkpt: treating      4 bands with npw=     113 for ikpt=  15 by node    0
P newkpt: treating      4 bands with npw=     114 for ikpt=  16 by node    0
P newkpt: treating      4 bands with npw=     115 for ikpt=  17 by node    0
P newkpt: treating      4 bands with npw=     112 for ikpt=  18 by node    0
P newkpt: treating      4 bands with npw=     120 for ikpt=  19 by node    0

--------------------------------------------------------------------------------

-inwffil : will read wavefunctions from disk file t01o_DS3_WFQ
P newkpt: treating      4 bands with npw=     114 for ikpt=   1 by node    0
P newkpt: treating      4 bands with npw=     114 for ikpt=   2 by node    0
P newkpt: treating      4 bands with npw=     114 for ikpt=   3 by node    0
P newkpt: treating      4 bands with npw=     111 for ikpt=   4 by node    0
P newkpt: treating      4 bands with npw=     114 for ikpt=   5 by node    0
P newkpt: treating      4 bands with npw=     112 for ikpt=   6 by node    0
P newkpt: treating      4 bands with npw=     115 for ikpt=   7 by node    0
P newkpt: treating      4 bands with npw=     116 for ikpt=   8 by node    0
P newkpt: treating      4 bands with npw=     116 for ikpt=   9 by node    0
P newkpt: treating      4 bands with npw=     114 for ikpt=  10 by node    0
P newkpt: treating      4 bands with npw=     114 for ikpt=  11 by node    0
P newkpt: treating      4 bands with npw=     111 for ikpt=  12 by node    0
P newkpt: treating      4 bands with npw=     107 for ikpt=  13 by node    0
P newkpt: treating      4 bands with npw=     115 for ikpt=  14 by node    0
P newkpt: treating      4 bands with npw=     113 for ikpt=  15 by node    0
P newkpt: treating      4 bands with npw=     116 for ikpt=  16 by node    0
P newkpt: treating      4 bands with npw=     115 for ikpt=  17 by node    0
P newkpt: treating      4 bands with npw=     119 for ikpt=  18 by node    0
P newkpt: treating      4 bands with npw=     120 for ikpt=  19 by node    0

 Initialisation of the first-order wave-functions :
  ireadwf=   0
P newkpt: treating      4 bands with npw=     114 for ikpt=   1 by node    0
P newkpt: treating      4 bands with npw=     114 for ikpt=   2 by node    0
P newkpt: treating      4 bands with npw=     114 for ikpt=   3 by node    0
P newkpt: treating      4 bands with npw=     111 for ikpt=   4 by node    0
[...]
  
   1    2   1    1        -2.9306885287         0.5368909596
   1    2   2    1        -1.4653442644         0.2684454798
   1    2   3    1        -1.4653442644         0.2684454798
   1    2   1    2         4.9680846906        -0.0860953166
   1    2   2    2         2.4840423453        -0.0430476583
   1    2   3    2         2.4840423453        -0.0430476583
  
   2    2   1    1        -1.4653442644         0.2684454798
   2    2   2    1        -0.0000000000        -0.0000000000
   2    2   3    1        -1.4653442644         0.2684454798
   2    2   1    2         2.4840423453        -0.0430476583
   2    2   2    2         6.4063748356        -0.1291429749
   2    2   3    2         3.9223324903        -0.0860953166
  
   3    2   1    1        -1.4653442644         0.2684454798
   3    2   2    1        -1.4653442644         0.2684454798
   3    2   3    1        -0.0000000000        -0.0000000000
   3    2   1    2         2.4840423453        -0.0430476583
   3    2   2    2         3.9223324903        -0.0860953166
   3    2   3    2         6.4063748356        -0.1291429749
  
  
  Dynamical matrix, in cartesian coordinates,
   if specified in the inputs, asr has been imposed
     j1       j2             matrix element
  dir pert dir pert     real part    imaginary part
  
   1    1   1    1         0.1485450700         0.0024224017
   1    1   2    1         0.0000000000         0.0000000000
   1    1   3    1         0.0000000000         0.0000000000
   1    1   1    2         0.0000000000         0.0000000000
   1    1   2    2        -0.0000000000        -0.0000000000
   1    1   3    2        -0.0000000000         0.0000000000
  
   2    1   1    1         0.0000000000         0.0000000000
   2    1   2    1         0.0739108542         0.0012112008
   2    1   3    1         0.0000000000         0.0000000000
   2    1   1    2        -0.0000000000        -0.0000000000
   2    1   2    2         0.0000000000         0.0000000000
   2    1   3    2        -0.0541254798        -0.0096515436
  
   3    1   1    1         0.0000000000         0.0000000000
   3    1   2    1        -0.0000000000         0.0000000000
   3    1   3    1         0.0739108542         0.0012112008
   3    1   1    2        -0.0000000000         0.0000000000
   3    1   2    2        -0.0541254798        -0.0096515436
   3    1   3    2         0.0000000000         0.0000000000
  
   1    2   1    1         0.0000000000        -0.0000000000
   1    2   2    1        -0.0000000000         0.0000000000
   1    2   3    1        -0.0000000000         0.0000000000
   1    2   1    2         0.1396344781        -0.0030649810
   1    2   2    2         0.0000000000         0.0000000000
   1    2   3    2        -0.0000000000        -0.0000000000
  
   2    2   1    1        -0.0000000000         0.0000000000
   2    2   2    1         0.0000000000        -0.0000000000
   2    2   3    1        -0.0521660471         0.0095566209
   2    2   1    2         0.0000000000         0.0000000000
   2    2   2    2         0.0884315538        -0.0015324905
   2    2   3    2         0.0000000000        -0.0000000000
  
   3    2   1    1        -0.0000000000        -0.0000000000
   3    2   2    1        -0.0521660471         0.0095566209
   3    2   3    1         0.0000000000        -0.0000000000
   3    2   1    2         0.0000000000         0.0000000000
   3    2   2    2         0.0000000000        -0.0000000000
   3    2   3    2         0.0884315538        -0.0015324905
 
  Phonon wavevector (reduced coordinates) :  0.00000  0.50000  0.50000
 Phonon energies in Hartree :
   4.508645E-04  4.508645E-04  1.011143E-03  1.012806E-03  1.012806E-03
   1.081111E-03
 Phonon frequencies in cm-1    :
-  9.895332E+01  9.895332E+01  2.219203E+02  2.222853E+02  2.222853E+02
-  2.372765E+02

== END DATASET(S) ==============================================================
================================================================================
  
 -outvars: echo values of variables after computation  --------
            acell      1.0600000000E+01  1.0600000000E+01  1.0600000000E+01 Bohr
              amu      6.97200000E+01  7.49216000E+01
      chksymbreak           0
             ecut      4.00000000E+00 Hartree
           etotal1    -1.0708215594E+01
           etotal4     6.6540730581E+00
            fcart1    -0.0000000000E+00 -0.0000000000E+00 -0.0000000000E+00
                      -0.0000000000E+00 -0.0000000000E+00 -0.0000000000E+00
            fcart4     0.0000000000E+00  0.0000000000E+00  0.0000000000E+00
                       0.0000000000E+00  0.0000000000E+00  0.0000000000E+00
-          fftalg         112
           getden1          0
           getden2          1
           getden3          1
           getden4          0
           getwfk1          0
           getwfk2          1
           getwfk3          2
           getwfk4          2
           getwfq1          0
           getwfq2          0
           getwfq3          0
           getwfq4          3
             iscf1          7
             iscf2         -2
             iscf3         -2
             iscf4          7
           istwfk2       0    0    0    0    0    0    0    0    0    0
                         0    0    0    0    0    0    0    0    1
           istwfk4       0    0    0    0    0    0    0    0    0    0
                         0    0    0    0    0    0    0    0    1
              ixc           3
           jdtset        1    2    3    4
              kpt1     2.50000000E-01  2.50000000E-01  2.50000000E-01
                       2.50000000E-01  5.00000000E-01  5.00000000E-01
              kpt2     1.00000000E-01  1.00000000E-01  1.00000000E-01
                       3.00000000E-01  1.00000000E-01  1.00000000E-01
                       5.00000000E-01  1.00000000E-01  1.00000000E-01
                      -3.00000000E-01  1.00000000E-01  1.00000000E-01
                      -1.00000000E-01  1.00000000E-01  1.00000000E-01
                       3.00000000E-01  3.00000000E-01  1.00000000E-01
                       5.00000000E-01  3.00000000E-01  1.00000000E-01
                      -3.00000000E-01  3.00000000E-01  1.00000000E-01
                      -1.00000000E-01  3.00000000E-01  1.00000000E-01
                       5.00000000E-01  5.00000000E-01  1.00000000E-01
                      -3.00000000E-01  5.00000000E-01  1.00000000E-01
                      -1.00000000E-01  5.00000000E-01  1.00000000E-01
                      -3.00000000E-01 -3.00000000E-01  1.00000000E-01
                       3.00000000E-01  3.00000000E-01  3.00000000E-01
                       5.00000000E-01  3.00000000E-01  3.00000000E-01
                      -3.00000000E-01  3.00000000E-01  3.00000000E-01
                       5.00000000E-01  5.00000000E-01  3.00000000E-01
                      -3.00000000E-01  5.00000000E-01  3.00000000E-01
                       5.00000000E-01  5.00000000E-01  5.00000000E-01
              kpt3     1.00000000E-01  1.00000000E-01  1.00000000E-01
                       3.00000000E-01  1.00000000E-01  1.00000000E-01
                       5.00000000E-01  1.00000000E-01  1.00000000E-01
                      -3.00000000E-01  1.00000000E-01  1.00000000E-01
                      -1.00000000E-01  1.00000000E-01  1.00000000E-01
                       3.00000000E-01  3.00000000E-01  1.00000000E-01
                       5.00000000E-01  3.00000000E-01  1.00000000E-01
                      -3.00000000E-01  3.00000000E-01  1.00000000E-01
                      -1.00000000E-01  3.00000000E-01  1.00000000E-01
                       5.00000000E-01  5.00000000E-01  1.00000000E-01
                      -3.00000000E-01  5.00000000E-01  1.00000000E-01
                      -1.00000000E-01  5.00000000E-01  1.00000000E-01
                      -3.00000000E-01 -3.00000000E-01  1.00000000E-01
                       3.00000000E-01  3.00000000E-01  3.00000000E-01
                       5.00000000E-01  3.00000000E-01  3.00000000E-01
                      -3.00000000E-01  3.00000000E-01  3.00000000E-01
                       5.00000000E-01  5.00000000E-01  3.00000000E-01
                      -3.00000000E-01  5.00000000E-01  3.00000000E-01
                       5.00000000E-01  5.00000000E-01  5.00000000E-01
              kpt4     1.00000000E-01  1.00000000E-01  1.00000000E-01
                       3.00000000E-01  1.00000000E-01  1.00000000E-01
                       5.00000000E-01  1.00000000E-01  1.00000000E-01
                      -3.00000000E-01  1.00000000E-01  1.00000000E-01
                      -1.00000000E-01  1.00000000E-01  1.00000000E-01
                       3.00000000E-01  3.00000000E-01  1.00000000E-01
                       5.00000000E-01  3.00000000E-01  1.00000000E-01
                      -3.00000000E-01  3.00000000E-01  1.00000000E-01
                      -1.00000000E-01  3.00000000E-01  1.00000000E-01
                       5.00000000E-01  5.00000000E-01  1.00000000E-01
                      -3.00000000E-01  5.00000000E-01  1.00000000E-01
                      -1.00000000E-01  5.00000000E-01  1.00000000E-01
                      -3.00000000E-01 -3.00000000E-01  1.00000000E-01
                       3.00000000E-01  3.00000000E-01  3.00000000E-01
                       5.00000000E-01  3.00000000E-01  3.00000000E-01
                      -3.00000000E-01  3.00000000E-01  3.00000000E-01
                       5.00000000E-01  5.00000000E-01  3.00000000E-01
                      -3.00000000E-01  5.00000000E-01  3.00000000E-01
                       5.00000000E-01  5.00000000E-01  5.00000000E-01
           kptopt1          0
           kptopt2          1
           kptopt3          1
           kptopt4          1
         kptrlatt        5    0    0      0    5    0      0    0    5
          kptrlen1     3.00000000E+01
          kptrlen2     3.74766594E+01
          kptrlen3     3.74766594E+01
          kptrlen4     3.74766594E+01
P           mkmem1          2
P           mkmem2         19
P           mkmem3         19
P           mkmem4         19
P          mkqmem1          2
P          mkqmem2         19
P          mkqmem3         19
P          mkqmem4         19
P          mk1mem1          2
P          mk1mem2         19
P          mk1mem3         19
P          mk1mem4         19
            natom           2
            nband1          4
            nband2          4
            nband3          4
            nband4          4
           nbdbuf1          0
           nbdbuf2          2
           nbdbuf3          2
           nbdbuf4          0
           ndtset           4
            ngfft          15      15      15
             nkpt1          2
             nkpt2         19
             nkpt3         19
             nkpt4         19
             nqpt1          0
             nqpt2          0
             nqpt3          1
             nqpt4          1
             nsym          24
           ntypat           2
              occ1     2.000000  2.000000  2.000000  2.000000
              occ4     2.000000  2.000000  2.000000  2.000000
        optdriver1          0
        optdriver2          0
        optdriver3          0
        optdriver4          1
-          ortalg1         -2
-          ortalg2         -2
-          ortalg3         -2
-          ortalg4          2
           prtden1          1
           prtden2          0
           prtden3          0
           prtden4          0
           prteig           0
              qpt1     0.00000000E+00  0.00000000E+00  0.00000000E+00
              qpt2     0.00000000E+00  0.00000000E+00  0.00000000E+00
              qpt3     0.00000000E+00  5.00000000E-01  5.00000000E-01
              qpt4     0.00000000E+00  5.00000000E-01  5.00000000E-01
          rfatpol1          1       1
          rfatpol2          1       1
          rfatpol3          1       1
          rfatpol4          1       2
            rfdir1          0       0       0
            rfdir2          0       0       0
            rfdir3          0       0       0
            rfdir4          1       1       1
           rfphon1          0
           rfphon2          0
           rfphon3          0
           rfphon4          1
            rprim      0.0000000000E+00  5.0000000000E-01  5.0000000000E-01
                       5.0000000000E-01  0.0000000000E+00  5.0000000000E-01
                       5.0000000000E-01  5.0000000000E-01  0.0000000000E+00
           shiftk      5.00000000E-01  5.00000000E-01  5.00000000E-01
          spgroup         216
           strten1     4.3311335068E-04  4.3311335068E-04  4.3311335068E-04
                       0.0000000000E+00  0.0000000000E+00  0.0000000000E+00
           strten4     0.0000000000E+00  0.0000000000E+00  0.0000000000E+00
                       0.0000000000E+00  0.0000000000E+00  0.0000000000E+00
           symrel      1  0  0   0  1  0   0  0  1       0 -1  1   0 -1  0   1 -1  0
                      -1  0  0  -1  0  1  -1  1  0       0  1 -1   1  0 -1   0  0 -1
                      -1  0  0  -1  1  0  -1  0  1       0 -1  1   1 -1  0   0 -1  0
                       1  0  0   0  0  1   0  1  0       0  1 -1   0  0 -1   1  0 -1
                      -1  0  1  -1  1  0  -1  0  0       0 -1  0   1 -1  0   0 -1  1
                       1  0 -1   0  0 -1   0  1 -1       0  1  0   0  0  1   1  0  0
                       1  0 -1   0  1 -1   0  0 -1       0 -1  0   0 -1  1   1 -1  0
                      -1  0  1  -1  0  0  -1  1  0       0  1  0   1  0  0   0  0  1
                       0  0 -1   0  1 -1   1  0 -1       1 -1  0   0 -1  1   0 -1  0
                       0  0  1   1  0  0   0  1  0      -1  1  0  -1  0  0  -1  0  1
                       0  0  1   0  1  0   1  0  0       1 -1  0   0 -1  0   0 -1  1
                       0  0 -1   1  0 -1   0  1 -1      -1  1  0  -1  0  1  -1  0  0
           tolwfr1     1.00000000E-22
           tolwfr2     1.00000000E-22
           tolwfr3     1.00000000E-22
           tolwfr4     2.00000000E-15
            typat      1  2
-          useylm1          1
-          useylm2          1
-          useylm3          1
-          useylm4          0
-    use_gpu_cuda1          1
-    use_gpu_cuda2          1
-    use_gpu_cuda3          1
-    use_gpu_cuda4          0
-        wfoptalg1         14
-        wfoptalg2         14
-        wfoptalg3         14
-        wfoptalg4          0
              wtk1       0.25000    0.75000
              wtk2       0.01600    0.04800    0.04800    0.04800    0.04800    0.04800
                         0.09600    0.09600    0.09600    0.04800    0.09600    0.04800
                         0.04800    0.01600    0.04800    0.04800    0.04800    0.04800
                         0.00800
              wtk3       0.01600    0.04800    0.04800    0.04800    0.04800    0.04800
                         0.09600    0.09600    0.09600    0.04800    0.09600    0.04800
                         0.04800    0.01600    0.04800    0.04800    0.04800    0.04800
                         0.00800
              wtk4       0.01600    0.04800    0.04800    0.04800    0.04800    0.04800
                         0.09600    0.09600    0.09600    0.04800    0.09600    0.04800
                         0.04800    0.01600    0.04800    0.04800    0.04800    0.04800
                         0.00800
           xangst      0.0000000000E+00  0.0000000000E+00  0.0000000000E+00
                       1.4023196028E+00  1.4023196028E+00  1.4023196028E+00
            xcart      0.0000000000E+00  0.0000000000E+00  0.0000000000E+00
                       2.6500000000E+00  2.6500000000E+00  2.6500000000E+00
             xred      0.0000000000E+00  0.0000000000E+00  0.0000000000E+00
                       2.5000000000E-01  2.5000000000E-01  2.5000000000E-01
            znucl       31.00000   33.00000

================================================================================


- Timing analysis has been suppressed with timopt=0



================================================================================

 Suggested references for the acknowledgment of ABINIT usage.

 The users of ABINIT have little formal obligations with respect to the ABINIT group
 (those specified in the GNU General Public License, http://www.gnu.org/copyleft/gpl.txt).
 However, it is common practice in the scientific literature,
 to acknowledge the efforts of people that have made the research possible.
 In this spirit, please find below suggested citations of work written by ABINIT developers,
 corresponding to implementations inside of ABINIT that you have used in the present run.
 Note also that it will be of great value to readers of publications presenting these results,
 to read papers enabling them to understand the theoretical formalism and details
 of the ABINIT implementation.
 For information on why they are suggested, see also http://www.abinit.org/about/?text=acknowledgments.

 [1] First-principles responses of solids to atomic displacements and homogeneous electric fields:,
 implementation of a conjugate-gradient algorithm. X. Gonze, Phys. Rev. B55, 10337 (1997).
 Comment : Non-vanishing rfphon and/or rfelfd, in the norm-conserving case.

 [2] Dynamical matrices, Born effective charges, dielectric permittivity tensors, and ,
 interatomic force constants from density-functional perturbation theory,
 X. Gonze and C. Lee, Phys. Rev. B55, 10355 (1997).
 Comment : Non-vanishing rfphon and/or rfelfd, in the norm-conserving case.

 [3] ABINIT : First-principles approach of materials and nanosystem properties.
 X. Gonze, B. Amadon, P.-M. Anglade, J.-M. Beuken, F. Bottin, P. Boulanger, F. Bruneval,
 D. Caliste, R. Caracas, M. Cote, T. Deutsch, L. Genovese, Ph. Ghosez, M. Giantomassi
 S. Goedecker, D.R. Hamann, P. Hermet, F. Jollet, G. Jomard, S. Leroux, M. Mancini, S. Mazevet,
 M.J.T. Oliveira, G. Onida, Y. Pouillon, T. Rangel, G.-M. Rignanese, D. Sangalli, R. Shaltaf,
 M. Torrent, M.J. Verstraete, G. Zerah, J.W. Zwanziger
 Computer Phys. Comm. 180, 2582-2615 (2009).
 Comment : the third generic paper describing the ABINIT project.
 Note that a version of this paper, that is not formatted for Computer Phys. Comm. 
 is available at http://www.abinit.org/about/ABINIT_CPC_v10.pdf .
 The licence allows the authors to put it on the Web.

 [4] A brief introduction to the ABINIT software package.
 X. Gonze, G.-M. Rignanese, M. Verstraete, J.-M. Beuken, Y. Pouillon, R. Caracas, F. Jollet,
 M. Torrent, G. Zerah, M. Mikami, Ph. Ghosez, M. Veithen, J.-Y. Raty, V. Olevano, F. Bruneval,
 L. Reining, R. Godby, G. Onida, D.R. Hamann, and D.C. Allan.
 Z. Kristallogr. 220, 558-562 (2005).
 Comment : the second generic paper describing the ABINIT project. Note that this paper
 should be cited especially if you are using the GW part of ABINIT, as several authors
 of this part are not in the list of authors of the first or third paper.
 The .pdf of the latter paper is available at http://www.abinit.org/about/zfk_0505-06_558-562.pdf.
 Note that it should not redistributed (Copyright by Oldenburg Wissenshaftverlag,
 the licence allows the authors to put it on the Web).


 And optionally :

 [5] First-principles computation of material properties : the ABINIT software project. 
 X. Gonze, J.-M. Beuken, R. Caracas, F. Detraux, M. Fuchs, G.-M. Rignanese, L. Sindic,
 M. Verstraete, G. Zerah, F. Jollet, M. Torrent, A. Roy, M. Mikami, Ph. Ghosez, J.-Y. Raty, D.C. Allan.
 Computational Materials Science 25, 478-492 (2002). http://dx.doi.org/10.1016/S0927-0256(02)00325-7
 Comment : the original paper describing the ABINIT project.
-
- Proc.   0 individual time (sec): cpu=          6.3  wall=          6.4

================================================================================

 Calculation completed.
.Delivered   20 WARNINGs and   1 COMMENTs to log file.
+Overall time at end (sec) : cpu=          6.3  wall=          6.4
