
.Version 7.10.4 of ABINIT 
.(MPI version, prepared for a x86_64_linux_gnu4.7 computer) 

.Copyright (C) 1998-2014 ABINIT group . 
 ABINIT comes with ABSOLUTELY NO WARRANTY.
 It is free software, and you are welcome to redistribute it
 under certain conditions (GNU General Public License,
 see ~abinit/COPYING or http://www.gnu.org/copyleft/gpl.txt).

 ABINIT is a project of the Universite Catholique de Louvain,
 Corning Inc. and other collaborators, see ~abinit/doc/developers/contributors.txt .
 Please read ~abinit/doc/users/acknowledgments.html for suggested
 acknowledgments of the ABINIT effort.
 For more information, see http://www.abinit.org .

.Starting date : Wed 11 Mar 2015.
- ( at 11h42 )
  
- input  file    -> t03.in
- output file    -> t03.out
- root for input  files -> t03i
- root for output files -> t03o


 DATASET    1 : magnetic group, Shubnikov type IV
 Fedorov space group R-3 m (#166)
 Magnetic Bravais lattice hR_I (rhombohedral, centered magnetic, #31)
================================================================================
 Values of the parameters that define the memory need for DATASET  1.
   intxc =         0  ionmov =         0    iscf =        17 xclevel =         1
_ lmnmax =        18   lnmax =         6   mband =        28  mffmem =         1
P  mgfft =        32   mkmem =         3 mpssoang=         3     mpw =       277
  mqgrid =      3001   natom =         4    nfft =      8192    nkpt =         3
  nloalg =         4  nspden =         2 nspinor =         1  nsppol =         1
    nsym =        24  n1xccc =         1  ntypat =         2  occopt =         7
 PAW method is used; the additional fine FFT grid is defined by:
   mgfftf=        32    nfftf =      8192
================================================================================
P This job should need less than                       8.725 Mbytes of memory.
  Rough estimation (10% accuracy) of disk space for files :
_ WF disk file :      0.357 Mbytes ; DEN or POT disk file :      0.065 Mbytes.
================================================================================


 DATASET    2 : the space group has not been recognized
================================================================================
 Values of the parameters that define the memory need for DATASET  2.
   intxc =         0  ionmov =         0    iscf =        17 xclevel =         1
  lmnmax =        18   lnmax =         6   mband =        60  mffmem =         1
P  mgfft =        30   mkmem =         8 mpssoang=         3     mpw =       277
  mqgrid =      3001   natom =         4    nfft =      7680    nkpt =         8
  nloalg =         4  nspden =         4 nspinor =         2  nsppol =         1
    nsym =         2  n1xccc =         1  ntypat =         2  occopt =         7
 PAW method is used; the additional fine FFT grid is defined by:
   mgfftf=        32    nfftf =      8192
================================================================================
P This job should need less than                      17.341 Mbytes of memory.
  Rough estimation (10% accuracy) of disk space for files :
_ WF disk file :      2.031 Mbytes ; DEN or POT disk file :      0.065 Mbytes.
================================================================================

--------------------------------------------------------------------------------
------------- Echo of variables that govern the present computation ------------
--------------------------------------------------------------------------------
-
- outvars: echo of selected default values                                      
-   accesswff0 =  0 , fftalg0 =112 , wfoptalg0 = 10
-
- outvars: echo of global parameters not present in the input file              
-  max_nthreads =    0
-
 -outvars: echo values of preprocessed input variables --------
            acell      7.9200000000E+00  7.9200000000E+00  7.9200000000E+00 Bohr
              amu      5.86900000E+01  1.59994000E+01
      chksymbreak           0
           diemix      5.00000000E-01
        diemixmag1     5.00000000E-01
        diemixmag2    -1.00000000E+00
         dmatpawu1       1.00000    0.00000    0.00000    0.00000    0.00000
                         0.00000    1.00000    0.00000    0.00000    0.00000
                         0.00000    0.00000    1.00000    0.00000    0.00000
                         0.00000    0.00000    0.00000    1.00000    0.00000
                         0.00000    0.00000    0.00000    0.00000    1.00000
                         1.00000    0.00000    0.00000    0.00000    0.00000
                         0.00000    1.00000    0.00000    0.00000    0.00000
                         0.00000    0.00000    0.00000    0.00000    0.00000
                         0.00000    0.00000    0.00000    1.00000    0.00000
                         0.00000    0.00000    0.00000    0.00000    0.00000
         dmatpawu2       1.00000    0.00000    0.00000    0.00000    0.00000
                         0.00000    1.00000    0.00000    0.00000    0.00000
                         0.00000    0.00000    1.00000    0.00000    0.00000
                         0.00000    0.00000    0.00000    1.00000    0.00000
                         0.00000    0.00000    0.00000    0.00000    1.00000
                         1.00000    0.00000    0.00000    0.00000    0.00000
                         0.00000    1.00000    0.00000    0.00000    0.00000
                         0.00000    0.00000    0.00000    0.00000    0.00000
                         0.00000    0.00000    0.00000    1.00000    0.00000
                         0.00000    0.00000    0.00000    0.00000    0.00000
                         1.00000    0.00000    0.00000    0.00000    0.00000
                         0.00000    1.00000    0.00000    0.00000    0.00000
                         0.00000    0.00000    1.00000    0.00000    0.00000
                         0.00000    0.00000    0.00000    1.00000    0.00000
                         0.00000    0.00000    0.00000    0.00000    1.00000
                         1.00000    0.00000    0.00000    0.00000    0.00000
                         0.00000    1.00000    0.00000    0.00000    0.00000
                         0.00000    0.00000    0.00000    0.00000    0.00000
                         0.00000    0.00000    0.00000    1.00000    0.00000
                         0.00000    0.00000    0.00000    0.00000    0.00000
             ecut      8.00000000E+00 Hartree
-          fftalg         112
              ixc           7
           jdtset        1    2
            jpawu      3.50000000E-02  0.00000000E+00 Hartree
              kpt1     2.50000000E-01  2.50000000E-01  2.50000000E-01
                      -2.50000000E-01  2.50000000E-01  2.50000000E-01
                      -2.50000000E-01 -2.50000000E-01  2.50000000E-01
              kpt2     2.50000000E-01  2.50000000E-01  2.50000000E-01
                      -2.50000000E-01  2.50000000E-01  2.50000000E-01
                       2.50000000E-01 -2.50000000E-01  2.50000000E-01
                      -2.50000000E-01 -2.50000000E-01  2.50000000E-01
                       2.50000000E-01  2.50000000E-01 -2.50000000E-01
                      -2.50000000E-01  2.50000000E-01 -2.50000000E-01
                       2.50000000E-01 -2.50000000E-01 -2.50000000E-01
                      -2.50000000E-01 -2.50000000E-01 -2.50000000E-01
           kptopt1          1
           kptopt2          4
         kptrlatt        2    0    0      0    2    0      0    0    2
          kptrlen      1.12005714E+01
            lpawu           2      -1
P           mkmem1          3
P           mkmem2          8
            natom           4
            nband1         28
            nband2         60
           ndtset           2
            ngfft1         16      16      32
            ngfft2         16      16      30
          ngfftdg          16      16      32
             nkpt1          3
             nkpt2          8
           nspden1          2
           nspden2          4
          nspinor1          1
          nspinor2          2
            nstep          15
             nsym1         24
             nsym2          2
           ntypat           2
              occ1     2.000000  2.000000  2.000000  2.000000  2.000000  2.000000
                       2.000000  2.000000  2.000000  2.000000  2.000000  2.000000
                       2.000000  2.000000  2.000000  2.000000  2.000000  2.000000
                       2.000000  2.000000  2.000000  2.000000  2.000000  2.000000
                       0.000000  0.000000  0.000000  0.000000
                       2.000000  2.000000  2.000000  2.000000  2.000000  2.000000
                       2.000000  2.000000  2.000000  2.000000  2.000000  2.000000
                       2.000000  2.000000  2.000000  2.000000  2.000000  2.000000
                       2.000000  2.000000  2.000000  2.000000  2.000000  2.000000
                       0.000000  0.000000  0.000000  0.000000
                       2.000000  2.000000  2.000000  2.000000  2.000000  2.000000
                       2.000000  2.000000  2.000000  2.000000  2.000000  2.000000
                       2.000000  2.000000  2.000000  2.000000  2.000000  2.000000
                       2.000000  2.000000  2.000000  2.000000  2.000000  2.000000
                       0.000000  0.000000  0.000000  0.000000
              occ2     1.000000  1.000000  1.000000  1.000000  1.000000  1.000000
                       1.000000  1.000000  1.000000  1.000000  1.000000  1.000000
                       1.000000  1.000000  1.000000  1.000000  1.000000  1.000000
                       1.000000  1.000000  1.000000  1.000000  1.000000  1.000000
                       1.000000  1.000000  1.000000  1.000000  1.000000  1.000000
                       1.000000  1.000000  1.000000  1.000000  1.000000  1.000000
                       1.000000  1.000000  1.000000  1.000000  1.000000  1.000000
                       1.000000  1.000000  1.000000  1.000000  1.000000  1.000000
                       0.000000  0.000000  0.000000  0.000000  0.000000  0.000000
                       0.000000  0.000000  0.000000  0.000000  0.000000  0.000000
                       1.000000  1.000000  1.000000  1.000000  1.000000  1.000000
                       1.000000  1.000000  1.000000  1.000000  1.000000  1.000000
                       1.000000  1.000000  1.000000  1.000000  1.000000  1.000000
                       1.000000  1.000000  1.000000  1.000000  1.000000  1.000000
                       1.000000  1.000000  1.000000  1.000000  1.000000  1.000000
                       1.000000  1.000000  1.000000  1.000000  1.000000  1.000000
                       1.000000  1.000000  1.000000  1.000000  1.000000  1.000000
                       1.000000  1.000000  1.000000  1.000000  1.000000  1.000000
                       0.000000  0.000000  0.000000  0.000000  0.000000  0.000000
                       0.000000  0.000000  0.000000  0.000000  0.000000  0.000000
                       1.000000  1.000000  1.000000  1.000000  1.000000  1.000000
                       1.000000  1.000000  1.000000  1.000000  1.000000  1.000000
                       1.000000  1.000000  1.000000  1.000000  1.000000  1.000000
                       1.000000  1.000000  1.000000  1.000000  1.000000  1.000000
                       1.000000  1.000000  1.000000  1.000000  1.000000  1.000000
                       1.000000  1.000000  1.000000  1.000000  1.000000  1.000000
                       1.000000  1.000000  1.000000  1.000000  1.000000  1.000000
                       1.000000  1.000000  1.000000  1.000000  1.000000  1.000000
                       0.000000  0.000000  0.000000  0.000000  0.000000  0.000000
                       0.000000  0.000000  0.000000  0.000000  0.000000  0.000000
                       1.000000  1.000000  1.000000  1.000000  1.000000  1.000000
                       1.000000  1.000000  1.000000  1.000000  1.000000  1.000000
                       1.000000  1.000000  1.000000  1.000000  1.000000  1.000000
                       1.000000  1.000000  1.000000  1.000000  1.000000  1.000000
                       1.000000  1.000000  1.000000  1.000000  1.000000  1.000000
                       1.000000  1.000000  1.000000  1.000000  1.000000  1.000000
                       1.000000  1.000000  1.000000  1.000000  1.000000  1.000000
                       1.000000  1.000000  1.000000  1.000000  1.000000  1.000000
                       0.000000  0.000000  0.000000  0.000000  0.000000  0.000000
                       0.000000  0.000000  0.000000  0.000000  0.000000  0.000000
                       1.000000  1.000000  1.000000  1.000000  1.000000  1.000000
                       1.000000  1.000000  1.000000  1.000000  1.000000  1.000000
                       1.000000  1.000000  1.000000  1.000000  1.000000  1.000000
                       1.000000  1.000000  1.000000  1.000000  1.000000  1.000000
                       1.000000  1.000000  1.000000  1.000000  1.000000  1.000000
                       1.000000  1.000000  1.000000  1.000000  1.000000  1.000000
                       1.000000  1.000000  1.000000  1.000000  1.000000  1.000000
                       1.000000  1.000000  1.000000  1.000000  1.000000  1.000000
                       0.000000  0.000000  0.000000  0.000000  0.000000  0.000000
                       0.000000  0.000000  0.000000  0.000000  0.000000  0.000000
                       1.000000  1.000000  1.000000  1.000000  1.000000  1.000000
                       1.000000  1.000000  1.000000  1.000000  1.000000  1.000000
                       1.000000  1.000000  1.000000  1.000000  1.000000  1.000000
                       1.000000  1.000000  1.000000  1.000000  1.000000  1.000000
                       1.000000  1.000000  1.000000  1.000000  1.000000  1.000000
                       1.000000  1.000000  1.000000  1.000000  1.000000  1.000000
                       1.000000  1.000000  1.000000  1.000000  1.000000  1.000000
                       1.000000  1.000000  1.000000  1.000000  1.000000  1.000000
                       0.000000  0.000000  0.000000  0.000000  0.000000  0.000000
                       0.000000  0.000000  0.000000  0.000000  0.000000  0.000000
                       1.000000  1.000000  1.000000  1.000000  1.000000  1.000000
                       1.000000  1.000000  1.000000  1.000000  1.000000  1.000000
                       1.000000  1.000000  1.000000  1.000000  1.000000  1.000000
                       1.000000  1.000000  1.000000  1.000000  1.000000  1.000000
                       1.000000  1.000000  1.000000  1.000000  1.000000  1.000000
                       1.000000  1.000000  1.000000  1.000000  1.000000  1.000000
                       1.000000  1.000000  1.000000  1.000000  1.000000  1.000000
                       1.000000  1.000000  1.000000  1.000000  1.000000  1.000000
                       0.000000  0.000000  0.000000  0.000000  0.000000  0.000000
                       0.000000  0.000000  0.000000  0.000000  0.000000  0.000000
                       1.000000  1.000000  1.000000  1.000000  1.000000  1.000000
                       1.000000  1.000000  1.000000  1.000000  1.000000  1.000000
                       1.000000  1.000000  1.000000  1.000000  1.000000  1.000000
                       1.000000  1.000000  1.000000  1.000000  1.000000  1.000000
                       1.000000  1.000000  1.000000  1.000000  1.000000  1.000000
                       1.000000  1.000000  1.000000  1.000000  1.000000  1.000000
                       1.000000  1.000000  1.000000  1.000000  1.000000  1.000000
                       1.000000  1.000000  1.000000  1.000000  1.000000  1.000000
                       0.000000  0.000000  0.000000  0.000000  0.000000  0.000000
                       0.000000  0.000000  0.000000  0.000000  0.000000  0.000000
           occopt           7
        pawcpxocc1          1
        pawcpxocc2          2
        pawecutdg      1.00000000E+01 Hartree
           prtden           0
        prtdensph1          1
        prtdensph2          0
           prteig           0
            prtwf           0
            rprim      0.0000000000E+00  5.0000000000E-01  5.0000000000E-01
                       5.0000000000E-01  0.0000000000E+00  5.0000000000E-01
                       1.0000000000E+00  1.0000000000E+00  0.0000000000E+00
           shiftk      5.00000000E-01  5.00000000E-01  5.00000000E-01
          spgroup1        166
          spgroup2          0
           spinat      0.0000000000E+00  0.0000000000E+00  1.0000000000E+00
                       0.0000000000E+00  0.0000000000E+00 -1.0000000000E+00
                       0.0000000000E+00  0.0000000000E+00  0.0000000000E+00
                       0.0000000000E+00  0.0000000000E+00  0.0000000000E+00
           symafm1       1   -1    1   -1    1   -1    1   -1    1   -1
                         1   -1    1   -1    1   -1    1   -1    1   -1
                         1   -1    1   -1
           symafm2       1   -1
           symrel1     1  0  0   0  1  0   0  0  1       1  0  0   0  1  0   0  0  1
                      -1  0  0   0 -1  0   0  0 -1      -1  0  0   0 -1  0   0  0 -1
                       0  1  0   1  0  0   0  0  1       0  1  0   1  0  0   0  0  1
                       0 -1  0  -1  0  0   0  0 -1       0 -1  0  -1  0  0   0  0 -1
                       0 -1  0   1 -1  0   0 -2  1       0 -1  0   1 -1  0   0 -2  1
                       0  1  0  -1  1  0   0  2 -1       0  1  0  -1  1  0   0  2 -1
                       1 -1  0   0 -1  0   0 -2  1       1 -1  0   0 -1  0   0 -2  1
                      -1  1  0   0  1  0   0  2 -1      -1  1  0   0  1  0   0  2 -1
                      -1  1  0  -1  0  0  -2  0  1      -1  1  0  -1  0  0  -2  0  1
                       1 -1  0   1  0  0   2  0 -1       1 -1  0   1  0  0   2  0 -1
                      -1  0  0  -1  1  0  -2  0  1      -1  0  0  -1  1  0  -2  0  1
                       1  0  0   1 -1  0   2  0 -1       1  0  0   1 -1  0   2  0 -1
           symrel2     1  0  0   0  1  0   0  0  1       1  0  0   0  1  0   0  0  1
            tnons1     0.0000000  0.0000000  0.0000000     0.0000000  0.0000000  0.5000000
                       0.0000000  0.0000000  0.0000000     0.0000000  0.0000000  0.5000000
                       0.0000000  0.0000000  0.0000000     0.0000000  0.0000000  0.5000000
                       0.0000000  0.0000000  0.0000000     0.0000000  0.0000000  0.5000000
                       0.0000000  0.0000000  0.0000000     0.0000000  0.0000000  0.5000000
                       0.0000000  0.0000000  0.0000000     0.0000000  0.0000000  0.5000000
                       0.0000000  0.0000000  0.0000000     0.0000000  0.0000000  0.5000000
                       0.0000000  0.0000000  0.0000000     0.0000000  0.0000000  0.5000000
                       0.0000000  0.0000000  0.0000000     0.0000000  0.0000000  0.5000000
                       0.0000000  0.0000000  0.0000000     0.0000000  0.0000000  0.5000000
                       0.0000000  0.0000000  0.0000000     0.0000000  0.0000000  0.5000000
                       0.0000000  0.0000000  0.0000000     0.0000000  0.0000000  0.5000000
            tnons2     0.0000000  0.0000000  0.0000000     0.0000000  0.0000000  0.5000000
           tolvrs      1.00000000E-07
           tsmear      1.50000000E-02 Hartree
            typat      1  1  2  2
            upawu      3.00000000E-01  0.00000000E+00 Hartree
        usedmatpu           3
          usepawu           1
-          useylm           1
-    use_gpu_cuda1          1
-    use_gpu_cuda2          0
-        wfoptalg1         14
-        wfoptalg2         10
              wtk1       0.25000    0.50000    0.25000
              wtk2       0.12500    0.12500    0.12500    0.12500    0.12500    0.12500
                         0.12500    0.12500
           xangst      0.0000000000E+00  0.0000000000E+00  0.0000000000E+00
                       2.0955417460E+00  2.0955417460E+00  0.0000000000E+00
                       2.0955417460E+00  2.0955417460E+00  2.0955417460E+00
                       4.1910834920E+00  4.1910834920E+00  2.0955417460E+00
            xcart      0.0000000000E+00  0.0000000000E+00  0.0000000000E+00
                       3.9600000000E+00  3.9600000000E+00  0.0000000000E+00
                       3.9600000000E+00  3.9600000000E+00  3.9600000000E+00
                       7.9200000000E+00  7.9200000000E+00  3.9600000000E+00
             xred      0.0000000000E+00  0.0000000000E+00  0.0000000000E+00
                       0.0000000000E+00  0.0000000000E+00  5.0000000000E-01
                       5.0000000000E-01  5.0000000000E-01  2.5000000000E-01
                       5.0000000000E-01  5.0000000000E-01  7.5000000000E-01
            znucl       28.00000    8.00000

================================================================================

 chkinp: Checking input parameters for consistency, jdtset=   1.

 chkinp: Checking input parameters for consistency, jdtset=   2.

================================================================================
== DATASET  1 ==================================================================
-   nproc =    1

 Exchange-correlation functional for the present dataset will be:
  LDA: Perdew-Wang 92 LSD fit to Ceperley-Alder data - ixc=7
 Citation for XC functional:
  J.P.Perdew and Y.Wang, PRB 45, 13244 (1992)

 Real(R)+Recip(G) space primitive vectors, cartesian coordinates (Bohr,Bohr^-1):
 R(1)=  0.0000000  3.9600000  3.9600000  G(1)= -0.1262626  0.1262626  0.1262626
 R(2)=  3.9600000  0.0000000  3.9600000  G(2)=  0.1262626 -0.1262626  0.1262626
 R(3)=  7.9200000  7.9200000  0.0000000  G(3)=  0.0631313  0.0631313 -0.0631313
 Unit cell volume ucvol=  2.4839654E+02 bohr^3
 Angles (23,13,12)=  6.00000000E+01  6.00000000E+01  6.00000000E+01 degrees

 Coarse grid specifications (used for wave-functions):

 getcut: wavevector=  0.0000  0.0000  0.0000  ngfft=  16  16  32
         ecut(hartree)=      8.000   => boxcut(ratio)=   2.24388

 getcut : COMMENT -
  Note that boxcut > 2.2 ; recall that boxcut=Gcut(box)/Gcut(sphere) = 2
  is sufficient for exact treatment of convolution.
  Such a large boxcut is a waste : you could raise ecut
  e.g. ecut=   10.069997 Hartrees makes boxcut=2


 Fine grid specifications (used for densities):

 getcut: wavevector=  0.0000  0.0000  0.0000  ngfft=  16  16  32
         ecut(hartree)=     10.000   => boxcut(ratio)=   2.00699

--- Pseudopotential description ------------------------------------------------
- pspini: atom type   1  psp file is /home/buildbot/ABINIT/buda_gcc47_cuda/trunk_7.10.4-private/tests/Psps_for_tests/28ni.paw
- pspatm: opening atomic psp file    /home/buildbot/ABINIT/buda_gcc47_cuda/trunk_7.10.4-private/tests/Psps_for_tests/28ni.paw
- Paw atomic data for element Ni - Generated by AtomPAW (N. Holzwarth) + AtomPAW2Abinit v3.0.5
- 28.00000  18.00000  20061204                znucl, zion, pspdat
    7    7    2    0       350   0.00000      pspcod,pspxc,lmax,lloc,mmax,r2well
 Pseudopotential format is: paw3
 basis_size (lnmax)=  5 (lmn_size= 13), orbitals=   0   0   1   1   2
 Spheres core radius: rc_sph= 2.30000000
 3 radial meshes are used:
  - mesh 1: r(i)=AA*exp(BB*(i-2)), size= 350 , AA= 0.11804E-04 BB= 0.35000E-01
  - mesh 2: r(i)=step*(i-1), size= 921 , step= 0.25000E-02
  - mesh 3: r(i)=AA*exp(BB*(i-2)), size= 391 , AA= 0.11804E-04 BB= 0.35000E-01
 Shapefunction is SIN type: shapef(r)=[sin(pi*r/rshp)/(pi*r/rshp)]**2
 Radius for shape functions = sphere core radius
 Radial grid used for partial waves is grid 1
 Radial grid used for projectors is grid  2
 Radial grid used for (t)core density is grid 1
 Radial grid used for Vloc is grid 3

 pawpsp_calc: WARNING -
  Atomic data could produce inaccurate results:
    Wavefunctions and pseudo-wavefunctions should
    be given on a radial mesh larger than the PAW
    spheres (at least 2 additional points) !
  Action: check your pseudopotential file.
 Compensation charge density is taken into account in XC energy/potential
 pspatm: atomic psp has been read  and splines computed

- pspini: atom type   2  psp file is /home/buildbot/ABINIT/buda_gcc47_cuda/trunk_7.10.4-private/tests/Psps_for_tests/8o.2.paw
- pspatm: opening atomic psp file    /home/buildbot/ABINIT/buda_gcc47_cuda/trunk_7.10.4-private/tests/Psps_for_tests/8o.2.paw
- Paw atomic data extracted from US-psp (D.Vanderbilt): Oxygen
-  8.00000   6.00000  20050722                znucl, zion, pspdat
    7   11    2    0       489   0.00000      pspcod,pspxc,lmax,lloc,mmax,r2well
 Pseudopotential format is: paw3
 basis_size (lnmax)=  6 (lmn_size= 18), orbitals=   0   0   1   1   2   2
 Spheres core radius: rc_sph= 1.21105161
 4 radial meshes are used:
  - mesh 1: r(i)=AA*[exp(BB*(i-1))-1], size= 489 , AA= 0.30984E-03 BB= 0.16949E-01
  - mesh 2: r(i)=AA*[exp(BB*(i-1))-1], size= 548 , AA= 0.30984E-03 BB= 0.16949E-01
  - mesh 3: r(i)=AA*[exp(BB*(i-1))-1], size= 509 , AA= 0.30984E-03 BB= 0.16949E-01
  - mesh 4: r(i)=AA*[exp(BB*(i-1))-1], size= 613 , AA= 0.30984E-03 BB= 0.16949E-01
 Shapefunction is SIN type: shapef(r)=[sin(pi*r/rshp)/(pi*r/rshp)]**2
 Radius for shape functions = sphere core radius
 Radial grid used for partial waves is grid 1
 Radial grid used for projectors is grid  2
 Radial grid used for (t)core density is grid 3
 Radial grid used for Vloc is grid 4

 pawpsp_calc: WARNING -
  Atomic data could produce inaccurate results:
    Wavefunctions and pseudo-wavefunctions should
    be given on a radial mesh larger than the PAW
    spheres (at least 2 additional points) !
  Action: check your pseudopotential file.
 Compensation charge density is taken into account in XC energy/potential
 pspatm: atomic psp has been read  and splines computed

   5.32753584E+03                                ecore*ucvol(ha*bohr**3)
--------------------------------------------------------------------------------

P newkpt: treating     28 bands with npw=     269 for ikpt=   1 by node    0
P newkpt: treating     28 bands with npw=     268 for ikpt=   2 by node    0
P newkpt: treating     28 bands with npw=     277 for ikpt=   3 by node    0

_setup2: Arith. and geom. avg. npw (full set) are     270.500     270.474


 ******************************************
 LDA+U Method used: FLL
 ******************************************

================================================================================

     iter   Etot(hartree)      deltaE(h)  residm     nres2
 ETOT  1  -373.54096655773    -3.735E+02 2.280E-04 1.641E+01
 ETOT  2  -371.66814242894     1.873E+00 2.140E-07 6.367E+00
 ETOT  3  -370.26121689832     1.407E+00 1.886E-04 5.512E-01
 ETOT  4  -370.52563271836    -2.644E-01 3.743E-04 9.334E-01
 ETOT  5  -370.51731353437     8.319E-03 7.567E-05 1.641E-02
 ETOT  6  -370.51820326302    -8.897E-04 2.991E-06 6.963E-02
 ETOT  7  -370.51768326565     5.200E-04 3.707E-07 2.577E-02
 ETOT  8  -370.51720786186     4.754E-04 3.684E-06 2.944E-04
 ETOT  9  -370.51722347709    -1.562E-05 3.405E-08 2.384E-05
 ETOT 10  -370.51722468813    -1.211E-06 5.636E-09 2.157E-06
 ETOT 11  -370.51722494673    -2.586E-07 2.802E-09 1.201E-06
 ETOT 12  -370.51722498076    -3.403E-08 7.474E-10 5.920E-08

 At SCF step   12       nres2   =  5.92E-08 < tolvrs=  1.00E-07 =>converged.

 Cartesian components of stress tensor (hartree/bohr^3)
  sigma(1 1)=  2.66286481E-02  sigma(3 2)= -1.16390445E-04
  sigma(2 2)=  2.66286481E-02  sigma(3 1)= -1.16390445E-04
  sigma(3 3)=  2.66286481E-02  sigma(2 1)=  1.16390445E-04


 Integrated total density in atomic spheres:
 -------------------------------------------
 Atom  Sphere radius  Integrated_up_density  Integrated_dn_density  Total(up+dn)   Diff(up-dn)
    1        2.30000             9.22973613             7.86251336   17.09224949    1.36722277
    2        2.30000             7.86251336             9.22973613   17.09224949   -1.36722277
    3        1.21105             1.73191622             1.73191622    3.46383245    0.00000000
    4        1.21105             1.73191622             1.73191622    3.46383245   -0.00000000
 Note: Diff(up-dn) can be considered as a rough approximation of a local magnetic moment.



 PAW TEST:
 ==== Compensation charge inside spheres ============
 The following values must be close to each other ...
 Compensation charge over spherical meshes =     21.852181124122961
 Compensation charge over fft grid         =     21.853604418933937

 ==== Results concerning PAW augmentation regions ====

 Total pseudopotential strength Dij (hartree):
 Atom #  1 - Spin component 1
  -2.96463  -0.99108   0.00000   0.00000   0.00000   0.00000   0.00000   0.00000  -0.00059   0.00059   0.00000   0.00059 ...
  -0.99108  -0.57599   0.00000   0.00000   0.00000   0.00000   0.00000   0.00000  -0.00017   0.00017   0.00000   0.00017 ...
   0.00000   0.00000  -2.41450   0.00054  -0.00054  -0.54295   0.00013  -0.00013   0.00000   0.00000   0.00000   0.00000 ...
   0.00000   0.00000   0.00054  -2.41450   0.00054   0.00013  -0.54295   0.00013   0.00000   0.00000   0.00000   0.00000 ...
   0.00000   0.00000  -0.00054   0.00054  -2.41450  -0.00013   0.00013  -0.54295   0.00000   0.00000   0.00000   0.00000 ...
   0.00000   0.00000  -0.54295   0.00013  -0.00013  -0.32714   0.00003  -0.00003   0.00000   0.00000   0.00000   0.00000 ...
   0.00000   0.00000   0.00013  -0.54295   0.00013   0.00003  -0.32714   0.00003   0.00000   0.00000   0.00000   0.00000 ...
   0.00000   0.00000  -0.00013   0.00013  -0.54295  -0.00003   0.00003  -0.32714   0.00000   0.00000   0.00000   0.00000 ...
  -0.00059  -0.00017   0.00000   0.00000   0.00000   0.00000   0.00000   0.00000  -0.56367   0.00045   0.00074   0.00045 ...
   0.00059   0.00017   0.00000   0.00000   0.00000   0.00000   0.00000   0.00000   0.00045  -0.56367   0.00037  -0.00045 ...
   0.00000   0.00000   0.00000   0.00000   0.00000   0.00000   0.00000   0.00000   0.00074   0.00037  -0.61160   0.00037 ...
   0.00059   0.00017   0.00000   0.00000   0.00000   0.00000   0.00000   0.00000   0.00045  -0.00045   0.00037  -0.56367 ...
   ...  only 12  components have been written...
 Atom #  1 - Spin component 2
  -2.93355  -0.97815   0.00000   0.00000   0.00000   0.00000   0.00000   0.00000  -0.00032   0.00032   0.00000   0.00032 ...
  -0.97815  -0.57577   0.00000   0.00000   0.00000   0.00000   0.00000   0.00000  -0.00009   0.00009   0.00000   0.00009 ...
   0.00000   0.00000  -2.37259   0.00030  -0.00030  -0.53109   0.00007  -0.00007   0.00000   0.00000   0.00000   0.00000 ...
   0.00000   0.00000   0.00030  -2.37259   0.00030   0.00007  -0.53109   0.00007   0.00000   0.00000   0.00000   0.00000 ...
   0.00000   0.00000  -0.00030   0.00030  -2.37259  -0.00007   0.00007  -0.53109   0.00000   0.00000   0.00000   0.00000 ...
   0.00000   0.00000  -0.53109   0.00007  -0.00007  -0.32519   0.00002  -0.00002   0.00000   0.00000   0.00000   0.00000 ...
   0.00000   0.00000   0.00007  -0.53109   0.00007   0.00002  -0.32519   0.00002   0.00000   0.00000   0.00000   0.00000 ...
   0.00000   0.00000  -0.00007   0.00007  -0.53109  -0.00002   0.00002  -0.32519   0.00000   0.00000   0.00000   0.00000 ...
  -0.00032  -0.00009   0.00000   0.00000   0.00000   0.00000   0.00000   0.00000  -0.55437   0.00053  -0.00144   0.00053 ...
   0.00032   0.00009   0.00000   0.00000   0.00000   0.00000   0.00000   0.00000   0.00053  -0.55437  -0.00072  -0.00053 ...
   0.00000   0.00000   0.00000   0.00000   0.00000   0.00000   0.00000   0.00000  -0.00144  -0.00072  -0.35234  -0.00072 ...
   0.00032   0.00009   0.00000   0.00000   0.00000   0.00000   0.00000   0.00000   0.00053  -0.00053  -0.00072  -0.55437 ...
   ...  only 12  components have been written...
 Atom #  4 - Spin component 1
   0.64914   1.09349   0.00027  -0.00027   0.00027   0.00043  -0.00043   0.00043  -0.00000   0.00000   0.00000   0.00000 ...
   1.09349   1.83896   0.00044  -0.00044   0.00044   0.00069  -0.00069   0.00069  -0.00001   0.00001   0.00000   0.00001 ...
   0.00027   0.00044  -0.31607  -0.00003   0.00003  -0.36565  -0.00004   0.00004  -0.00013   0.00013   0.00005  -0.00000 ...
  -0.00027  -0.00044  -0.00003  -0.31607  -0.00003  -0.00004  -0.36565  -0.00004  -0.00000  -0.00013   0.00010  -0.00013 ...
   0.00027   0.00044   0.00003  -0.00003  -0.31607   0.00004  -0.00004  -0.36565  -0.00013  -0.00000   0.00005   0.00013 ...
   0.00043   0.00069  -0.36565  -0.00004   0.00004  -0.39088  -0.00006   0.00006  -0.00020   0.00020   0.00007  -0.00000 ...
  -0.00043  -0.00069  -0.00004  -0.36565  -0.00004  -0.00006  -0.39088  -0.00006  -0.00000  -0.00020   0.00015  -0.00020 ...
   0.00043   0.00069   0.00004  -0.00004  -0.36565   0.00006  -0.00006  -0.39088  -0.00020  -0.00000   0.00007   0.00020 ...
  -0.00000  -0.00001  -0.00013  -0.00000  -0.00013  -0.00020  -0.00000  -0.00020  -0.01799  -0.00000  -0.00000  -0.00000 ...
   0.00000   0.00001   0.00013  -0.00013  -0.00000   0.00020  -0.00020  -0.00000  -0.00000  -0.01799  -0.00000   0.00000 ...
   0.00000   0.00000   0.00005   0.00010   0.00005   0.00007   0.00015   0.00007  -0.00000  -0.00000  -0.01811  -0.00000 ...
   0.00000   0.00001  -0.00000  -0.00013   0.00013  -0.00000  -0.00020   0.00020  -0.00000   0.00000  -0.00000  -0.01799 ...
   ...  only 12  components have been written...
 Atom #  4 - Spin component 2
   0.64914   1.09349  -0.00027   0.00027  -0.00027  -0.00043   0.00043  -0.00043  -0.00000   0.00000   0.00000   0.00000 ...
   1.09349   1.83896  -0.00044   0.00044  -0.00044  -0.00069   0.00069  -0.00069  -0.00001   0.00001   0.00000   0.00001 ...
  -0.00027  -0.00044  -0.31607  -0.00003   0.00003  -0.36565  -0.00004   0.00004   0.00013  -0.00013  -0.00005   0.00000 ...
   0.00027   0.00044  -0.00003  -0.31607  -0.00003  -0.00004  -0.36565  -0.00004   0.00000   0.00013  -0.00010   0.00013 ...
  -0.00027  -0.00044   0.00003  -0.00003  -0.31607   0.00004  -0.00004  -0.36565   0.00013   0.00000  -0.00005  -0.00013 ...
  -0.00043  -0.00069  -0.36565  -0.00004   0.00004  -0.39088  -0.00006   0.00006   0.00020  -0.00020  -0.00007   0.00000 ...
   0.00043   0.00069  -0.00004  -0.36565  -0.00004  -0.00006  -0.39088  -0.00006   0.00000   0.00020  -0.00015   0.00020 ...
  -0.00043  -0.00069   0.00004  -0.00004  -0.36565   0.00006  -0.00006  -0.39088   0.00020   0.00000  -0.00007  -0.00020 ...
  -0.00000  -0.00001   0.00013   0.00000   0.00013   0.00020   0.00000   0.00020  -0.01799  -0.00000  -0.00000  -0.00000 ...
   0.00000   0.00001  -0.00013   0.00013   0.00000  -0.00020   0.00020   0.00000  -0.00000  -0.01799  -0.00000   0.00000 ...
   0.00000   0.00000  -0.00005  -0.00010  -0.00005  -0.00007  -0.00015  -0.00007  -0.00000  -0.00000  -0.01811  -0.00000 ...
   0.00000   0.00001   0.00000   0.00013  -0.00013   0.00000   0.00020  -0.00020  -0.00000   0.00000  -0.00000  -0.01799 ...
   ...  only 12  components have been written...


 Augmentation waves occupancies Rhoij:
 Atom #  1 - Spin component 1
   1.00690  -0.03965   0.00000   0.00000   0.00000   0.00000   0.00000   0.00000   0.00090  -0.00090   0.00000  -0.00090 ...
  -0.03965   0.15856   0.00000   0.00000   0.00000   0.00000   0.00000   0.00000  -0.00189   0.00189   0.00000   0.00189 ...
   0.00000   0.00000   0.85647   0.00073  -0.00073   0.20909  -0.00117   0.00117   0.00000   0.00000   0.00000   0.00000 ...
   0.00000   0.00000   0.00073   0.85647   0.00073  -0.00117   0.20909  -0.00117   0.00000   0.00000   0.00000   0.00000 ...
   0.00000   0.00000  -0.00073   0.00073   0.85647   0.00117  -0.00117   0.20909   0.00000   0.00000   0.00000   0.00000 ...
   0.00000   0.00000   0.20909  -0.00117   0.00117   0.14084   0.00042  -0.00042   0.00000   0.00000   0.00000   0.00000 ...
   0.00000   0.00000  -0.00117   0.20909  -0.00117   0.00042   0.14084   0.00042   0.00000   0.00000   0.00000   0.00000 ...
   0.00000   0.00000   0.00117  -0.00117   0.20909  -0.00042   0.00042   0.14084   0.00000   0.00000   0.00000   0.00000 ...
   0.00090  -0.00189   0.00000   0.00000   0.00000   0.00000   0.00000   0.00000   0.95481  -0.00021   0.00058  -0.00021 ...
  -0.00090   0.00189   0.00000   0.00000   0.00000   0.00000   0.00000   0.00000  -0.00021   0.95481   0.00029   0.00021 ...
   0.00000   0.00000   0.00000   0.00000   0.00000   0.00000   0.00000   0.00000   0.00058   0.00029   0.97172   0.00029 ...
  -0.00090   0.00189   0.00000   0.00000   0.00000   0.00000   0.00000   0.00000  -0.00021   0.00021   0.00029   0.95481 ...
   ...  only 12  components have been written...
 Atom #  1 - Spin component 2
   1.00722  -0.04230   0.00000   0.00000   0.00000   0.00000   0.00000   0.00000   0.00074  -0.00074   0.00000  -0.00074 ...
  -0.04230   0.16978   0.00000   0.00000   0.00000   0.00000   0.00000   0.00000  -0.00150   0.00150   0.00000   0.00150 ...
   0.00000   0.00000   0.85493   0.00034  -0.00034   0.20973  -0.00021   0.00021   0.00000   0.00000   0.00000   0.00000 ...
   0.00000   0.00000   0.00034   0.85493   0.00034  -0.00021   0.20973  -0.00021   0.00000   0.00000   0.00000   0.00000 ...
   0.00000   0.00000  -0.00034   0.00034   0.85493   0.00021  -0.00021   0.20973   0.00000   0.00000   0.00000   0.00000 ...
   0.00000   0.00000   0.20973  -0.00021   0.00021   0.14966  -0.00190   0.00190   0.00000   0.00000   0.00000   0.00000 ...
   0.00000   0.00000  -0.00021   0.20973  -0.00021  -0.00190   0.14966  -0.00190   0.00000   0.00000   0.00000   0.00000 ...
   0.00000   0.00000   0.00021  -0.00021   0.20973   0.00190  -0.00190   0.14966   0.00000   0.00000   0.00000   0.00000 ...
   0.00074  -0.00150   0.00000   0.00000   0.00000   0.00000   0.00000   0.00000   0.95137  -0.00018   0.00725  -0.00018 ...
  -0.00074   0.00150   0.00000   0.00000   0.00000   0.00000   0.00000   0.00000  -0.00018   0.95137   0.00362   0.00018 ...
   0.00000   0.00000   0.00000   0.00000   0.00000   0.00000   0.00000   0.00000   0.00725   0.00362   0.24352   0.00362 ...
  -0.00074   0.00150   0.00000   0.00000   0.00000   0.00000   0.00000   0.00000  -0.00018   0.00018   0.00362   0.95137 ...
   ...  only 12  components have been written...
 Atom #  4 - Spin component 1
   1.25211  -0.12291   0.01105  -0.01105   0.01105  -0.00424   0.00424  -0.00424   0.01009  -0.01009   0.00000  -0.01009 ...
  -0.12291   0.03117  -0.02663   0.02663  -0.02663   0.00615  -0.00615   0.00615  -0.00288   0.00288   0.00000   0.00288 ...
   0.01105  -0.02663   2.21363  -0.00925   0.00925  -0.74968   0.00502  -0.00502  -0.00470   0.00470  -0.04123  -0.00479 ...
  -0.01105   0.02663  -0.00925   2.21363  -0.00925   0.00502  -0.74968   0.00502  -0.00479  -0.00470  -0.08246  -0.00470 ...
   0.01105  -0.02663   0.00925  -0.00925   2.21363  -0.00502   0.00502  -0.74968  -0.00470  -0.00479  -0.04123   0.00470 ...
  -0.00424   0.00615  -0.74968   0.00502  -0.00502   0.26094  -0.00268   0.00268   0.00186  -0.00186   0.00783   0.00123 ...
   0.00424  -0.00615   0.00502  -0.74968   0.00502  -0.00268   0.26094  -0.00268   0.00123   0.00186   0.01566   0.00186 ...
  -0.00424   0.00615  -0.00502   0.00502  -0.74968   0.00268  -0.00268   0.26094   0.00186   0.00123   0.00783  -0.00186 ...
   0.01009  -0.00288  -0.00470  -0.00479  -0.00470   0.00186   0.00123   0.00186   0.17340   0.01042  -0.00029   0.01042 ...
  -0.01009   0.00288   0.00470  -0.00470  -0.00479  -0.00186   0.00186   0.00123   0.01042   0.17340  -0.00014  -0.01042 ...
   0.00000   0.00000  -0.04123  -0.08246  -0.04123   0.00783   0.01566   0.00783  -0.00029  -0.00014   0.32657  -0.00014 ...
  -0.01009   0.00288  -0.00479  -0.00470   0.00470   0.00123   0.00186  -0.00186   0.01042  -0.01042  -0.00014   0.17340 ...
   ...  only 12  components have been written...
 Atom #  4 - Spin component 2
   1.25211  -0.12291  -0.01105   0.01105  -0.01105   0.00424  -0.00424   0.00424   0.01009  -0.01009   0.00000  -0.01009 ...
  -0.12291   0.03117   0.02663  -0.02663   0.02663  -0.00615   0.00615  -0.00615  -0.00288   0.00288   0.00000   0.00288 ...
  -0.01105   0.02663   2.21363  -0.00925   0.00925  -0.74968   0.00502  -0.00502   0.00470  -0.00470   0.04123   0.00479 ...
   0.01105  -0.02663  -0.00925   2.21363  -0.00925   0.00502  -0.74968   0.00502   0.00479   0.00470   0.08246   0.00470 ...
  -0.01105   0.02663   0.00925  -0.00925   2.21363  -0.00502   0.00502  -0.74968   0.00470   0.00479   0.04123  -0.00470 ...
   0.00424  -0.00615  -0.74968   0.00502  -0.00502   0.26094  -0.00268   0.00268  -0.00186   0.00186  -0.00783  -0.00123 ...
  -0.00424   0.00615   0.00502  -0.74968   0.00502  -0.00268   0.26094  -0.00268  -0.00123  -0.00186  -0.01566  -0.00186 ...
   0.00424  -0.00615  -0.00502   0.00502  -0.74968   0.00268  -0.00268   0.26094  -0.00186  -0.00123  -0.00783   0.00186 ...
   0.01009  -0.00288   0.00470   0.00479   0.00470  -0.00186  -0.00123  -0.00186   0.17340   0.01042  -0.00029   0.01042 ...
  -0.01009   0.00288  -0.00470   0.00470   0.00479   0.00186  -0.00186  -0.00123   0.01042   0.17340  -0.00014  -0.01042 ...
   0.00000   0.00000   0.04123   0.08246   0.04123  -0.00783  -0.01566  -0.00783  -0.00029  -0.00014   0.32657  -0.00014 ...
  -0.01009   0.00288   0.00479   0.00470  -0.00470  -0.00123  -0.00186   0.00186   0.01042  -0.01042  -0.00014   0.17340 ...
   ...  only 12  components have been written...

 "PAW+U" part of augmentation waves occupancies Rhoij:
 Atom #  1 - L=2 ONLY - Spin component 1
   0.95481  -0.00021   0.00058  -0.00021   0.00000
  -0.00021   0.95481   0.00029   0.00021  -0.00050
   0.00058   0.00029   0.97172   0.00029   0.00000
  -0.00021   0.00021   0.00029   0.95481   0.00050
   0.00000  -0.00050   0.00000   0.00050   0.97172
 Atom #  1 - L=2 ONLY - Spin component 2
   0.95137  -0.00018   0.00725  -0.00018   0.00000
  -0.00018   0.95137   0.00362   0.00018  -0.00628
   0.00725   0.00362   0.24352   0.00362   0.00000
  -0.00018   0.00018   0.00362   0.95137   0.00628
   0.00000  -0.00628   0.00000   0.00628   0.24352
 Atom #  2 - L=2 ONLY - Spin component 1
   0.95137  -0.00018   0.00725  -0.00018   0.00000
  -0.00018   0.95137   0.00362   0.00018  -0.00628
   0.00725   0.00362   0.24352   0.00362   0.00000
  -0.00018   0.00018   0.00362   0.95137   0.00628
   0.00000  -0.00628   0.00000   0.00628   0.24352
 Atom #  2 - L=2 ONLY - Spin component 2
   0.95481  -0.00021   0.00058  -0.00021   0.00000
  -0.00021   0.95481   0.00029   0.00021  -0.00050
   0.00058   0.00029   0.97172   0.00029   0.00000
  -0.00021   0.00021   0.00029   0.95481   0.00050
   0.00000  -0.00050   0.00000   0.00050   0.97172

 ---------- LDA+U DATA --------------------------------------------------- 

 ====== For Atom     1, occupations for correlated orbitals. lpawu =   2

 Atom   1. Occ. for lpawu and for spin  1 =   4.61897
 Atom   1. Occ. for lpawu and for spin  2 =   3.20990
 => On atom   1,  local Mag. for lpawu is       -1.409073

 == Occupation matrix for correlated orbitals:

 Occupation matrix for spin  1
     0.91730   -0.00020    0.00056   -0.00020    0.00000
    -0.00020    0.91730    0.00028    0.00020   -0.00048
     0.00056    0.00028    0.93354    0.00028    0.00000
    -0.00020    0.00020    0.00028    0.91730    0.00048
     0.00000   -0.00048    0.00000    0.00048    0.93354


 Occupation matrix for spin  2
     0.91400   -0.00017    0.00696   -0.00017    0.00000
    -0.00017    0.91400    0.00348    0.00017   -0.00603
     0.00696    0.00348    0.23395    0.00348    0.00000
    -0.00017    0.00017    0.00348    0.91400    0.00603
     0.00000   -0.00603    0.00000    0.00603    0.23395


 ====== For Atom     2, occupations for correlated orbitals. lpawu =   2

 Atom   2. Occ. for lpawu and for spin  1 =   3.20990
 Atom   2. Occ. for lpawu and for spin  2 =   4.61897
 => On atom   2,  local Mag. for lpawu is        1.409073

 == Occupation matrix for correlated orbitals:

 Occupation matrix for spin  1
     0.91400   -0.00017    0.00696   -0.00017    0.00000
    -0.00017    0.91400    0.00348    0.00017   -0.00603
     0.00696    0.00348    0.23395    0.00348    0.00000
    -0.00017    0.00017    0.00348    0.91400    0.00603
     0.00000   -0.00603    0.00000    0.00603    0.23395


 Occupation matrix for spin  2
     0.91730   -0.00020    0.00056   -0.00020    0.00000
    -0.00020    0.91730    0.00028    0.00020   -0.00048
     0.00056    0.00028    0.93354    0.00028    0.00000
    -0.00020    0.00020    0.00028    0.91730    0.00048
     0.00000   -0.00048    0.00000    0.00048    0.93354



================================================================================

 ----iterations are completed or convergence reached----

 Mean square residual over all n,k,spin=   3.8001E-11; max=  7.4736E-10
   0.2500  0.2500  0.2500    1  2.72383E-10 kpt; spin; max resid(k); each band:
  5.72E-14 2.10E-14 8.02E-15 2.72E-10 1.30E-11 3.67E-15 1.19E-11 6.46E-13
  3.60E-13 1.54E-13 2.91E-11 2.22E-11 1.83E-11 1.94E-11 4.69E-11 1.07E-11
  1.73E-11 2.49E-11 9.91E-12 2.14E-12 1.19E-10 1.51E-11 5.79E-12 7.38E-12
  1.10E-11 5.86E-12 2.44E-11 5.34E-11
  -0.2500  0.2500  0.2500    1  1.26947E-10 kpt; spin; max resid(k); each band:
  3.13E-14 8.48E-15 1.27E-10 8.64E-12 4.18E-12 6.25E-11 8.92E-13 5.75E-13
  2.03E-13 6.80E-13 1.83E-11 1.06E-10 1.36E-11 9.02E-11 5.74E-11 7.61E-11
  2.87E-11 1.50E-11 1.00E-11 1.95E-11 1.38E-11 3.08E-11 3.25E-11 1.51E-11
  1.56E-11 4.71E-11 4.91E-12 2.56E-12
  -0.2500 -0.2500  0.2500    1  7.47365E-10 kpt; spin; max resid(k); each band:
  2.64E-14 7.20E-15 7.47E-10 3.02E-14 5.79E-11 4.70E-10 1.07E-14 1.70E-11
  3.16E-11 1.96E-11 3.80E-11 1.15E-11 3.50E-11 5.13E-11 2.84E-11 4.51E-12
  9.61E-12 4.54E-12 1.36E-11 9.70E-12 1.51E-11 8.77E-12 3.26E-11 2.79E-12
  1.52E-11 4.08E-12 8.64E-12 1.05E-11
 reduced coordinates (array xred) for    4 atoms
       0.000000000000      0.000000000000      0.000000000000
       0.000000000000      0.000000000000      0.500000000000
       0.500000000000      0.500000000000      0.250000000000
       0.500000000000      0.500000000000      0.750000000000
 rms dE/dt=  5.3558E-29; max dE/dt=  1.3463E-28; dE/dt below (all hartree)
    1       0.000000000000     -0.000000000000     -0.000000000000
    2      -0.000000000000      0.000000000000      0.000000000000
    3      -0.000000000000      0.000000000000      0.000000000000
    4       0.000000000000     -0.000000000000      0.000000000000

 cartesian coordinates (angstrom) at end:
    1      0.00000000000000     0.00000000000000     0.00000000000000
    2      2.09554174601640     2.09554174601640     0.00000000000000
    3      2.09554174601640     2.09554174601640     2.09554174601640
    4      4.19108349203280     4.19108349203280     2.09554174601640

 cartesian forces (hartree/bohr) at end:
    1      0.00000000000000    -0.00000000000000    -0.00000000000000
    2     -0.00000000000000     0.00000000000000     0.00000000000000
    3     -0.00000000000000     0.00000000000000    -0.00000000000000
    4      0.00000000000000    -0.00000000000000    -0.00000000000000
 frms,max,avg= 9.3861822E-30 2.0186340E-29   0.000E+00  0.000E+00  0.000E+00 h/b

 cartesian forces (eV/Angstrom) at end:
    1      0.00000000000000    -0.00000000000000    -0.00000000000000
    2     -0.00000000000000     0.00000000000000     0.00000000000000
    3     -0.00000000000000     0.00000000000000    -0.00000000000000
    4      0.00000000000000    -0.00000000000000    -0.00000000000000
 frms,max,avg= 4.8265685E-28 1.0380232E-27   0.000E+00  0.000E+00  0.000E+00 e/A
 length scales=  7.920000000000  7.920000000000  7.920000000000 bohr
              =  4.191083492033  4.191083492033  4.191083492033 angstroms
 Fermi (or HOMO) energy (hartree) =   0.19005   Average Vxc (hartree)=  -0.52234
 Eigenvalues (hartree) for nkpt=   3  k points:
 kpt#   1, nband= 28, wtk=  0.25000, kpt=  0.2500  0.2500  0.2500 (reduced coord)
  -3.64149  -3.58451  -2.23538  -2.23338  -2.23006  -2.18105  -2.17843  -2.17276
  -0.50121  -0.46859  -0.10225  -0.09330  -0.05732  -0.05199  -0.03127  -0.03112
  -0.01815   0.01329   0.05494   0.08379   0.08461   0.10437   0.13696   0.14473
   0.24257   0.26856   0.41473   0.60226
      occupation numbers for kpt#   1
   2.00000   2.00000   2.00000   2.00000   2.00000   2.00000   2.00000   2.00000
   2.00000   2.00000   2.00000   2.00000   2.00000   2.00000   2.00000   2.00000
   2.00000   2.00000   2.00000   2.00000   2.00000   2.00000   2.00000   1.99998
   0.00000   0.00000   0.00000   0.00000
 kpt#   2, nband= 28, wtk=  0.50000, kpt= -0.2500  0.2500  0.2500 (reduced coord)
  -3.64075  -3.58412  -2.23534  -2.23161  -2.22848  -2.17934  -2.17735  -2.17434
  -0.47543  -0.46907  -0.09946  -0.08815  -0.06236  -0.05948  -0.03809  -0.02209
  -0.00448   0.01229   0.05037   0.07385   0.07684   0.09214   0.12541   0.13453
   0.25510   0.26465   0.54435   0.56423
      occupation numbers for kpt#   2
   2.00000   2.00000   2.00000   2.00000   2.00000   2.00000   2.00000   2.00000
   2.00000   2.00000   2.00000   2.00000   2.00000   2.00000   2.00000   2.00000
   2.00000   2.00000   2.00000   2.00000   2.00000   2.00000   2.00000   2.00000
   0.00000   0.00000   0.00000   0.00000
 kpt#   3, nband= 28, wtk=  0.25000, kpt= -0.2500 -0.2500  0.2500 (reduced coord)
  -3.64380  -3.58714  -2.23837  -2.23773  -2.23328  -2.18375  -2.18314  -2.17875
  -0.48909  -0.48343  -0.10547  -0.09798  -0.06406  -0.05561  -0.03529  -0.02626
  -0.01767  -0.00042   0.03279   0.06434   0.08859   0.10315   0.13308   0.13759
   0.23526   0.25166   0.45476   0.50381
      occupation numbers for kpt#   3
   2.00000   2.00000   2.00000   2.00000   2.00000   2.00000   2.00000   2.00000
   2.00000   2.00000   2.00000   2.00000   2.00000   2.00000   2.00000   2.00000
   2.00000   2.00000   2.00000   2.00000   2.00000   2.00000   2.00000   2.00000
   0.00002   0.00000   0.00000   0.00000
 Total charge density [el/Bohr^3]
,     Maximum=    1.9578E+00  at reduced coord.    0.0000    0.0000    0.5000
,Next maximum=    1.9578E+00  at reduced coord.    0.0000    0.0000    0.0000
,     Minimum=    1.0219E-02  at reduced coord.    0.2500    0.2500    0.1250
,Next minimum=    1.0219E-02  at reduced coord.    0.7500    0.7500    0.3750
,  Integrated=    4.8001E+01
 Spin up density      [el/Bohr^3]
,     Maximum=    1.0395E+00  at reduced coord.    0.0000    0.0000    0.0000
,Next maximum=    9.6912E-01  at reduced coord.    0.0000    0.0625    0.9688
,     Minimum=    4.9731E-03  at reduced coord.    0.2500    0.2500    0.1250
,Next minimum=    4.9731E-03  at reduced coord.    0.7500    0.7500    0.8750
,  Integrated=    2.4001E+01
 Spin down density    [el/Bohr^3]
,     Maximum=    1.0395E+00  at reduced coord.    0.0000    0.0000    0.5000
,Next maximum=    9.6912E-01  at reduced coord.    0.0000    0.9375    0.5313
,     Minimum=    4.9731E-03  at reduced coord.    0.7500    0.7500    0.3750
,Next minimum=    4.9731E-03  at reduced coord.    0.2500    0.2500    0.6250
,  Integrated=    2.4001E+01
 Magnetization (spin up - spin down) [el/Bohr^3]
,     Maximum=    1.3083E-01  at reduced coord.    0.1250    0.8750    0.9375
,Next maximum=    1.3083E-01  at reduced coord.    0.8750    0.1250    0.9375
,     Minimum=   -1.3083E-01  at reduced coord.    0.1250    0.1250    0.4375
,Next minimum=   -1.3083E-01  at reduced coord.    0.8750    0.1250    0.4375
,  Integrated=    0.0000E+00
 Relative magnetization (=zeta, between -1 and 1)
,     Maximum=    1.8341E-01  at reduced coord.    0.1875    0.8125    0.9063
,Next maximum=    1.8341E-01  at reduced coord.    0.8125    0.1875    0.9063
,     Minimum=   -1.8341E-01  at reduced coord.    0.1875    0.1875    0.4063
,Next minimum=   -1.8341E-01  at reduced coord.    0.8125    0.1875    0.4063

--------------------------------------------------------------------------------
 Components of total free energy (in Hartree) :

    Kinetic energy  =  4.50738455552739E+01
    Hartree energy  =  5.40455833333639E+01
    XC energy       = -3.19419877960485E+01
    Ewald energy    = -2.38122809319194E+02
    PspCore energy  =  2.14477051759375E+01
    Loc. psp. energy= -1.48697479079247E+02
    Spherical terms = -7.23220744936858E+01
    >>>>> Internal E= -3.70517216623599E+02

    -kT*entropy     = -5.04370812147207E-07
    >>>>>>>>> Etotal= -3.70517217127970E+02

 "Double-counting" decomposition of free energy:
    Band energy     = -4.24501660003341E+01
    Ewald energy    = -2.38122809319194E+02
    PspCore energy  =  2.14477051759375E+01
    Dble-C XC-energy= -4.40552195508444E+01
    Spherical terms = -6.73367347819560E+01
    >>>>> Internal E= -3.70517224476391E+02

    -kT*entropy     = -5.04370812147207E-07
    >>>> Etotal (DC)= -3.70517224980762E+02

  >Total energy in eV           = -1.00822862220082E+04
  >Total DC energy in eV        = -1.00822864356935E+04
--------------------------------------------------------------------------------

 Cartesian components of stress tensor (hartree/bohr^3)
  sigma(1 1)=  2.66286481E-02  sigma(3 2)= -1.16390445E-04
  sigma(2 2)=  2.66286481E-02  sigma(3 1)= -1.16390445E-04
  sigma(3 3)=  2.66286481E-02  sigma(2 1)=  1.16390445E-04

-Cartesian components of stress tensor (GPa)         [Pressure= -7.8344E+02 GPa]
- sigma(1 1)=  7.83441743E+02  sigma(3 2)= -3.42432453E+00
- sigma(2 2)=  7.83441743E+02  sigma(3 1)= -3.42432453E+00
- sigma(3 3)=  7.83441743E+02  sigma(2 1)=  3.42432453E+00

================================================================================
== DATASET  2 ==================================================================
-   nproc =    1

 Exchange-correlation functional for the present dataset will be:
  LDA: Perdew-Wang 92 LSD fit to Ceperley-Alder data - ixc=7
 Citation for XC functional:
  J.P.Perdew and Y.Wang, PRB 45, 13244 (1992)

 Real(R)+Recip(G) space primitive vectors, cartesian coordinates (Bohr,Bohr^-1):
 R(1)=  0.0000000  3.9600000  3.9600000  G(1)= -0.1262626  0.1262626  0.1262626
 R(2)=  3.9600000  0.0000000  3.9600000  G(2)=  0.1262626 -0.1262626  0.1262626
 R(3)=  7.9200000  7.9200000  0.0000000  G(3)=  0.0631313  0.0631313 -0.0631313
 Unit cell volume ucvol=  2.4839654E+02 bohr^3
 Angles (23,13,12)=  6.00000000E+01  6.00000000E+01  6.00000000E+01 degrees

 Coarse grid specifications (used for wave-functions):

 getcut: wavevector=  0.0000  0.0000  0.0000  ngfft=  16  16  30
         ecut(hartree)=      8.000   => boxcut(ratio)=   2.10597

 Fine grid specifications (used for densities):

 getcut: wavevector=  0.0000  0.0000  0.0000  ngfft=  16  16  32
         ecut(hartree)=     10.000   => boxcut(ratio)=   2.00699
--------------------------------------------------------------------------------

P newkpt: treating     60 bands with npw=     269 for ikpt=   1 by node    0
P newkpt: treating     60 bands with npw=     268 for ikpt=   2 by node    0
P newkpt: treating     60 bands with npw=     268 for ikpt=   3 by node    0
P newkpt: treating     60 bands with npw=     277 for ikpt=   4 by node    0
P newkpt: treating     60 bands with npw=     277 for ikpt=   5 by node    0
P newkpt: treating     60 bands with npw=     268 for ikpt=   6 by node    0
P newkpt: treating     60 bands with npw=     268 for ikpt=   7 by node    0
P newkpt: treating     60 bands with npw=     269 for ikpt=   8 by node    0

_setup2: Arith. and geom. avg. npw (full set) are     270.500     270.474


 ******************************************
 LDA+U Method used: FLL
 ******************************************

================================================================================

     iter   Etot(hartree)      deltaE(h)  residm     nres2
 ETOT  1  -366.55065868878    -3.666E+02 9.147E+00 1.147E+01
 ETOT  2  -371.29623876984    -4.746E+00 1.490E-02 1.063E+01
 ETOT  3  -371.10827419652     1.880E-01 4.421E-03 4.642E+00
 ETOT  4  -370.57075357807     5.375E-01 6.291E-03 5.961E-01
 ETOT  5  -370.55988464973     1.087E-02 3.340E-03 9.092E-02
 ETOT  6  -370.55608525570     3.799E-03 7.694E-04 4.111E-03
 ETOT  7  -370.55563271298     4.525E-04 1.300E-04 1.834E-03
 ETOT  8  -370.55563502256    -2.310E-06 2.506E-05 6.176E-04
 ETOT  9  -370.55565440184    -1.938E-05 5.644E-06 1.836E-04
 ETOT 10  -370.55565628603    -1.884E-06 1.265E-06 1.973E-05
 ETOT 11  -370.55566055854    -4.273E-06 1.540E-06 8.831E-06
 ETOT 12  -370.55566376347    -3.205E-06 2.437E-07 4.858E-06
 ETOT 13  -370.55568010313    -1.634E-05 3.749E-06 3.155E-06
 ETOT 14  -370.55567833644     1.767E-06 9.081E-09 2.190E-06
 ETOT 15  -370.55567235405     5.982E-06 1.460E-06 1.226E-06

 Cartesian components of stress tensor (hartree/bohr^3)
  sigma(1 1)=  2.67689468E-02  sigma(3 2)= -1.30023233E-04
  sigma(2 2)=  2.67689468E-02  sigma(3 1)= -1.30040181E-04
  sigma(3 3)=  2.69403914E-02  sigma(2 1)=  6.68389524E-05


 scprqt:  WARNING -
  nstep=   15 was not enough SCF cycles to converge;
  density residual=  1.226E-06 exceeds tolvrs=  1.000E-07


 PAW TEST:
 ==== Compensation charge inside spheres ============
 The following values must be close to each other ...
 Compensation charge over spherical meshes =     21.818266441488230
 Compensation charge over fine fft grid    =     21.819741747480137

 ==== Results concerning PAW augmentation regions ====

 Total pseudopotential strength Dij (hartree):
 Atom #  1 - Component up-up
   === REAL PART:
  -2.97585  -0.99533   0.00000   0.00000   0.00000   0.00000   0.00000   0.00000   0.00088   0.00152  -0.00475   0.00152 ...
  -0.99533  -0.57724   0.00000   0.00000   0.00000   0.00000   0.00000   0.00000   0.00026   0.00044  -0.00138   0.00044 ...
   0.00000   0.00000  -2.42583   0.00138   0.00080  -0.54604   0.00034   0.00020   0.00000   0.00000  -0.00000  -0.00000 ...
   0.00000   0.00000   0.00138  -2.43324   0.00138   0.00034  -0.54783   0.00034  -0.00000   0.00000   0.00000   0.00000 ...
   0.00000   0.00000   0.00080   0.00138  -2.42583   0.00020   0.00034  -0.54604   0.00000  -0.00000  -0.00000   0.00000 ...
   0.00000   0.00000  -0.54604   0.00034   0.00020  -0.32787   0.00009   0.00005   0.00000   0.00000  -0.00000  -0.00000 ...
   0.00000   0.00000   0.00034  -0.54783   0.00034   0.00009  -0.32838   0.00009  -0.00000   0.00000   0.00000   0.00000 ...
   0.00000   0.00000   0.00020   0.00034  -0.54604   0.00005   0.00009  -0.32787   0.00000  -0.00000  -0.00000   0.00000 ...
   0.00088   0.00026   0.00000  -0.00000   0.00000   0.00000  -0.00000   0.00000  -0.59848   0.00110  -0.00155   0.00109 ...
   0.00152   0.00044   0.00000   0.00000  -0.00000   0.00000   0.00000  -0.00000   0.00110  -0.60402   0.00219   0.00046 ...
  -0.00475  -0.00138  -0.00000   0.00000  -0.00000  -0.00000   0.00000  -0.00000  -0.00155   0.00219  -0.65894   0.00219 ...
   0.00152   0.00044  -0.00000   0.00000   0.00000  -0.00000   0.00000   0.00000   0.00109   0.00046   0.00219  -0.60402 ...
   ...  only 12  components have been written...
   === IMAGINARY PART:
  -0.00000  -0.00000  -0.00000  -0.00000  -0.00000  -0.00000  -0.00000  -0.00000  -0.00000  -0.00000  -0.00000  -0.00000 ...
   0.00000  -0.00000  -0.00000  -0.00000  -0.00000  -0.00000  -0.00000  -0.00000  -0.00000  -0.00000  -0.00000  -0.00000 ...
   0.00000   0.00000  -0.00000  -0.00000  -0.00000  -0.00000  -0.00000  -0.00000  -0.00000  -0.00000  -0.00000  -0.00000 ...
   0.00000   0.00000   0.00000  -0.00000  -0.00000  -0.00000  -0.00000  -0.00000  -0.00000  -0.00000  -0.00000  -0.00000 ...
   0.00000   0.00000   0.00000   0.00000  -0.00000  -0.00000  -0.00000  -0.00000  -0.00000  -0.00000  -0.00000  -0.00000 ...
   0.00000   0.00000   0.00000   0.00000   0.00000  -0.00000  -0.00000  -0.00000  -0.00000  -0.00000  -0.00000  -0.00000 ...
   0.00000   0.00000   0.00000   0.00000   0.00000   0.00000  -0.00000  -0.00000  -0.00000  -0.00000  -0.00000  -0.00000 ...
   0.00000   0.00000   0.00000   0.00000   0.00000   0.00000   0.00000  -0.00000  -0.00000  -0.00000  -0.00000  -0.00000 ...
   0.00000   0.00000   0.00000   0.00000   0.00000   0.00000   0.00000   0.00000  -0.00000   0.00000   0.00000   0.00000 ...
   0.00000   0.00000   0.00000   0.00000   0.00000   0.00000   0.00000   0.00000  -0.00000  -0.00000   0.00000   0.00000 ...
   0.00000   0.00000   0.00000   0.00000   0.00000   0.00000   0.00000   0.00000  -0.00000  -0.00000  -0.00000   0.00000 ...
   0.00000   0.00000   0.00000   0.00000   0.00000   0.00000   0.00000   0.00000  -0.00000  -0.00000  -0.00000  -0.00000 ...
   ...  only 12  components have been written...
 Atom #  1 - Component dwn-dwn
   === REAL PART:
  -2.94266  -0.98151   0.00000   0.00000   0.00000   0.00000   0.00000   0.00000   0.00043   0.00079  -0.00233   0.00079 ...
  -0.98151  -0.57696   0.00000   0.00000   0.00000   0.00000   0.00000   0.00000   0.00012   0.00023  -0.00078   0.00023 ...
   0.00000   0.00000  -2.38231   0.00074   0.00040  -0.53366   0.00018   0.00010   0.00000   0.00000  -0.00000  -0.00000 ...
   0.00000   0.00000   0.00074  -2.38603   0.00074   0.00018  -0.53459   0.00018  -0.00000   0.00000   0.00000   0.00000 ...
   0.00000   0.00000   0.00040   0.00074  -2.38231   0.00010   0.00018  -0.53366   0.00000  -0.00000  -0.00000   0.00000 ...
   0.00000   0.00000  -0.53366   0.00018   0.00010  -0.32584   0.00004   0.00002   0.00000   0.00000  -0.00000  -0.00000 ...
   0.00000   0.00000   0.00018  -0.53459   0.00018   0.00004  -0.32618   0.00004  -0.00000   0.00000   0.00000   0.00000 ...
   0.00000   0.00000   0.00010   0.00018  -0.53366   0.00002   0.00004  -0.32584   0.00000  -0.00000  -0.00000   0.00000 ...
   0.00043   0.00012   0.00000  -0.00000   0.00000   0.00000  -0.00000   0.00000  -0.53394   0.00122   0.00269   0.00122 ...
   0.00079   0.00023   0.00000   0.00000  -0.00000   0.00000   0.00000  -0.00000   0.00122  -0.54043  -0.00761   0.00102 ...
  -0.00233  -0.00078  -0.00000   0.00000  -0.00000  -0.00000   0.00000  -0.00000   0.00269  -0.00761  -0.31772  -0.00761 ...
   0.00079   0.00023  -0.00000   0.00000   0.00000  -0.00000   0.00000   0.00000   0.00122   0.00102  -0.00761  -0.54043 ...
   ...  only 12  components have been written...
   === IMAGINARY PART:
  -0.00000  -0.00000  -0.00000  -0.00000  -0.00000  -0.00000  -0.00000  -0.00000  -0.00000  -0.00000  -0.00000  -0.00000 ...
   0.00000  -0.00000  -0.00000  -0.00000  -0.00000  -0.00000  -0.00000  -0.00000  -0.00000  -0.00000  -0.00000  -0.00000 ...
   0.00000   0.00000  -0.00000  -0.00000  -0.00000  -0.00000  -0.00000  -0.00000  -0.00000  -0.00000  -0.00000  -0.00000 ...
   0.00000   0.00000   0.00000  -0.00000  -0.00000  -0.00000  -0.00000  -0.00000  -0.00000  -0.00000  -0.00000  -0.00000 ...
   0.00000   0.00000   0.00000   0.00000  -0.00000  -0.00000  -0.00000  -0.00000  -0.00000  -0.00000  -0.00000  -0.00000 ...
   0.00000   0.00000   0.00000   0.00000   0.00000  -0.00000  -0.00000  -0.00000  -0.00000  -0.00000  -0.00000  -0.00000 ...
   0.00000   0.00000   0.00000   0.00000   0.00000   0.00000  -0.00000  -0.00000  -0.00000  -0.00000  -0.00000  -0.00000 ...
   0.00000   0.00000   0.00000   0.00000   0.00000   0.00000   0.00000  -0.00000  -0.00000  -0.00000  -0.00000  -0.00000 ...
   0.00000   0.00000   0.00000   0.00000   0.00000   0.00000   0.00000   0.00000  -0.00000   0.00000   0.00000   0.00000 ...
   0.00000   0.00000   0.00000   0.00000   0.00000   0.00000   0.00000   0.00000  -0.00000  -0.00000   0.00000  -0.00000 ...
   0.00000   0.00000   0.00000   0.00000   0.00000   0.00000   0.00000   0.00000  -0.00000  -0.00000  -0.00000   0.00000 ...
   0.00000   0.00000   0.00000   0.00000   0.00000   0.00000   0.00000   0.00000  -0.00000   0.00000  -0.00000  -0.00000 ...
   ...  only 12  components have been written...
 Atom #  1 - Component up-dwn
   === REAL PART:
  -0.00003  -0.00001  -0.00000   0.00000   0.00000  -0.00000   0.00000   0.00000   0.00000   0.00000  -0.00000   0.00000 ...
  -0.00001  -0.00000  -0.00000   0.00000   0.00000  -0.00000   0.00000   0.00000   0.00000   0.00000  -0.00000   0.00000 ...
  -0.00000  -0.00000  -0.00004   0.00000   0.00000  -0.00001   0.00000   0.00000   0.00000   0.00000   0.00000  -0.00000 ...
   0.00000   0.00000   0.00000  -0.00004   0.00000   0.00000  -0.00001   0.00000  -0.00000  -0.00000   0.00000   0.00000 ...
   0.00000   0.00000   0.00000   0.00000  -0.00004   0.00000   0.00000  -0.00001  -0.00000  -0.00000   0.00000   0.00000 ...
  -0.00000  -0.00000  -0.00001   0.00000   0.00000  -0.00000   0.00000   0.00000   0.00000   0.00000   0.00000   0.00000 ...
   0.00000   0.00000   0.00000  -0.00001   0.00000   0.00000  -0.00000   0.00000   0.00000   0.00000   0.00000   0.00000 ...
   0.00000   0.00000   0.00000   0.00000  -0.00001   0.00000   0.00000  -0.00000  -0.00000   0.00000   0.00000   0.00000 ...
   0.00000   0.00000   0.00000  -0.00000  -0.00000   0.00000   0.00000  -0.00000  -0.00006   0.00000  -0.00000  -0.00000 ...
   0.00000   0.00000   0.00000  -0.00000  -0.00000   0.00000   0.00000   0.00000  -0.00000  -0.00006   0.00001  -0.00000 ...
  -0.00000  -0.00000   0.00000   0.00000   0.00000   0.00000   0.00000   0.00000  -0.00001   0.00001  -0.00030   0.00000 ...
   0.00000   0.00000  -0.00000   0.00000   0.00000   0.00000   0.00000   0.00000   0.00000  -0.00000   0.00001  -0.00006 ...
   ...  only 12  components have been written...
   === IMAGINARY PART:
   0.00001   0.00000  -0.00000   0.00000  -0.00000  -0.00000   0.00000  -0.00000  -0.00000  -0.00000   0.00000  -0.00000 ...
   0.00000   0.00000  -0.00000   0.00000  -0.00000  -0.00000   0.00000  -0.00000  -0.00000  -0.00000   0.00000  -0.00000 ...
  -0.00000  -0.00000   0.00001  -0.00000  -0.00000   0.00000  -0.00000  -0.00000  -0.00000   0.00000   0.00000  -0.00000 ...
   0.00000   0.00000  -0.00000   0.00001  -0.00000  -0.00000   0.00000  -0.00000  -0.00000  -0.00000   0.00000  -0.00000 ...
  -0.00000  -0.00000  -0.00000  -0.00000   0.00001  -0.00000  -0.00000   0.00000  -0.00000  -0.00000   0.00000   0.00000 ...
  -0.00000   0.00000   0.00000  -0.00000  -0.00000   0.00000  -0.00000  -0.00000  -0.00000   0.00000   0.00000  -0.00000 ...
   0.00000   0.00000  -0.00000   0.00000  -0.00000  -0.00000   0.00000  -0.00000  -0.00000  -0.00000   0.00000  -0.00000 ...
  -0.00000  -0.00000  -0.00000  -0.00000   0.00000  -0.00000  -0.00000   0.00000  -0.00000  -0.00000   0.00000   0.00000 ...
  -0.00000  -0.00000  -0.00000   0.00000  -0.00000   0.00000   0.00000   0.00000   0.00002   0.00000   0.00000   0.00000 ...
  -0.00000  -0.00000   0.00000  -0.00000   0.00000   0.00000   0.00000   0.00000  -0.00000   0.00002  -0.00000   0.00000 ...
   0.00000   0.00000   0.00000   0.00000   0.00000   0.00000   0.00000   0.00000   0.00000  -0.00001   0.00011  -0.00002 ...
  -0.00000  -0.00000   0.00000  -0.00000   0.00000   0.00000  -0.00000   0.00000  -0.00000   0.00000  -0.00000   0.00002 ...
   ...  only 12  components have been written...
 Atom #  1 - Component dwn-up
   === REAL PART:
  -0.00003  -0.00001  -0.00000   0.00000   0.00000  -0.00000   0.00000   0.00000   0.00000   0.00000  -0.00000   0.00000 ...
  -0.00001  -0.00000  -0.00000   0.00000   0.00000  -0.00000   0.00000   0.00000   0.00000   0.00000  -0.00000   0.00000 ...
  -0.00000  -0.00000  -0.00004   0.00000   0.00000  -0.00001   0.00000   0.00000   0.00000   0.00000   0.00000  -0.00000 ...
   0.00000   0.00000   0.00000  -0.00004   0.00000   0.00000  -0.00001   0.00000  -0.00000  -0.00000   0.00000   0.00000 ...
   0.00000   0.00000   0.00000   0.00000  -0.00004   0.00000   0.00000  -0.00001  -0.00000  -0.00000   0.00000   0.00000 ...
  -0.00000  -0.00000  -0.00001   0.00000   0.00000  -0.00000   0.00000   0.00000   0.00000   0.00000   0.00000   0.00000 ...
   0.00000   0.00000   0.00000  -0.00001   0.00000   0.00000  -0.00000   0.00000   0.00000   0.00000   0.00000   0.00000 ...
   0.00000   0.00000   0.00000   0.00000  -0.00001   0.00000   0.00000  -0.00000  -0.00000   0.00000   0.00000   0.00000 ...
   0.00000   0.00000   0.00000  -0.00000  -0.00000   0.00000   0.00000  -0.00000  -0.00006  -0.00000  -0.00001   0.00000 ...
   0.00000   0.00000   0.00000  -0.00000  -0.00000   0.00000   0.00000   0.00000   0.00000  -0.00006   0.00001  -0.00000 ...
  -0.00000  -0.00000   0.00000   0.00000   0.00000   0.00000   0.00000   0.00000  -0.00000   0.00001  -0.00030   0.00001 ...
   0.00000   0.00000  -0.00000   0.00000   0.00000   0.00000   0.00000   0.00000  -0.00000  -0.00000   0.00000  -0.00006 ...
   ...  only 12  components have been written...
   === IMAGINARY PART:
  -0.00001  -0.00000   0.00000  -0.00000   0.00000   0.00000  -0.00000   0.00000   0.00000   0.00000  -0.00000   0.00000 ...
  -0.00000  -0.00000   0.00000  -0.00000   0.00000  -0.00000  -0.00000   0.00000   0.00000   0.00000  -0.00000   0.00000 ...
   0.00000   0.00000  -0.00001   0.00000   0.00000  -0.00000   0.00000   0.00000   0.00000  -0.00000  -0.00000  -0.00000 ...
  -0.00000  -0.00000   0.00000  -0.00001   0.00000   0.00000  -0.00000   0.00000  -0.00000   0.00000  -0.00000   0.00000 ...
   0.00000   0.00000   0.00000   0.00000  -0.00001   0.00000   0.00000  -0.00000   0.00000  -0.00000  -0.00000  -0.00000 ...
   0.00000   0.00000  -0.00000   0.00000   0.00000  -0.00000   0.00000   0.00000  -0.00000  -0.00000  -0.00000  -0.00000 ...
  -0.00000  -0.00000   0.00000  -0.00000   0.00000   0.00000  -0.00000   0.00000  -0.00000  -0.00000  -0.00000   0.00000 ...
   0.00000   0.00000   0.00000   0.00000  -0.00000   0.00000   0.00000  -0.00000  -0.00000  -0.00000  -0.00000  -0.00000 ...
   0.00000   0.00000   0.00000   0.00000   0.00000   0.00000   0.00000   0.00000  -0.00002   0.00000  -0.00000   0.00000 ...
   0.00000   0.00000  -0.00000   0.00000   0.00000  -0.00000   0.00000   0.00000  -0.00000  -0.00002   0.00001  -0.00000 ...
  -0.00000  -0.00000  -0.00000  -0.00000  -0.00000  -0.00000  -0.00000  -0.00000  -0.00000   0.00000  -0.00011   0.00000 ...
   0.00000   0.00000   0.00000   0.00000  -0.00000   0.00000   0.00000  -0.00000  -0.00000  -0.00000   0.00002  -0.00002 ...
   ...  only 12  components have been written...
 Atom #  4 - Component up-up
   === REAL PART:
   0.64842   1.09223   0.00025  -0.00025   0.00025   0.00038  -0.00040   0.00038   0.00000   0.00002  -0.00003   0.00002 ...
   1.09223   1.83675   0.00040  -0.00041   0.00040   0.00061  -0.00064   0.00061   0.00001   0.00002  -0.00005   0.00002 ...
   0.00025   0.00040  -0.31427  -0.00007   0.00000  -0.36306  -0.00009   0.00001  -0.00013   0.00013   0.00005  -0.00000 ...
  -0.00025  -0.00041  -0.00007  -0.31401  -0.00007  -0.00009  -0.36270  -0.00009  -0.00000  -0.00013   0.00011  -0.00013 ...
   0.00025   0.00040   0.00000  -0.00007  -0.31427   0.00001  -0.00009  -0.36306  -0.00013  -0.00000   0.00005   0.00013 ...
   0.00038   0.00061  -0.36306  -0.00009   0.00001  -0.38718  -0.00013   0.00001  -0.00018   0.00019   0.00007  -0.00000 ...
  -0.00040  -0.00064  -0.00009  -0.36270  -0.00009  -0.00013  -0.38668  -0.00013  -0.00000  -0.00019   0.00015  -0.00019 ...
   0.00038   0.00061   0.00001  -0.00009  -0.36306   0.00001  -0.00013  -0.38718  -0.00018  -0.00000   0.00007   0.00019 ...
   0.00000   0.00001  -0.00013  -0.00000  -0.00013  -0.00018  -0.00000  -0.00018  -0.01789  -0.00001   0.00000  -0.00001 ...
   0.00002   0.00002   0.00013  -0.00013  -0.00000   0.00019  -0.00019  -0.00000  -0.00001  -0.01786  -0.00000  -0.00000 ...
  -0.00003  -0.00005   0.00005   0.00011   0.00005   0.00007   0.00015   0.00007   0.00000  -0.00000  -0.01797  -0.00000 ...
   0.00002   0.00002  -0.00000  -0.00013   0.00013  -0.00000  -0.00019   0.00019  -0.00001  -0.00000  -0.00000  -0.01786 ...
   ...  only 12  components have been written...
   === IMAGINARY PART:
  -0.00000  -0.00000  -0.00000  -0.00000  -0.00000  -0.00000  -0.00000  -0.00000  -0.00000  -0.00000  -0.00000  -0.00000 ...
   0.00000  -0.00000  -0.00000  -0.00000  -0.00000  -0.00000  -0.00000  -0.00000  -0.00000  -0.00000  -0.00000  -0.00000 ...
   0.00000   0.00000  -0.00000  -0.00000  -0.00000  -0.00000  -0.00000  -0.00000  -0.00000  -0.00000  -0.00000  -0.00000 ...
   0.00000   0.00000   0.00000  -0.00000  -0.00000  -0.00000  -0.00000  -0.00000  -0.00000  -0.00000  -0.00000  -0.00000 ...
   0.00000   0.00000   0.00000   0.00000  -0.00000  -0.00000  -0.00000  -0.00000  -0.00000  -0.00000  -0.00000  -0.00000 ...
   0.00000   0.00000   0.00000   0.00000   0.00000  -0.00000  -0.00000  -0.00000  -0.00000  -0.00000  -0.00000  -0.00000 ...
   0.00000   0.00000   0.00000   0.00000   0.00000   0.00000  -0.00000  -0.00000  -0.00000  -0.00000  -0.00000  -0.00000 ...
   0.00000   0.00000   0.00000   0.00000   0.00000   0.00000   0.00000  -0.00000  -0.00000  -0.00000  -0.00000  -0.00000 ...
   0.00000   0.00000   0.00000   0.00000   0.00000   0.00000   0.00000   0.00000  -0.00000  -0.00000  -0.00000  -0.00000 ...
   0.00000   0.00000   0.00000   0.00000   0.00000   0.00000   0.00000   0.00000   0.00000  -0.00000  -0.00000  -0.00000 ...
   0.00000   0.00000   0.00000   0.00000   0.00000   0.00000   0.00000   0.00000   0.00000   0.00000  -0.00000  -0.00000 ...
   0.00000   0.00000   0.00000   0.00000   0.00000   0.00000   0.00000   0.00000   0.00000   0.00000   0.00000  -0.00000 ...
   ...  only 12  components have been written...
 Atom #  4 - Component dwn-dwn
   === REAL PART:
   0.64842   1.09223  -0.00025   0.00025  -0.00025  -0.00038   0.00040  -0.00038   0.00000   0.00002  -0.00003   0.00002 ...
   1.09223   1.83675  -0.00040   0.00041  -0.00040  -0.00061   0.00064  -0.00061   0.00001   0.00002  -0.00005   0.00002 ...
  -0.00025  -0.00040  -0.31427  -0.00007   0.00000  -0.36306  -0.00009   0.00001   0.00013  -0.00013  -0.00005   0.00000 ...
   0.00025   0.00041  -0.00007  -0.31401  -0.00007  -0.00009  -0.36270  -0.00009   0.00000   0.00013  -0.00011   0.00013 ...
  -0.00025  -0.00040   0.00000  -0.00007  -0.31427   0.00001  -0.00009  -0.36306   0.00013   0.00000  -0.00005  -0.00013 ...
  -0.00038  -0.00061  -0.36306  -0.00009   0.00001  -0.38718  -0.00013   0.00001   0.00018  -0.00019  -0.00007   0.00000 ...
   0.00040   0.00064  -0.00009  -0.36270  -0.00009  -0.00013  -0.38668  -0.00013   0.00000   0.00019  -0.00015   0.00019 ...
  -0.00038  -0.00061   0.00001  -0.00009  -0.36306   0.00001  -0.00013  -0.38718   0.00018   0.00000  -0.00007  -0.00019 ...
   0.00000   0.00001   0.00013   0.00000   0.00013   0.00018   0.00000   0.00018  -0.01789  -0.00001   0.00000  -0.00001 ...
   0.00002   0.00002  -0.00013   0.00013   0.00000  -0.00019   0.00019   0.00000  -0.00001  -0.01786  -0.00000  -0.00000 ...
  -0.00003  -0.00005  -0.00005  -0.00011  -0.00005  -0.00007  -0.00015  -0.00007   0.00000  -0.00000  -0.01797  -0.00000 ...
   0.00002   0.00002   0.00000   0.00013  -0.00013   0.00000   0.00019  -0.00019  -0.00001  -0.00000  -0.00000  -0.01786 ...
   ...  only 12  components have been written...
   === IMAGINARY PART:
  -0.00000  -0.00000  -0.00000  -0.00000  -0.00000  -0.00000  -0.00000  -0.00000  -0.00000  -0.00000  -0.00000  -0.00000 ...
   0.00000  -0.00000  -0.00000  -0.00000  -0.00000  -0.00000  -0.00000  -0.00000  -0.00000  -0.00000  -0.00000  -0.00000 ...
   0.00000   0.00000  -0.00000  -0.00000  -0.00000  -0.00000  -0.00000  -0.00000  -0.00000  -0.00000  -0.00000  -0.00000 ...
   0.00000   0.00000   0.00000  -0.00000  -0.00000  -0.00000  -0.00000  -0.00000  -0.00000  -0.00000  -0.00000  -0.00000 ...
   0.00000   0.00000   0.00000   0.00000  -0.00000  -0.00000  -0.00000  -0.00000  -0.00000  -0.00000  -0.00000  -0.00000 ...
   0.00000   0.00000   0.00000   0.00000   0.00000  -0.00000  -0.00000  -0.00000  -0.00000  -0.00000  -0.00000  -0.00000 ...
   0.00000   0.00000   0.00000   0.00000   0.00000   0.00000  -0.00000  -0.00000  -0.00000  -0.00000  -0.00000  -0.00000 ...
   0.00000   0.00000   0.00000   0.00000   0.00000   0.00000   0.00000  -0.00000  -0.00000  -0.00000  -0.00000  -0.00000 ...
   0.00000   0.00000   0.00000   0.00000   0.00000   0.00000   0.00000   0.00000  -0.00000  -0.00000  -0.00000  -0.00000 ...
   0.00000   0.00000   0.00000   0.00000   0.00000   0.00000   0.00000   0.00000   0.00000  -0.00000  -0.00000  -0.00000 ...
   0.00000   0.00000   0.00000   0.00000   0.00000   0.00000   0.00000   0.00000   0.00000   0.00000  -0.00000  -0.00000 ...
   0.00000   0.00000   0.00000   0.00000   0.00000   0.00000   0.00000   0.00000   0.00000   0.00000   0.00000  -0.00000 ...
   ...  only 12  components have been written...
 Atom #  4 - Component up-dwn
   === REAL PART:
   0.00000   0.00000   0.00000  -0.00000   0.00000   0.00000  -0.00000   0.00000  -0.00000   0.00000   0.00000   0.00000 ...
   0.00000   0.00000   0.00001  -0.00001   0.00001   0.00001  -0.00001   0.00001  -0.00000   0.00000   0.00000   0.00000 ...
   0.00000   0.00001  -0.00000  -0.00000   0.00000  -0.00000  -0.00000   0.00000   0.00000  -0.00000  -0.00000  -0.00000 ...
  -0.00000  -0.00001  -0.00000  -0.00000  -0.00000  -0.00000  -0.00000  -0.00000  -0.00000   0.00000  -0.00000   0.00000 ...
   0.00000   0.00001   0.00000  -0.00000  -0.00000   0.00000  -0.00000  -0.00000   0.00000  -0.00000  -0.00000  -0.00000 ...
   0.00000   0.00001  -0.00000  -0.00000   0.00000  -0.00000  -0.00000   0.00000   0.00000  -0.00000  -0.00000  -0.00000 ...
  -0.00000  -0.00001  -0.00000  -0.00000  -0.00000  -0.00000  -0.00000  -0.00000  -0.00000   0.00000  -0.00000   0.00000 ...
   0.00000   0.00001   0.00000  -0.00000  -0.00000   0.00000  -0.00000  -0.00000   0.00000  -0.00000  -0.00000  -0.00000 ...
  -0.00000  -0.00000   0.00000  -0.00000   0.00000   0.00000  -0.00000   0.00000  -0.00000  -0.00000  -0.00000  -0.00000 ...
   0.00000   0.00000  -0.00000   0.00000  -0.00000  -0.00000   0.00000  -0.00000  -0.00000  -0.00000  -0.00000   0.00000 ...
   0.00000   0.00000  -0.00000  -0.00000  -0.00000  -0.00000  -0.00000  -0.00000  -0.00000  -0.00000  -0.00000  -0.00000 ...
   0.00000   0.00000  -0.00000   0.00000  -0.00000  -0.00000   0.00000  -0.00000  -0.00000   0.00000  -0.00000  -0.00000 ...
   ...  only 12  components have been written...
   === IMAGINARY PART:
   0.00000   0.00000   0.00001  -0.00001   0.00001   0.00002  -0.00002   0.00002   0.00000  -0.00000  -0.00000  -0.00000 ...
   0.00000   0.00000   0.00002  -0.00002   0.00002   0.00003  -0.00003   0.00003   0.00000  -0.00000  -0.00000  -0.00000 ...
   0.00001   0.00002  -0.00000   0.00000  -0.00000  -0.00000   0.00000  -0.00000   0.00000  -0.00000  -0.00000  -0.00000 ...
  -0.00001  -0.00002   0.00000  -0.00000   0.00000   0.00000  -0.00000   0.00000  -0.00000   0.00000  -0.00001   0.00000 ...
   0.00001   0.00002  -0.00000   0.00000  -0.00000  -0.00000   0.00000  -0.00000   0.00000  -0.00000  -0.00000  -0.00000 ...
   0.00002   0.00003  -0.00000   0.00000  -0.00000  -0.00000   0.00000  -0.00000   0.00000  -0.00000  -0.00001  -0.00000 ...
  -0.00002  -0.00003   0.00000  -0.00000   0.00000   0.00000  -0.00000   0.00000  -0.00000   0.00000  -0.00001   0.00000 ...
   0.00002   0.00003  -0.00000   0.00000  -0.00000  -0.00000   0.00000  -0.00000   0.00000  -0.00000  -0.00001  -0.00000 ...
   0.00000   0.00000   0.00000  -0.00000   0.00000   0.00000  -0.00000   0.00000  -0.00000  -0.00000   0.00000   0.00000 ...
  -0.00000  -0.00000  -0.00000   0.00000  -0.00000  -0.00000   0.00000  -0.00000   0.00000  -0.00000   0.00000  -0.00000 ...
  -0.00000  -0.00000  -0.00000  -0.00001  -0.00000  -0.00001  -0.00001  -0.00001   0.00000   0.00000  -0.00000  -0.00000 ...
  -0.00000  -0.00000  -0.00000   0.00000  -0.00000  -0.00000   0.00000  -0.00000   0.00000  -0.00000   0.00000  -0.00000 ...
   ...  only 12  components have been written...
 Atom #  4 - Component dwn-up
   === REAL PART:
   0.00000   0.00000   0.00000  -0.00000   0.00000   0.00000  -0.00000   0.00000  -0.00000   0.00000   0.00000   0.00000 ...
   0.00000   0.00000   0.00001  -0.00001   0.00001   0.00001  -0.00001   0.00001  -0.00000   0.00000   0.00000   0.00000 ...
   0.00000   0.00001  -0.00000  -0.00000   0.00000  -0.00000  -0.00000   0.00000   0.00000  -0.00000  -0.00000  -0.00000 ...
[...]
                         0.00000    0.00000    0.00000    0.00000    1.00000
                         1.00000    0.00000    0.00000    0.00000    0.00000
                         0.00000    1.00000    0.00000    0.00000    0.00000
                         0.00000    0.00000    0.00000    0.00000    0.00000
                         0.00000    0.00000    0.00000    1.00000    0.00000
                         0.00000    0.00000    0.00000    0.00000    0.00000
             ecut      8.00000000E+00 Hartree
           etotal1    -3.7051722498E+02
           etotal2    -3.7055567235E+02
            fcart1     1.8061461803E-29 -6.9058530423E-30 -9.8275600987E-30
                      -2.0186339662E-29  5.8434141127E-30  1.1421218493E-29
                      -9.2963406339E-31  1.4608535282E-30 -1.3280486620E-31
                       3.0545119226E-30 -3.9841459860E-31 -1.4608535282E-30
            fcart2    -1.4338670682E-07  1.1977780730E-06  1.8186207502E-06
                      -1.4338670682E-07  1.1977780730E-06  1.8186207502E-06
                       1.4338670682E-07 -1.1977780730E-06 -1.8186207502E-06
                       1.4338670682E-07 -1.1977780730E-06 -1.8186207502E-06
-          fftalg         112
              ixc           7
           jdtset        1    2
            jpawu      3.50000000E-02  0.00000000E+00 Hartree
              kpt1     2.50000000E-01  2.50000000E-01  2.50000000E-01
                      -2.50000000E-01  2.50000000E-01  2.50000000E-01
                      -2.50000000E-01 -2.50000000E-01  2.50000000E-01
              kpt2     2.50000000E-01  2.50000000E-01  2.50000000E-01
                      -2.50000000E-01  2.50000000E-01  2.50000000E-01
                       2.50000000E-01 -2.50000000E-01  2.50000000E-01
                      -2.50000000E-01 -2.50000000E-01  2.50000000E-01
                       2.50000000E-01  2.50000000E-01 -2.50000000E-01
                      -2.50000000E-01  2.50000000E-01 -2.50000000E-01
                       2.50000000E-01 -2.50000000E-01 -2.50000000E-01
                      -2.50000000E-01 -2.50000000E-01 -2.50000000E-01
           kptopt1          1
           kptopt2          4
         kptrlatt        2    0    0      0    2    0      0    0    2
          kptrlen      1.12005714E+01
            lpawu           2      -1
P           mkmem1          3
P           mkmem2          8
            natom           4
            nband1         28
            nband2         60
           ndtset           2
            ngfft1         16      16      32
            ngfft2         16      16      30
          ngfftdg          16      16      32
             nkpt1          3
             nkpt2          8
           nspden1          2
           nspden2          4
          nspinor1          1
          nspinor2          2
            nstep          15
             nsym1         24
             nsym2          2
           ntypat           2
              occ1     2.000000  2.000000  2.000000  2.000000  2.000000  2.000000
                       2.000000  2.000000  2.000000  2.000000  2.000000  2.000000
                       2.000000  2.000000  2.000000  2.000000  2.000000  2.000000
                       2.000000  2.000000  2.000000  2.000000  1.999999  1.999981
                       0.000001  0.000000  0.000000  0.000000
                       2.000000  2.000000  2.000000  2.000000  2.000000  2.000000
                       2.000000  2.000000  2.000000  2.000000  2.000000  2.000000
                       2.000000  2.000000  2.000000  2.000000  2.000000  2.000000
                       2.000000  2.000000  2.000000  2.000000  2.000000  2.000000
                       0.000000  0.000000  0.000000  0.000000
                       2.000000  2.000000  2.000000  2.000000  2.000000  2.000000
                       2.000000  2.000000  2.000000  2.000000  2.000000  2.000000
                       2.000000  2.000000  2.000000  2.000000  2.000000  2.000000
                       2.000000  2.000000  2.000000  2.000000  2.000000  1.999999
                       0.000020  0.000000  0.000000  0.000000
              occ2     1.000000  1.000000  1.000000  1.000000  1.000000  1.000000
                       1.000000  1.000000  1.000000  1.000000  1.000000  1.000000
                       1.000000  1.000000  1.000000  1.000000  1.000000  1.000000
                       1.000000  1.000000  1.000000  1.000000  1.000000  1.000000
                       1.000000  1.000000  1.000000  1.000000  1.000000  1.000000
                       1.000000  1.000000  1.000000  1.000000  1.000000  1.000000
                       1.000000  1.000000  1.000000  1.000000  1.000000  1.000000
                       1.000000  1.000000  1.000000  1.000000  1.000000  1.000000
                       0.000000  0.000000  0.000000  0.000000  0.000000  0.000000
                       0.000000  0.000000  0.000000  0.000000  0.000000  0.000000
                       1.000000  1.000000  1.000000  1.000000  1.000000  1.000000
                       1.000000  1.000000  1.000000  1.000000  1.000000  1.000000
                       1.000000  1.000000  1.000000  1.000000  1.000000  1.000000
                       1.000000  1.000000  1.000000  1.000000  1.000000  1.000000
                       1.000000  1.000000  1.000000  1.000000  1.000000  1.000000
                       1.000000  1.000000  1.000000  1.000000  1.000000  1.000000
                       1.000000  1.000000  1.000000  1.000000  1.000000  1.000000
                       1.000000  1.000000  1.000000  1.000000  1.000000  1.000000
                       0.000000  0.000000  0.000000  0.000000  0.000000  0.000000
                       0.000000  0.000000  0.000000  0.000000  0.000000  0.000000
                       1.000000  1.000000  1.000000  1.000000  1.000000  1.000000
                       1.000000  1.000000  1.000000  1.000000  1.000000  1.000000
                       1.000000  1.000000  1.000000  1.000000  1.000000  1.000000
                       1.000000  1.000000  1.000000  1.000000  1.000000  1.000000
                       1.000000  1.000000  1.000000  1.000000  1.000000  1.000000
                       1.000000  1.000000  1.000000  1.000000  1.000000  1.000000
                       1.000000  1.000000  1.000000  1.000000  1.000000  1.000000
                       1.000000  1.000000  1.000000  1.000000  1.000000  1.000000
                       0.000000  0.000000  0.000000  0.000000  0.000000  0.000000
                       0.000000  0.000000  0.000000  0.000000  0.000000  0.000000
                       1.000000  1.000000  1.000000  1.000000  1.000000  1.000000
                       1.000000  1.000000  1.000000  1.000000  1.000000  1.000000
                       1.000000  1.000000  1.000000  1.000000  1.000000  1.000000
                       1.000000  1.000000  1.000000  1.000000  1.000000  1.000000
                       1.000000  1.000000  1.000000  1.000000  1.000000  1.000000
                       1.000000  1.000000  1.000000  1.000000  1.000000  1.000000
                       1.000000  1.000000  1.000000  1.000000  1.000000  1.000000
                       1.000000  1.000000  1.000000  1.000000  1.000000  1.000000
                       0.000000  0.000000  0.000000  0.000000  0.000000  0.000000
                       0.000000  0.000000  0.000000  0.000000  0.000000  0.000000
                       1.000000  1.000000  1.000000  1.000000  1.000000  1.000000
                       1.000000  1.000000  1.000000  1.000000  1.000000  1.000000
                       1.000000  1.000000  1.000000  1.000000  1.000000  1.000000
                       1.000000  1.000000  1.000000  1.000000  1.000000  1.000000
                       1.000000  1.000000  1.000000  1.000000  1.000000  1.000000
                       1.000000  1.000000  1.000000  1.000000  1.000000  1.000000
                       1.000000  1.000000  1.000000  1.000000  1.000000  1.000000
                       1.000000  1.000000  1.000000  1.000000  1.000000  1.000000
                       0.000000  0.000000  0.000000  0.000000  0.000000  0.000000
                       0.000000  0.000000  0.000000  0.000000  0.000000  0.000000
                       1.000000  1.000000  1.000000  1.000000  1.000000  1.000000
                       1.000000  1.000000  1.000000  1.000000  1.000000  1.000000
                       1.000000  1.000000  1.000000  1.000000  1.000000  1.000000
                       1.000000  1.000000  1.000000  1.000000  1.000000  1.000000
                       1.000000  1.000000  1.000000  1.000000  1.000000  1.000000
                       1.000000  1.000000  1.000000  1.000000  1.000000  1.000000
                       1.000000  1.000000  1.000000  1.000000  1.000000  1.000000
                       1.000000  1.000000  1.000000  1.000000  1.000000  1.000000
                       0.000000  0.000000  0.000000  0.000000  0.000000  0.000000
                       0.000000  0.000000  0.000000  0.000000  0.000000  0.000000
                       1.000000  1.000000  1.000000  1.000000  1.000000  1.000000
                       1.000000  1.000000  1.000000  1.000000  1.000000  1.000000
                       1.000000  1.000000  1.000000  1.000000  1.000000  1.000000
                       1.000000  1.000000  1.000000  1.000000  1.000000  1.000000
                       1.000000  1.000000  1.000000  1.000000  1.000000  1.000000
                       1.000000  1.000000  1.000000  1.000000  1.000000  1.000000
                       1.000000  1.000000  1.000000  1.000000  1.000000  1.000000
                       1.000000  1.000000  1.000000  1.000000  1.000000  1.000000
                       0.000000  0.000000  0.000000  0.000000  0.000000  0.000000
                       0.000000  0.000000  0.000000  0.000000  0.000000  0.000000
                       1.000000  1.000000  1.000000  1.000000  1.000000  1.000000
                       1.000000  1.000000  1.000000  1.000000  1.000000  1.000000
                       1.000000  1.000000  1.000000  1.000000  1.000000  1.000000
                       1.000000  1.000000  1.000000  1.000000  1.000000  1.000000
                       1.000000  1.000000  1.000000  1.000000  1.000000  1.000000
                       1.000000  1.000000  1.000000  1.000000  1.000000  1.000000
                       1.000000  1.000000  1.000000  1.000000  1.000000  1.000000
                       1.000000  1.000000  1.000000  1.000000  1.000000  1.000000
                       0.000000  0.000000  0.000000  0.000000  0.000000  0.000000
                       0.000000  0.000000  0.000000  0.000000  0.000000  0.000000
           occopt           7
        pawcpxocc1          1
        pawcpxocc2          2
        pawecutdg      1.00000000E+01 Hartree
           prtden           0
        prtdensph1          1
        prtdensph2          0
           prteig           0
            prtwf           0
            rprim      0.0000000000E+00  5.0000000000E-01  5.0000000000E-01
                       5.0000000000E-01  0.0000000000E+00  5.0000000000E-01
                       1.0000000000E+00  1.0000000000E+00  0.0000000000E+00
           shiftk      5.00000000E-01  5.00000000E-01  5.00000000E-01
          spgroup1        166
          spgroup2          0
           spinat      0.0000000000E+00  0.0000000000E+00  1.0000000000E+00
                       0.0000000000E+00  0.0000000000E+00 -1.0000000000E+00
                       0.0000000000E+00  0.0000000000E+00  0.0000000000E+00
                       0.0000000000E+00  0.0000000000E+00  0.0000000000E+00
           strten1     2.6628648100E-02  2.6628648100E-02  2.6628648100E-02
                      -1.1639044463E-04 -1.1639044463E-04  1.1639044463E-04
           strten2     2.6768946797E-02  2.6768946785E-02  2.6940391411E-02
                      -1.3002323295E-04 -1.3004018097E-04  6.6838952444E-05
           symafm1       1   -1    1   -1    1   -1    1   -1    1   -1
                         1   -1    1   -1    1   -1    1   -1    1   -1
                         1   -1    1   -1
           symafm2       1   -1
           symrel1     1  0  0   0  1  0   0  0  1       1  0  0   0  1  0   0  0  1
                      -1  0  0   0 -1  0   0  0 -1      -1  0  0   0 -1  0   0  0 -1
                       0  1  0   1  0  0   0  0  1       0  1  0   1  0  0   0  0  1
                       0 -1  0  -1  0  0   0  0 -1       0 -1  0  -1  0  0   0  0 -1
                       0 -1  0   1 -1  0   0 -2  1       0 -1  0   1 -1  0   0 -2  1
                       0  1  0  -1  1  0   0  2 -1       0  1  0  -1  1  0   0  2 -1
                       1 -1  0   0 -1  0   0 -2  1       1 -1  0   0 -1  0   0 -2  1
                      -1  1  0   0  1  0   0  2 -1      -1  1  0   0  1  0   0  2 -1
                      -1  1  0  -1  0  0  -2  0  1      -1  1  0  -1  0  0  -2  0  1
                       1 -1  0   1  0  0   2  0 -1       1 -1  0   1  0  0   2  0 -1
                      -1  0  0  -1  1  0  -2  0  1      -1  0  0  -1  1  0  -2  0  1
                       1  0  0   1 -1  0   2  0 -1       1  0  0   1 -1  0   2  0 -1
           symrel2     1  0  0   0  1  0   0  0  1       1  0  0   0  1  0   0  0  1
            tnons1     0.0000000  0.0000000  0.0000000     0.0000000  0.0000000  0.5000000
                       0.0000000  0.0000000  0.0000000     0.0000000  0.0000000  0.5000000
                       0.0000000  0.0000000  0.0000000     0.0000000  0.0000000  0.5000000
                       0.0000000  0.0000000  0.0000000     0.0000000  0.0000000  0.5000000
                       0.0000000  0.0000000  0.0000000     0.0000000  0.0000000  0.5000000
                       0.0000000  0.0000000  0.0000000     0.0000000  0.0000000  0.5000000
                       0.0000000  0.0000000  0.0000000     0.0000000  0.0000000  0.5000000
                       0.0000000  0.0000000  0.0000000     0.0000000  0.0000000  0.5000000
                       0.0000000  0.0000000  0.0000000     0.0000000  0.0000000  0.5000000
                       0.0000000  0.0000000  0.0000000     0.0000000  0.0000000  0.5000000
                       0.0000000  0.0000000  0.0000000     0.0000000  0.0000000  0.5000000
                       0.0000000  0.0000000  0.0000000     0.0000000  0.0000000  0.5000000
            tnons2     0.0000000  0.0000000  0.0000000     0.0000000  0.0000000  0.5000000
           tolvrs      1.00000000E-07
           tsmear      1.50000000E-02 Hartree
            typat      1  1  2  2
            upawu      3.00000000E-01  0.00000000E+00 Hartree
        usedmatpu           3
          usepawu           1
-          useylm           1
-    use_gpu_cuda1          1
-    use_gpu_cuda2          0
-        wfoptalg1         14
-        wfoptalg2         10
              wtk1       0.25000    0.50000    0.25000
              wtk2       0.12500    0.12500    0.12500    0.12500    0.12500    0.12500
                         0.12500    0.12500
           xangst      0.0000000000E+00  0.0000000000E+00  0.0000000000E+00
                       2.0955417460E+00  2.0955417460E+00  0.0000000000E+00
                       2.0955417460E+00  2.0955417460E+00  2.0955417460E+00
                       4.1910834920E+00  4.1910834920E+00  2.0955417460E+00
            xcart      0.0000000000E+00  0.0000000000E+00  0.0000000000E+00
                       3.9600000000E+00  3.9600000000E+00  0.0000000000E+00
                       3.9600000000E+00  3.9600000000E+00  3.9600000000E+00
                       7.9200000000E+00  7.9200000000E+00  3.9600000000E+00
             xred      0.0000000000E+00  0.0000000000E+00  0.0000000000E+00
                       0.0000000000E+00  0.0000000000E+00  5.0000000000E-01
                       5.0000000000E-01  5.0000000000E-01  2.5000000000E-01
                       5.0000000000E-01  5.0000000000E-01  7.5000000000E-01
            znucl       28.00000    8.00000

================================================================================


- Timing analysis has been suppressed with timopt=0



================================================================================

 Suggested references for the acknowledgment of ABINIT usage.

 The users of ABINIT have little formal obligations with respect to the ABINIT group
 (those specified in the GNU General Public License, http://www.gnu.org/copyleft/gpl.txt).
 However, it is common practice in the scientific literature,
 to acknowledge the efforts of people that have made the research possible.
 In this spirit, please find below suggested citations of work written by ABINIT developers,
 corresponding to implementations inside of ABINIT that you have used in the present run.
 Note also that it will be of great value to readers of publications presenting these results,
 to read papers enabling them to understand the theoretical formalism and details
 of the ABINIT implementation.
 For information on why they are suggested, see also http://www.abinit.org/about/?text=acknowledgments.

 [1] Gamma and beta cerium: LDA+U calculations of ground-state parameters.
 B. Amadon, F. Jollet and M. Torrent, Phys. Rev. B 77, 155104 (2008).
 Comment : LDA+U calculations, usepawu/=0. Strong suggestion to cite this paper.

 [2] Implementation of the Projector Augmented-Wave Method in the ABINIT code.
 M. Torrent, F. Jollet, F. Bottin, G. Zerah, and X. Gonze Comput. Mat. Science 42, 337, (2008).
 Comment : PAW calculations. Strong suggestion to cite this paper.

 [3] ABINIT : First-principles approach of materials and nanosystem properties.
 X. Gonze, B. Amadon, P.-M. Anglade, J.-M. Beuken, F. Bottin, P. Boulanger, F. Bruneval,
 D. Caliste, R. Caracas, M. Cote, T. Deutsch, L. Genovese, Ph. Ghosez, M. Giantomassi
 S. Goedecker, D.R. Hamann, P. Hermet, F. Jollet, G. Jomard, S. Leroux, M. Mancini, S. Mazevet,
 M.J.T. Oliveira, G. Onida, Y. Pouillon, T. Rangel, G.-M. Rignanese, D. Sangalli, R. Shaltaf,
 M. Torrent, M.J. Verstraete, G. Zerah, J.W. Zwanziger
 Computer Phys. Comm. 180, 2582-2615 (2009).
 Comment : the third generic paper describing the ABINIT project.
 Note that a version of this paper, that is not formatted for Computer Phys. Comm. 
 is available at http://www.abinit.org/about/ABINIT_CPC_v10.pdf .
 The licence allows the authors to put it on the Web.

 [4] A brief introduction to the ABINIT software package.
 X. Gonze, G.-M. Rignanese, M. Verstraete, J.-M. Beuken, Y. Pouillon, R. Caracas, F. Jollet,
 M. Torrent, G. Zerah, M. Mikami, Ph. Ghosez, M. Veithen, J.-Y. Raty, V. Olevano, F. Bruneval,
 L. Reining, R. Godby, G. Onida, D.R. Hamann, and D.C. Allan.
 Z. Kristallogr. 220, 558-562 (2005).
 Comment : the second generic paper describing the ABINIT project. Note that this paper
 should be cited especially if you are using the GW part of ABINIT, as several authors
 of this part are not in the list of authors of the first or third paper.
 The .pdf of the latter paper is available at http://www.abinit.org/about/zfk_0505-06_558-562.pdf.
 Note that it should not redistributed (Copyright by Oldenburg Wissenshaftverlag,
 the licence allows the authors to put it on the Web).


 And optionally :

 [5] First-principles computation of material properties : the ABINIT software project. 
 X. Gonze, J.-M. Beuken, R. Caracas, F. Detraux, M. Fuchs, G.-M. Rignanese, L. Sindic,
 M. Verstraete, G. Zerah, F. Jollet, M. Torrent, A. Roy, M. Mikami, Ph. Ghosez, J.-Y. Raty, D.C. Allan.
 Computational Materials Science 25, 478-492 (2002). http://dx.doi.org/10.1016/S0927-0256(02)00325-7
 Comment : the original paper describing the ABINIT project.
-
- Proc.   0 individual time (sec): cpu=         49.8  wall=         50.3

================================================================================

 Calculation completed.
.Delivered    5 WARNINGs and   2 COMMENTs to log file.
+Overall time at end (sec) : cpu=         49.8  wall=         50.3
