
.Version 7.7.0 of ABINIT 
.(MPI version, prepared for a x86_64_linux_gnu4.6 computer) 

.Copyright (C) 1998-2014 ABINIT group . 
 ABINIT comes with ABSOLUTELY NO WARRANTY.
 It is free software, and you are welcome to redistribute it
 under certain conditions (GNU General Public License,
 see ~abinit/COPYING or http://www.gnu.org/copyleft/gpl.txt).

 ABINIT is a project of the Universite Catholique de Louvain,
 Corning Inc. and other collaborators, see ~abinit/doc/developers/contributors.txt .
 Please read ~abinit/doc/users/acknowledgments.html for suggested
 acknowledgments of the ABINIT effort.
 For more information, see http://www.abinit.org .

.Starting date : Tue  7 Jan 2014.
- ( at 17h16 )
  
- input  file    -> t04.in
- output file    -> t04.out
- root for input  files -> t04i
- root for output files -> t04o


 DATASET    1 : space group Fd -3 m (#227); Bravais cF (face-center cubic)
================================================================================
 Values of the parameters that define the memory need for DATASET  1.
   intxc =         0  ionmov =         2    iscf =        17 xclevel =         2
_ lmnmax =         8   lnmax =         4   mband =         4  mffmem =         1
P  mgfft =        12   mkmem =         2 mpssoang=         2     mpw =        74
  mqgrid =      3001   natom =         2    nfft =      1728    nkpt =         2
  nloalg =         4  nspden =         1 nspinor =         1  nsppol =         1
    nsym =        48  n1xccc =         1  ntypat =         1  occopt =         1
 PAW method is used; the additional fine FFT grid is defined by:
   mgfftf=        24    nfftf =     13824
================================================================================
P This job should need less than                       4.642 Mbytes of memory.
  Rough estimation (10% accuracy) of disk space for files :
_ WF disk file :      0.011 Mbytes ; DEN or POT disk file :      0.107 Mbytes.
================================================================================


 DATASET    2 : space group Fd -3 m (#227); Bravais cF (face-center cubic)
================================================================================
 Values of the parameters that define the memory need for DATASET  2.
   intxc =         0  ionmov =         2    iscf =        17 xclevel =         2
_ lmnmax =         8   lnmax =         4   mband =         4  mffmem =         1
P  mgfft =        15   mkmem =         2 mpssoang=         2     mpw =       113
  mqgrid =      3001   natom =         2    nfft =      3375    nkpt =         2
  nloalg =         4  nspden =         1 nspinor =         1  nsppol =         1
    nsym =        48  n1xccc =         1  ntypat =         1  occopt =         1
 PAW method is used; the additional fine FFT grid is defined by:
   mgfftf=        24    nfftf =     13824
================================================================================

 memory : COMMENT -
  The determination of memory needs at this stage is meaningless,
  since getcell =  -1 is non-zero, while idtset=  2.
  The following numbers are obtained by supposing that acell and rprim
  are NOT taken from a previous dataset. You cannot rely on them.

P This job should need less than                       4.895 Mbytes of memory.
  Rough estimation (10% accuracy) of disk space for files :
_ WF disk file :      0.016 Mbytes ; DEN or POT disk file :      0.107 Mbytes.
================================================================================

--------------------------------------------------------------------------------
------------- Echo of variables that govern the present computation ------------
--------------------------------------------------------------------------------
-
- outvars: echo of selected default values                                      
-   accesswff0 =  0 , fftalg0 =112 , wfoptalg0 = 10
-
- outvars: echo of global parameters not present in the input file              
-  max_nthreads =    0
-
 -outvars: echo values of preprocessed input variables --------
            acell      1.0400000000E+01  1.0400000000E+01  1.0400000000E+01 Bohr
              amu      2.80855000E+01
      chksymbreak           0
          dilatmx      1.01000000E+00
             ecut1     3.00000000E+00 Hartree
             ecut2     4.00000000E+00 Hartree
           ecutsm      5.00000000E-01 Hartree
-          fftalg         401
          getcell          -1
 gpu_linalg_limit           0
           ionmov           2
              ixc          11
           jdtset        1    2
              kpt      2.50000000E-01  2.50000000E-01  2.50000000E-01
                      -2.50000000E-01  2.50000000E-01  2.50000000E-01
         kptrlatt        2    0    0      0    2    0      0    0    2
          kptrlen      1.47078210E+01
P           mkmem           2
            natom           2
            nband           4
           ndtset           2
            ngfft1         12      12      12
            ngfft2         15      15      15
          ngfftdg          24      24      24
             nkpt           2
            nstep          20
             nsym          48
            ntime           4
           ntypat           1
              occ      2.000000  2.000000  2.000000  2.000000
          optcell           1
        pawecutdg      1.00000000E+01 Hartree
           prtden           0
           prteig           0
            prtwf           0
            rprim      0.0000000000E+00  5.0000000000E-01  5.0000000000E-01
                       5.0000000000E-01  0.0000000000E+00  5.0000000000E-01
                       5.0000000000E-01  5.0000000000E-01  0.0000000000E+00
           shiftk      5.00000000E-01  5.00000000E-01  5.00000000E-01
          spgroup         227
           symrel      1  0  0   0  1  0   0  0  1      -1  0  0   0 -1  0   0  0 -1
                       0 -1  1   0 -1  0   1 -1  0       0  1 -1   0  1  0  -1  1  0
                      -1  0  0  -1  0  1  -1  1  0       1  0  0   1  0 -1   1 -1  0
                       0  1 -1   1  0 -1   0  0 -1       0 -1  1  -1  0  1   0  0  1
                      -1  0  0  -1  1  0  -1  0  1       1  0  0   1 -1  0   1  0 -1
                       0 -1  1   1 -1  0   0 -1  0       0  1 -1  -1  1  0   0  1  0
                       1  0  0   0  0  1   0  1  0      -1  0  0   0  0 -1   0 -1  0
                       0  1 -1   0  0 -1   1  0 -1       0 -1  1   0  0  1  -1  0  1
                      -1  0  1  -1  1  0  -1  0  0       1  0 -1   1 -1  0   1  0  0
                       0 -1  0   1 -1  0   0 -1  1       0  1  0  -1  1  0   0  1 -1
                       1  0 -1   0  0 -1   0  1 -1      -1  0  1   0  0  1   0 -1  1
                       0  1  0   0  0  1   1  0  0       0 -1  0   0  0 -1  -1  0  0
                       1  0 -1   0  1 -1   0  0 -1      -1  0  1   0 -1  1   0  0  1
                       0 -1  0   0 -1  1   1 -1  0       0  1  0   0  1 -1  -1  1  0
                      -1  0  1  -1  0  0  -1  1  0       1  0 -1   1  0  0   1 -1  0
                       0  1  0   1  0  0   0  0  1       0 -1  0  -1  0  0   0  0 -1
                       0  0 -1   0  1 -1   1  0 -1       0  0  1   0 -1  1  -1  0  1
                       1 -1  0   0 -1  1   0 -1  0      -1  1  0   0  1 -1   0  1  0
                       0  0  1   1  0  0   0  1  0       0  0 -1  -1  0  0   0 -1  0
                      -1  1  0  -1  0  0  -1  0  1       1 -1  0   1  0  0   1  0 -1
                       0  0  1   0  1  0   1  0  0       0  0 -1   0 -1  0  -1  0  0
                       1 -1  0   0 -1  0   0 -1  1      -1  1  0   0  1  0   0  1 -1
                       0  0 -1   1  0 -1   0  1 -1       0  0  1  -1  0  1   0 -1  1
                      -1  1  0  -1  0  1  -1  0  0       1 -1  0   1  0 -1   1  0  0
            tnons      0.0000000  0.0000000  0.0000000     0.2500000  0.2500000  0.2500000
                       0.0000000  0.0000000  0.0000000     0.2500000  0.2500000  0.2500000
                       0.0000000  0.0000000  0.0000000     0.2500000  0.2500000  0.2500000
                       0.0000000  0.0000000  0.0000000     0.2500000  0.2500000  0.2500000
                       0.0000000  0.0000000  0.0000000     0.2500000  0.2500000  0.2500000
                       0.0000000  0.0000000  0.0000000     0.2500000  0.2500000  0.2500000
                       0.0000000  0.0000000  0.0000000     0.2500000  0.2500000  0.2500000
                       0.0000000  0.0000000  0.0000000     0.2500000  0.2500000  0.2500000
                       0.0000000  0.0000000  0.0000000     0.2500000  0.2500000  0.2500000
                       0.0000000  0.0000000  0.0000000     0.2500000  0.2500000  0.2500000
                       0.0000000  0.0000000  0.0000000     0.2500000  0.2500000  0.2500000
                       0.0000000  0.0000000  0.0000000     0.2500000  0.2500000  0.2500000
                       0.0000000  0.0000000  0.0000000     0.2500000  0.2500000  0.2500000
                       0.0000000  0.0000000  0.0000000     0.2500000  0.2500000  0.2500000
                       0.0000000  0.0000000  0.0000000     0.2500000  0.2500000  0.2500000
                       0.0000000  0.0000000  0.0000000     0.2500000  0.2500000  0.2500000
                       0.0000000  0.0000000  0.0000000     0.2500000  0.2500000  0.2500000
                       0.0000000  0.0000000  0.0000000     0.2500000  0.2500000  0.2500000
                       0.0000000  0.0000000  0.0000000     0.2500000  0.2500000  0.2500000
                       0.0000000  0.0000000  0.0000000     0.2500000  0.2500000  0.2500000
                       0.0000000  0.0000000  0.0000000     0.2500000  0.2500000  0.2500000
                       0.0000000  0.0000000  0.0000000     0.2500000  0.2500000  0.2500000
                       0.0000000  0.0000000  0.0000000     0.2500000  0.2500000  0.2500000
                       0.0000000  0.0000000  0.0000000     0.2500000  0.2500000  0.2500000
           toldfe      1.00000000E-08 Hartree
           tolmxf      1.00000000E-04
            typat      1  1
-          useylm           1
-    use_gpu_cuda           1
-        wfoptalg          14
              wtk        0.25000    0.75000
           xangst      0.0000000000E+00  0.0000000000E+00  0.0000000000E+00
                       1.3758607423E+00  1.3758607423E+00  1.3758607423E+00
            xcart      0.0000000000E+00  0.0000000000E+00  0.0000000000E+00
                       2.6000000000E+00  2.6000000000E+00  2.6000000000E+00
             xred      0.0000000000E+00  0.0000000000E+00  0.0000000000E+00
                       2.5000000000E-01  2.5000000000E-01  2.5000000000E-01
            znucl       14.00000

================================================================================

 chkinp: Checking input parameters for consistency, jdtset=   1.

 chkinp: Checking input parameters for consistency, jdtset=   2.

================================================================================
== DATASET  1 ==================================================================
-   nproc =    1

 Exchange-correlation functional for the present dataset will be:
  GGA: Perdew-Burke-Ernzerhof functional - ixc=11
 Citation for XC functional:
  J.P.Perdew, K.Burke, M.Ernzerhof, PRL 77, 3865 (1996)

 Real(R)+Recip(G) space primitive vectors, cartesian coordinates (Bohr,Bohr^-1):
 R(1)=  0.0000000  5.2000000  5.2000000  G(1)= -0.0961538  0.0961538  0.0961538
 R(2)=  5.2000000  0.0000000  5.2000000  G(2)=  0.0961538 -0.0961538  0.0961538
 R(3)=  5.2000000  5.2000000  0.0000000  G(3)=  0.0961538  0.0961538 -0.0961538
 Unit cell volume ucvol=  2.8121600E+02 bohr^3
 Angles (23,13,12)=  6.00000000E+01  6.00000000E+01  6.00000000E+01 degrees

 Coarse grid specifications (used for wave-functions):

 getcut: wavevector=  0.0000  0.0000  0.0000  ngfft=  12  12  12
         ecut(hartree)=      3.060   => boxcut(ratio)=   2.07212

 Fine grid specifications (used for densities):

 getcut: wavevector=  0.0000  0.0000  0.0000  ngfft=  24  24  24
         ecut(hartree)=     10.201   => boxcut(ratio)=   2.26990

 getcut : COMMENT -
  Note that boxcut > 2.2 ; recall that boxcut=Gcut(box)/Gcut(sphere) = 2
  is sufficient for exact treatment of convolution.
  Such a large boxcut is a waste : you could raise ecut
  e.g. ecut=   13.140006 Hartrees makes boxcut=2


--- Pseudopotential description ------------------------------------------------
- pspini: atom type   1  psp file is /home/buildbot/ABINIT/buda_gcc46_cuda/amartin_7.7.0-public/tests/Psps_for_tests/si_ps.736.pbe
- pspatm: opening atomic psp file    /home/buildbot/ABINIT/buda_gcc46_cuda/amartin_7.7.0-public/tests/Psps_for_tests/si_ps.736.pbe
- silicon - PAW data extracted from US-psp (D.Vanderbilt) - generated by USpp2Abinit v2.2.1
- 14.00000   4.00000  20071017                znucl, zion, pspdat
    7   11    1    0       620   0.00000      pspcod,pspxc,lmax,lloc,mmax,r2well
 Pseudopotential format is: paw3
 basis_size (lnmax)=  4 (lmn_size=  8), orbitals=   0   0   1   1
 Spheres core radius: rc_sph= 1.81165366
 4 radial meshes are used:
  - mesh 1: r(i)=AA*[exp(BB*(i-1))-1], size= 620 , AA= 0.65134E-04 BB= 0.16667E-01
  - mesh 2: r(i)=AA*[exp(BB*(i-1))-1], size= 616 , AA= 0.65134E-04 BB= 0.16667E-01
  - mesh 3: r(i)=AA*[exp(BB*(i-1))-1], size= 663 , AA= 0.65134E-04 BB= 0.16667E-01
  - mesh 4: r(i)=AA*[exp(BB*(i-1))-1], size= 717 , AA= 0.65134E-04 BB= 0.16667E-01
 Shapefunction is BESSEL type: shapef(r,l)=aa(1,l)*jl(q(1,l)*r)+aa(2,l)*jl(q(2,l)*r)
 Radius for shape functions = sphere core radius
 Radial grid used for partial waves is grid 1
 Radial grid used for projectors is grid  2
 Radial grid used for (t)core density is grid 3
 Radial grid used for Vloc is grid 4
 Compensation charge density is taken into account in XC energy/potential
 pspatm: atomic psp has been read  and splines computed

   5.56877689E+01                                ecore*ucvol(ha*bohr**3)
--------------------------------------------------------------------------------

P newkpt: treating      4 bands with npw=      68 for ikpt=   1 by node    0
P newkpt: treating      4 bands with npw=      74 for ikpt=   2 by node    0

_setup2: Arith. and geom. avg. npw (full set) are      72.500      72.452

================================================================================

=== [ionmov= 2] Broyden-Fletcher-Goldfard-Shanno method (forces)            
================================================================================

--- Iteration: (1/4) Internal Cycle: (1/1)
--------------------------------------------------------------------------------

---SELF-CONSISTENT-FIELD CONVERGENCE--------------------------------------------

     iter   Etot(hartree)      deltaE(h)  residm     nres2
 ETOT  1  -7.9496563359621    -7.950E+00 1.406E-05 1.706E+00
 ETOT  2  -7.9325258238420     1.713E-02 9.798E-10 2.957E-01
 ETOT  3  -7.9288086667993     3.717E-03 2.110E-08 4.296E-03
 ETOT  4  -7.9290334205775    -2.248E-04 4.347E-09 5.792E-05
 ETOT  5  -7.9290362512402    -2.831E-06 6.663E-11 3.158E-06
 ETOT  6  -7.9290366169901    -3.657E-07 6.672E-12 1.760E-08
 ETOT  7  -7.9290366203123    -3.322E-09 2.796E-14 1.037E-09
 ETOT  8  -7.9290366203469    -3.464E-11 2.257E-15 1.276E-11

 At SCF step    8, etot is converged : 
  for the second time, diff in etot=  3.464E-11 < toldfe=  1.000E-08

 Cartesian components of stress tensor (hartree/bohr^3)
  sigma(1 1)=  5.10120859E-05  sigma(3 2)=  0.00000000E+00
  sigma(2 2)=  5.10120859E-05  sigma(3 1)=  0.00000000E+00
  sigma(3 3)=  5.10120859E-05  sigma(2 1)=  0.00000000E+00


 PAW TEST:
 ==== Compensation charge inside spheres ============
 The following values must be close to each other ...
 Compensation charge over spherical meshes =     -0.231924071536240
 Compensation charge over fine fft grid    =     -0.231925403682718

 ==== Results concerning PAW augmentation regions ====

 Total pseudopotential strength Dij (hartree):
 Atom #  1
   0.40798   0.93032   0.00000   0.00000   0.00000   0.00000   0.00000   0.00000
   0.93032   2.10687   0.00000   0.00000   0.00000   0.00000   0.00000   0.00000
   0.00000   0.00000   0.13041   0.00000   0.00000   0.27655   0.00000   0.00000
   0.00000   0.00000   0.00000   0.13041   0.00000   0.00000   0.27655   0.00000
   0.00000   0.00000   0.00000   0.00000   0.13041   0.00000   0.00000   0.27655
   0.00000   0.00000   0.27655   0.00000   0.00000   0.58383   0.00000   0.00000
   0.00000   0.00000   0.00000   0.27655   0.00000   0.00000   0.58383   0.00000
   0.00000   0.00000   0.00000   0.00000   0.27655   0.00000   0.00000   0.58383
 Atom #  2
   0.40798   0.93032   0.00000   0.00000   0.00000   0.00000   0.00000   0.00000
   0.93032   2.10687   0.00000   0.00000   0.00000   0.00000   0.00000   0.00000
   0.00000   0.00000   0.13041   0.00000   0.00000   0.27655   0.00000   0.00000
   0.00000   0.00000   0.00000   0.13041   0.00000   0.00000   0.27655   0.00000
   0.00000   0.00000   0.00000   0.00000   0.13041   0.00000   0.00000   0.27655
   0.00000   0.00000   0.27655   0.00000   0.00000   0.58383   0.00000   0.00000
   0.00000   0.00000   0.00000   0.27655   0.00000   0.00000   0.58383   0.00000
   0.00000   0.00000   0.00000   0.00000   0.27655   0.00000   0.00000   0.58383


 Augmentation waves occupancies Rhoij:
 Atom #  1
   0.42394  -0.58930   0.00000   0.00000   0.00000   0.00000   0.00000   0.00000
  -0.58930   0.84588   0.00000   0.00000   0.00000   0.00000   0.00000   0.00000
   0.00000   0.00000   1.99205   0.00000   0.00000  -0.30099   0.00000   0.00000
   0.00000   0.00000   0.00000   1.99205   0.00000   0.00000  -0.30099   0.00000
   0.00000   0.00000   0.00000   0.00000   1.99205   0.00000   0.00000  -0.30099
   0.00000   0.00000  -0.30099   0.00000   0.00000   0.04770   0.00000   0.00000
   0.00000   0.00000   0.00000  -0.30099   0.00000   0.00000   0.04770   0.00000
   0.00000   0.00000   0.00000   0.00000  -0.30099   0.00000   0.00000   0.04770
 Atom #  2
   0.42394  -0.58930   0.00000   0.00000   0.00000   0.00000   0.00000   0.00000
  -0.58930   0.84588   0.00000   0.00000   0.00000   0.00000   0.00000   0.00000
   0.00000   0.00000   1.99205   0.00000   0.00000  -0.30099   0.00000   0.00000
   0.00000   0.00000   0.00000   1.99205   0.00000   0.00000  -0.30099   0.00000
   0.00000   0.00000   0.00000   0.00000   1.99205   0.00000   0.00000  -0.30099
   0.00000   0.00000  -0.30099   0.00000   0.00000   0.04770   0.00000   0.00000
   0.00000   0.00000   0.00000  -0.30099   0.00000   0.00000   0.04770   0.00000
   0.00000   0.00000   0.00000   0.00000  -0.30099   0.00000   0.00000   0.04770



---OUTPUT-----------------------------------------------------------------------

 Cartesian coordinates (xcart) [bohr]
  0.00000000000000E+00  0.00000000000000E+00  0.00000000000000E+00
  2.60000000000000E+00  2.60000000000000E+00  2.60000000000000E+00
 Reduced coordinates (xred)
  0.00000000000000E+00  0.00000000000000E+00  0.00000000000000E+00
  2.50000000000000E-01  2.50000000000000E-01  2.50000000000000E-01
 Cartesian forces (fcart) [Ha/bohr]; max,rms= 4.97104E-27 3.57956E-27 (free atoms)
  4.97103733505425E-27 -1.65701244501808E-27 -3.31402489003617E-27
 -4.97103733505425E-27  1.65701244501808E-27  3.31402489003617E-27
 Reduced forces (fred)
  2.58493941422821E-26 -2.58493941422821E-26 -1.72329294281881E-26
 -2.58493941422821E-26 -8.61646471409404E-27  1.72329294281881E-26
 Scale of Primitive Cell (acell) [bohr]
  1.04000000000000E+01  1.04000000000000E+01  1.04000000000000E+01
 Real space primitive translations (rprimd) [bohr]
  0.00000000000000E+00  5.20000000000000E+00  5.20000000000000E+00
  5.20000000000000E+00  0.00000000000000E+00  5.20000000000000E+00
  5.20000000000000E+00  5.20000000000000E+00  0.00000000000000E+00
 Unitary Cell Volume (ucvol) [Bohr^3]=  2.81216000000000E+02
 Angles (23,13,12)= [degrees]
  6.00000000000000E+01  6.00000000000000E+01  6.00000000000000E+01
 Lengths [Bohr]
  7.35391052434009E+00  7.35391052434009E+00  7.35391052434009E+00
 Stress tensor in cartesian coordinates (strten) [Ha/bohr^3]
  5.10120859291557E-05  0.00000000000000E+00  0.00000000000000E+00
  0.00000000000000E+00  5.10120859291555E-05  0.00000000000000E+00
  0.00000000000000E+00  0.00000000000000E+00  5.10120859291555E-05
 Total energy (etotal) [Ha]= -7.92903662034691E+00

--- Iteration: (2/4) Internal Cycle: (1/1)
--------------------------------------------------------------------------------

---SELF-CONSISTENT-FIELD CONVERGENCE--------------------------------------------

     iter   Etot(hartree)      deltaE(h)  residm     nres2
 ETOT  1  -7.9290948266600    -7.929E+00 2.455E-13 3.766E-04
 ETOT  2  -7.9290995221169    -4.695E-06 5.427E-14 1.523E-05
 ETOT  3  -7.9290999932987    -4.712E-07 5.398E-12 3.286E-06
 ETOT  4  -7.9291002111327    -2.178E-07 2.384E-12 1.123E-07
 ETOT  5  -7.9291002206072    -9.475E-09 4.625E-14 1.879E-09
 ETOT  6  -7.9291002204734     1.337E-10 8.558E-16 1.397E-12

 At SCF step    6, etot is converged : 
  for the second time, diff in etot=  1.337E-10 < toldfe=  1.000E-08

 Cartesian components of stress tensor (hartree/bohr^3)
  sigma(1 1)=  4.03413326E-05  sigma(3 2)=  0.00000000E+00
  sigma(2 2)=  4.03413326E-05  sigma(3 1)=  0.00000000E+00
  sigma(3 3)=  4.03413326E-05  sigma(2 1)=  0.00000000E+00


 PAW TEST:
 ==== Compensation charge inside spheres ============
 The following values must be close to each other ...
 Compensation charge over spherical meshes =     -0.231592709126274
 Compensation charge over fine fft grid    =     -0.231598755256937

 ==== Results concerning PAW augmentation regions ====

 Total pseudopotential strength Dij (hartree):
 Atom #  1
   0.40794   0.93019   0.00000   0.00000   0.00000   0.00000   0.00000   0.00000
   0.93019   2.10651   0.00000   0.00000   0.00000   0.00000   0.00000   0.00000
   0.00000   0.00000   0.13041   0.00000   0.00000   0.27655   0.00000   0.00000
   0.00000   0.00000   0.00000   0.13041   0.00000   0.00000   0.27655   0.00000
   0.00000   0.00000   0.00000   0.00000   0.13041   0.00000   0.00000   0.27655
   0.00000   0.00000   0.27655   0.00000   0.00000   0.58380   0.00000   0.00000
   0.00000   0.00000   0.00000   0.27655   0.00000   0.00000   0.58380   0.00000
   0.00000   0.00000   0.00000   0.00000   0.27655   0.00000   0.00000   0.58380
 Atom #  2
   0.40794   0.93019   0.00000   0.00000   0.00000   0.00000   0.00000   0.00000
   0.93019   2.10651   0.00000   0.00000   0.00000   0.00000   0.00000   0.00000
   0.00000   0.00000   0.13041   0.00000   0.00000   0.27655   0.00000   0.00000
   0.00000   0.00000   0.00000   0.13041   0.00000   0.00000   0.27655   0.00000
   0.00000   0.00000   0.00000   0.00000   0.13041   0.00000   0.00000   0.27655
   0.00000   0.00000   0.27655   0.00000   0.00000   0.58380   0.00000   0.00000
   0.00000   0.00000   0.00000   0.27655   0.00000   0.00000   0.58380   0.00000
   0.00000   0.00000   0.00000   0.00000   0.27655   0.00000   0.00000   0.58380


 Augmentation waves occupancies Rhoij:
 Atom #  1
   0.42107  -0.58621   0.00000   0.00000   0.00000   0.00000   0.00000   0.00000
  -0.58621   0.84333   0.00000   0.00000   0.00000   0.00000   0.00000   0.00000
   0.00000   0.00000   2.00260   0.00000   0.00000  -0.30330   0.00000   0.00000
   0.00000   0.00000   0.00000   2.00260   0.00000   0.00000  -0.30330   0.00000
   0.00000   0.00000   0.00000   0.00000   2.00260   0.00000   0.00000  -0.30330
   0.00000   0.00000  -0.30330   0.00000   0.00000   0.04820   0.00000   0.00000
   0.00000   0.00000   0.00000  -0.30330   0.00000   0.00000   0.04820   0.00000
   0.00000   0.00000   0.00000   0.00000  -0.30330   0.00000   0.00000   0.04820
 Atom #  2
   0.42107  -0.58621   0.00000   0.00000   0.00000   0.00000   0.00000   0.00000
  -0.58621   0.84333   0.00000   0.00000   0.00000   0.00000   0.00000   0.00000
   0.00000   0.00000   2.00260   0.00000   0.00000  -0.30330   0.00000   0.00000
   0.00000   0.00000   0.00000   2.00260   0.00000   0.00000  -0.30330   0.00000
   0.00000   0.00000   0.00000   0.00000   2.00260   0.00000   0.00000  -0.30330
   0.00000   0.00000  -0.30330   0.00000   0.00000   0.04820   0.00000   0.00000
   0.00000   0.00000   0.00000  -0.30330   0.00000   0.00000   0.04820   0.00000
   0.00000   0.00000   0.00000   0.00000  -0.30330   0.00000   0.00000   0.04820



---OUTPUT-----------------------------------------------------------------------

 Cartesian coordinates (xcart) [bohr]
  4.96342984554347E-27 -1.65447661518116E-27 -3.30895323036231E-27
  2.59602105729753E+00  2.59602105729753E+00  2.59602105729753E+00
 Reduced coordinates (xred)
 -9.55968718279664E-28  3.18656239426555E-28  6.37312478853109E-28
  2.50000000000000E-01  2.50000000000000E-01  2.50000000000000E-01
 Cartesian forces (fcart) [Ha/bohr]; max,rms= 3.73399E-27 2.74161E-27 (free atoms)
 -3.73399236346981E-27  2.07444020192767E-27 -2.07444020192767E-27
  3.73399236346981E-27 -2.07444020192767E-27  2.07444020192767E-27
 Reduced forces (fred)
  8.61646471409404E-27  3.01576264993291E-26  4.30823235704702E-27
  8.61646471409404E-27 -3.01576264993291E-26 -1.29246970711411E-26
 Scale of Primitive Cell (acell) [bohr]
  1.03840842291901E+01  1.03840842291901E+01  1.03840842291901E+01
 Real space primitive translations (rprimd) [bohr]
  0.00000000000000E+00  5.19204211459505E+00  5.19204211459505E+00
  5.19204211459505E+00  0.00000000000000E+00  5.19204211459505E+00
  5.19204211459505E+00  5.19204211459505E+00  0.00000000000000E+00
 Unitary Cell Volume (ucvol) [Bohr^3]=  2.79926887495720E+02
 Angles (23,13,12)= [degrees]
  6.00000000000000E+01  6.00000000000000E+01  6.00000000000000E+01
 Lengths [Bohr]
  7.34265637487261E+00  7.34265637487261E+00  7.34265637487261E+00
 Stress tensor in cartesian coordinates (strten) [Ha/bohr^3]
  4.03413325584209E-05  0.00000000000000E+00  0.00000000000000E+00
  0.00000000000000E+00  4.03413325584204E-05  0.00000000000000E+00
  0.00000000000000E+00  0.00000000000000E+00  4.03413325584203E-05
 Total energy (etotal) [Ha]= -7.92910022047344E+00

 Difference of energy with previous step (new-old):
           Absolute (Ha)=-6.36001E-05
           Relative     =-8.02113E-06

--- Iteration: (3/4) Internal Cycle: (1/1)
--------------------------------------------------------------------------------

---SELF-CONSISTENT-FIELD CONVERGENCE--------------------------------------------

     iter   Etot(hartree)      deltaE(h)  residm     nres2
 ETOT  1  -7.9291190027694    -7.929E+00 3.160E-10 5.262E-03
 ETOT  2  -7.9291860126620    -6.701E-05 5.873E-13 2.081E-04
 ETOT  3  -7.9291919950955    -5.982E-06 6.767E-11 4.455E-05
 ETOT  4  -7.9291947453609    -2.750E-06 6.687E-11 1.437E-06
 ETOT  5  -7.9291948714862    -1.261E-07 5.471E-13 2.344E-08
 ETOT  6  -7.9291948718022    -3.160E-10 6.635E-15 3.537E-11
 ETOT  7  -7.9291948719291    -1.268E-10 2.452E-17 3.328E-12

 At SCF step    7, etot is converged : 
  for the second time, diff in etot=  1.268E-10 < toldfe=  1.000E-08

 Cartesian components of stress tensor (hartree/bohr^3)
  sigma(1 1)= -8.02612023E-07  sigma(3 2)=  0.00000000E+00
  sigma(2 2)= -8.02612023E-07  sigma(3 1)=  0.00000000E+00
  sigma(3 3)= -8.02612023E-07  sigma(2 1)=  0.00000000E+00


 PAW TEST:
 ==== Compensation charge inside spheres ============
 The following values must be close to each other ...
 Compensation charge over spherical meshes =     -0.230409463916155
 Compensation charge over fine fft grid    =     -0.230413849274772

 ==== Results concerning PAW augmentation regions ====

 Total pseudopotential strength Dij (hartree):
 Atom #  1
   0.40778   0.92973   0.00000   0.00000   0.00000   0.00000   0.00000   0.00000
   0.92973   2.10517   0.00000   0.00000   0.00000   0.00000   0.00000   0.00000
   0.00000   0.00000   0.13043   0.00000   0.00000   0.27655   0.00000   0.00000
   0.00000   0.00000   0.00000   0.13043   0.00000   0.00000   0.27655   0.00000
   0.00000   0.00000   0.00000   0.00000   0.13043   0.00000   0.00000   0.27655
   0.00000   0.00000   0.27655   0.00000   0.00000   0.58373   0.00000   0.00000
   0.00000   0.00000   0.00000   0.27655   0.00000   0.00000   0.58373   0.00000
   0.00000   0.00000   0.00000   0.00000   0.27655   0.00000   0.00000   0.58373
 Atom #  2
   0.40778   0.92973   0.00000   0.00000   0.00000   0.00000   0.00000   0.00000
   0.92973   2.10517   0.00000   0.00000   0.00000   0.00000   0.00000   0.00000
   0.00000   0.00000   0.13043   0.00000   0.00000   0.27655   0.00000   0.00000
   0.00000   0.00000   0.00000   0.13043   0.00000   0.00000   0.27655   0.00000
   0.00000   0.00000   0.00000   0.00000   0.13043   0.00000   0.00000   0.27655
   0.00000   0.00000   0.27655   0.00000   0.00000   0.58373   0.00000   0.00000
   0.00000   0.00000   0.00000   0.27655   0.00000   0.00000   0.58373   0.00000
   0.00000   0.00000   0.00000   0.00000   0.27655   0.00000   0.00000   0.58373


 Augmentation waves occupancies Rhoij:
 Atom #  1
   0.41022  -0.57461   0.00000   0.00000   0.00000   0.00000   0.00000   0.00000
  -0.57461   0.83385   0.00000   0.00000   0.00000   0.00000   0.00000   0.00000
   0.00000   0.00000   2.04119   0.00000   0.00000  -0.31157   0.00000   0.00000
   0.00000   0.00000   0.00000   2.04119   0.00000   0.00000  -0.31157   0.00000
   0.00000   0.00000   0.00000   0.00000   2.04119   0.00000   0.00000  -0.31157
   0.00000   0.00000  -0.31157   0.00000   0.00000   0.04997   0.00000   0.00000
   0.00000   0.00000   0.00000  -0.31157   0.00000   0.00000   0.04997   0.00000
   0.00000   0.00000   0.00000   0.00000  -0.31157   0.00000   0.00000   0.04997
 Atom #  2
   0.41022  -0.57461   0.00000   0.00000   0.00000   0.00000   0.00000   0.00000
  -0.57461   0.83385   0.00000   0.00000   0.00000   0.00000   0.00000   0.00000
   0.00000   0.00000   2.04119   0.00000   0.00000  -0.31157   0.00000   0.00000
   0.00000   0.00000   0.00000   2.04119   0.00000   0.00000  -0.31157   0.00000
   0.00000   0.00000   0.00000   0.00000   2.04119   0.00000   0.00000  -0.31157
   0.00000   0.00000  -0.31157   0.00000   0.00000   0.04997   0.00000   0.00000
   0.00000   0.00000   0.00000  -0.31157   0.00000   0.00000   0.04997   0.00000
   0.00000   0.00000   0.00000   0.00000  -0.31157   0.00000   0.00000   0.04997



---OUTPUT-----------------------------------------------------------------------

 Cartesian coordinates (xcart) [bohr]
 -1.24583265706359E-26  8.01802339949907E-27 -1.29533122706552E-26
  2.58130249284597E+00  2.58130249284597E+00  2.58130249284597E+00
 Reduced coordinates (xred)
  7.28608688862475E-28 -3.23767384231796E-27  8.24487746313346E-28
  2.50000000000000E-01  2.50000000000000E-01  2.50000000000000E-01
 Cartesian forces (fcart) [Ha/bohr]; max,rms= 2.92078E-27 1.72038E-27 (free atoms)
  4.17253728397506E-28 -2.92077609878254E-27  4.17253728397505E-28
 -4.17253728397506E-28  2.92077609878254E-27 -4.17253728397505E-28
 Reduced forces (fred)
  2.15411617852351E-26 -4.30823235704702E-27  1.29246970711411E-26
 -4.30823235704702E-27  4.30823235704702E-27 -1.29246970711411E-26
 Scale of Primitive Cell (acell) [bohr]
  1.03252099713839E+01  1.03252099713839E+01  1.03252099713839E+01
 Real space primitive translations (rprimd) [bohr]
  0.00000000000000E+00  5.16260498569194E+00  5.16260498569194E+00
  5.16260498569194E+00  0.00000000000000E+00  5.16260498569194E+00
  5.16260498569194E+00  5.16260498569194E+00  0.00000000000000E+00
 Unitary Cell Volume (ucvol) [Bohr^3]=  2.75192557970616E+02
 Angles (23,13,12)= [degrees]
  6.00000000000000E+01  6.00000000000000E+01  6.00000000000000E+01
 Lengths [Bohr]
  7.30102598794049E+00  7.30102598794049E+00  7.30102598794049E+00
 Stress tensor in cartesian coordinates (strten) [Ha/bohr^3]
 -8.02612023359994E-07  0.00000000000000E+00  0.00000000000000E+00
  0.00000000000000E+00 -8.02612023359994E-07  0.00000000000000E+00
  0.00000000000000E+00  0.00000000000000E+00 -8.02612023359777E-07
 Total energy (etotal) [Ha]= -7.92919487192905E+00

 Difference of energy with previous step (new-old):
           Absolute (Ha)=-9.46515E-05
           Relative     =-1.19372E-05

 At Broyd/MD step   3, gradients are converged : 
  max grad (force/stress) = 8.0261E-05 < tolmxf= 1.0000E-04 ha/bohr (free atoms)

================================================================================

 ----iterations are completed or convergence reached----

 Mean square residual over all n,k,spin=   1.3657E-17; max=  2.4522E-17
   0.2500  0.2500  0.2500    1  2.33959E-17 kpt; spin; max resid(k); each band:
  1.47E-18 8.47E-18 2.34E-17 2.34E-17
  -0.2500  0.2500  0.2500    1  2.45219E-17 kpt; spin; max resid(k); each band:
  9.42E-18 1.71E-17 2.45E-17 1.45E-18
 reduced coordinates (array xred) for    2 atoms
       0.000000000000     -0.000000000000      0.000000000000
       0.250000000000      0.250000000000      0.250000000000
 rms dE/dt=  1.1929E-26; max dE/dt=  2.1541E-26; dE/dt below (all hartree)
    1       0.000000000000     -0.000000000000      0.000000000000
    2      -0.000000000000      0.000000000000     -0.000000000000

 cartesian coordinates (angstrom) at end:
    1     -0.00000000000000     0.00000000000000    -0.00000000000000
    2      1.36596644769064     1.36596644769064     1.36596644769064

 cartesian forces (hartree/bohr) at end:
    1      0.00000000000000    -0.00000000000000     0.00000000000000
    2     -0.00000000000000     0.00000000000000    -0.00000000000000
 frms,max,avg= 1.7203812E-27 2.9207761E-27   0.000E+00  0.000E+00  0.000E+00 h/b

 cartesian forces (eV/Angstrom) at end:
    1      0.00000000000000    -0.00000000000000     0.00000000000000
    2     -0.00000000000000     0.00000000000000    -0.00000000000000
 frms,max,avg= 8.8465551E-26 1.5019233E-25   0.000E+00  0.000E+00  0.000E+00 e/A
 length scales= 10.325209971384 10.325209971384 10.325209971384 bohr
              =  5.463865790763  5.463865790763  5.463865790763 angstroms
 Fermi (or HOMO) energy (hartree) =   0.17444   Average Vxc (hartree)=  -0.34652
 Eigenvalues (hartree) for nkpt=   2  k points:
 kpt#   1, nband=  4, wtk=  0.25000, kpt=  0.2500  0.2500  0.2500 (reduced coord)
  -0.20567   0.05834   0.17444   0.17444
 kpt#   2, nband=  4, wtk=  0.75000, kpt= -0.2500  0.2500  0.2500 (reduced coord)
  -0.13584  -0.03114   0.07295   0.12053
 Total charge density [el/Bohr^3]
,     Maximum=    8.6769E-02  at reduced coord.    0.1250    0.1250    0.6250
,Next maximum=    8.6769E-02  at reduced coord.    0.1250    0.6250    0.1250
,     Minimum=   -9.2925E-04  at reduced coord.    0.0000    0.0000    0.0000
,Next minimum=   -9.2925E-04  at reduced coord.    0.2500    0.2500    0.2500
,  Integrated=    8.0000E+00

--------------------------------------------------------------------------------
 Components of total free energy (in Hartree) :

    Kinetic energy  =  2.94439401248820E+00
    Hartree energy  =  5.50079826890141E-01
    XC energy       = -7.03766833546321E+00
    Ewald energy    = -8.34741074952858E+00
    PspCore energy  =  2.02359283716356E-01
    Loc. psp. energy= -2.39059447392335E+00
    Spherical terms =  6.14964134555807E+00
    >>>>>>>>> Etotal= -7.92919909026238E+00

 "Double-counting" decomposition of free energy:
    Band energy     =  1.40531805053654E-01
    Ewald energy    = -8.34741074952858E+00
    PspCore energy  =  2.02359283716356E-01
    Dble-C XC-energy= -4.32099652404090E+00
    Spherical terms =  4.39632131287041E+00
    >>>> Etotal (DC)= -7.92919487192905E+00

  >Total energy in eV           = -2.15764480147492E+02
  >Total DC energy in eV        = -2.15764365360805E+02
--------------------------------------------------------------------------------

 Cartesian components of stress tensor (hartree/bohr^3)
  sigma(1 1)= -8.02612023E-07  sigma(3 2)=  0.00000000E+00
  sigma(2 2)= -8.02612023E-07  sigma(3 1)=  0.00000000E+00
  sigma(3 3)= -8.02612023E-07  sigma(2 1)=  0.00000000E+00

-Cartesian components of stress tensor (GPa)         [Pressure=  2.3614E-02 GPa]
- sigma(1 1)= -2.36136570E-02  sigma(3 2)=  0.00000000E+00
- sigma(2 2)= -2.36136570E-02  sigma(3 1)=  0.00000000E+00
- sigma(3 3)= -2.36136570E-02  sigma(2 1)=  0.00000000E+00

================================================================================
== DATASET  2 ==================================================================
-   nproc =    1

 find_getdtset : getcell/=0, take data from output of dataset with index  1.

 Exchange-correlation functional for the present dataset will be:
  GGA: Perdew-Burke-Ernzerhof functional - ixc=11
 Citation for XC functional:
  J.P.Perdew, K.Burke, M.Ernzerhof, PRL 77, 3865 (1996)

 Real(R)+Recip(G) space primitive vectors, cartesian coordinates (Bohr,Bohr^-1):
 R(1)=  0.0000000  5.1626050  5.1626050  G(1)= -0.0968503  0.0968503  0.0968503
 R(2)=  5.1626050  0.0000000  5.1626050  G(2)=  0.0968503 -0.0968503  0.0968503
 R(3)=  5.1626050  5.1626050  0.0000000  G(3)=  0.0968503  0.0968503 -0.0968503
 Unit cell volume ucvol=  2.7519256E+02 bohr^3
 Angles (23,13,12)=  6.00000000E+01  6.00000000E+01  6.00000000E+01 degrees

 Coarse grid specifications (used for wave-functions):

 getcut: wavevector=  0.0000  0.0000  0.0000  ngfft=  15  15  15
         ecut(hartree)=      4.080   => boxcut(ratio)=   2.11949

 Fine grid specifications (used for densities):

 getcut: wavevector=  0.0000  0.0000  0.0000  ngfft=  24  24  24
         ecut(hartree)=     10.201   => boxcut(ratio)=   2.28634

 getcut : COMMENT -
  Note that boxcut > 2.2 ; recall that boxcut=Gcut(box)/Gcut(sphere) = 2
  is sufficient for exact treatment of convolution.
  Such a large boxcut is a waste : you could raise ecut
  e.g. ecut=   13.331053 Hartrees makes boxcut=2


--- Pseudopotential description ------------------------------------------------
- pspini: atom type   1  psp file is /home/buildbot/ABINIT/buda_gcc46_cuda/amartin_7.7.0-public/tests/Psps_for_tests/si_ps.736.pbe
- pspatm: opening atomic psp file    /home/buildbot/ABINIT/buda_gcc46_cuda/amartin_7.7.0-public/tests/Psps_for_tests/si_ps.736.pbe
- silicon - PAW data extracted from US-psp (D.Vanderbilt) - generated by USpp2Abinit v2.2.1
- 14.00000   4.00000  20071017                znucl, zion, pspdat
    7   11    1    0       620   0.00000      pspcod,pspxc,lmax,lloc,mmax,r2well
 Pseudopotential format is: paw3
 basis_size (lnmax)=  4 (lmn_size=  8), orbitals=   0   0   1   1
 Spheres core radius: rc_sph= 1.81165366
 4 radial meshes are used:
  - mesh 1: r(i)=AA*[exp(BB*(i-1))-1], size= 620 , AA= 0.65134E-04 BB= 0.16667E-01
  - mesh 2: r(i)=AA*[exp(BB*(i-1))-1], size= 616 , AA= 0.65134E-04 BB= 0.16667E-01
  - mesh 3: r(i)=AA*[exp(BB*(i-1))-1], size= 663 , AA= 0.65134E-04 BB= 0.16667E-01
  - mesh 4: r(i)=AA*[exp(BB*(i-1))-1], size= 717 , AA= 0.65134E-04 BB= 0.16667E-01
 Shapefunction is BESSEL type: shapef(r,l)=aa(1,l)*jl(q(1,l)*r)+aa(2,l)*jl(q(2,l)*r)
 Radius for shape functions = sphere core radius
 Radial grid used for partial waves is grid 1
 Radial grid used for projectors is grid  2
 Radial grid used for (t)core density is grid 3
 Radial grid used for Vloc is grid 4
 Compensation charge density is taken into account in XC energy/potential
 pspatm: atomic psp has been read  and splines computed

--------------------------------------------------------------------------------

P newkpt: treating      4 bands with npw=     107 for ikpt=   1 by node    0
P newkpt: treating      4 bands with npw=     108 for ikpt=   2 by node    0

_setup2: Arith. and geom. avg. npw (full set) are     107.750     107.749

================================================================================

=== [ionmov= 2] Broyden-Fletcher-Goldfard-Shanno method (forces)            
================================================================================

--- Iteration: (1/4) Internal Cycle: (1/1)
--------------------------------------------------------------------------------

---SELF-CONSISTENT-FIELD CONVERGENCE--------------------------------------------

     iter   Etot(hartree)      deltaE(h)  residm     nres2
 ETOT  1  -7.9698171865420    -7.970E+00 3.681E-04 1.795E+00
 ETOT  2  -7.9529924102836     1.682E-02 1.593E-09 3.043E-01
 ETOT  3  -7.9489870119881     4.005E-03 3.773E-08 4.683E-03
 ETOT  4  -7.9492054300146    -2.184E-04 3.237E-09 1.294E-04
 ETOT  5  -7.9492110292333    -5.599E-06 8.213E-11 4.395E-06
 ETOT  6  -7.9492118212108    -7.920E-07 1.071E-10 2.382E-08
 ETOT  7  -7.9492118242941    -3.083E-09 1.744E-13 2.356E-09
 ETOT  8  -7.9492118242301     6.398E-11 2.250E-15 7.317E-11

 At SCF step    8, etot is converged : 
  for the second time, diff in etot=  6.398E-11 < toldfe=  1.000E-08

 Cartesian components of stress tensor (hartree/bohr^3)
  sigma(1 1)= -4.59234973E-05  sigma(3 2)=  0.00000000E+00
  sigma(2 2)= -4.59234973E-05  sigma(3 1)=  0.00000000E+00
  sigma(3 3)= -4.59234973E-05  sigma(2 1)=  0.00000000E+00


 PAW TEST:
 ==== Compensation charge inside spheres ============
 The following values must be close to each other ...
 Compensation charge over spherical meshes =     -0.209871978022424
 Compensation charge over fine fft grid    =     -0.209869281318456

 ==== Results concerning PAW augmentation regions ====

 Total pseudopotential strength Dij (hartree):
 Atom #  1
   0.40788   0.92979   0.00000   0.00000   0.00000   0.00000   0.00000   0.00000
   0.92979   2.10497   0.00000   0.00000   0.00000   0.00000   0.00000   0.00000
   0.00000   0.00000   0.13058   0.00000   0.00000   0.27684   0.00000   0.00000
   0.00000   0.00000   0.00000   0.13058   0.00000   0.00000   0.27684   0.00000
   0.00000   0.00000   0.00000   0.00000   0.13058   0.00000   0.00000   0.27684
   0.00000   0.00000   0.27684   0.00000   0.00000   0.58426   0.00000   0.00000
   0.00000   0.00000   0.00000   0.27684   0.00000   0.00000   0.58426   0.00000
   0.00000   0.00000   0.00000   0.00000   0.27684   0.00000   0.00000   0.58426
 Atom #  2
   0.40788   0.92979   0.00000   0.00000   0.00000   0.00000   0.00000   0.00000
   0.92979   2.10497   0.00000   0.00000   0.00000   0.00000   0.00000   0.00000
   0.00000   0.00000   0.13058   0.00000   0.00000   0.27684   0.00000   0.00000
   0.00000   0.00000   0.00000   0.13058   0.00000   0.00000   0.27684   0.00000
   0.00000   0.00000   0.00000   0.00000   0.13058   0.00000   0.00000   0.27684
   0.00000   0.00000   0.27684   0.00000   0.00000   0.58426   0.00000   0.00000
   0.00000   0.00000   0.00000   0.27684   0.00000   0.00000   0.58426   0.00000
   0.00000   0.00000   0.00000   0.00000   0.27684   0.00000   0.00000   0.58426


 Augmentation waves occupancies Rhoij:
 Atom #  1
   0.11021  -0.22902   0.00000   0.00000   0.00000   0.00000   0.00000   0.00000
  -0.22902   0.55648   0.00000   0.00000   0.00000   0.00000   0.00000   0.00000
   0.00000   0.00000   1.42262   0.00000   0.00000  -0.10249   0.00000   0.00000
   0.00000   0.00000   0.00000   1.42262   0.00000   0.00000  -0.10249   0.00000
   0.00000   0.00000   0.00000   0.00000   1.42262   0.00000   0.00000  -0.10249
   0.00000   0.00000  -0.10249   0.00000   0.00000   0.01195   0.00000   0.00000
   0.00000   0.00000   0.00000  -0.10249   0.00000   0.00000   0.01195   0.00000
   0.00000   0.00000   0.00000   0.00000  -0.10249   0.00000   0.00000   0.01195
 Atom #  2
   0.11021  -0.22902   0.00000   0.00000   0.00000   0.00000   0.00000   0.00000
  -0.22902   0.55648   0.00000   0.00000   0.00000   0.00000   0.00000   0.00000
   0.00000   0.00000   1.42262   0.00000   0.00000  -0.10249   0.00000   0.00000
   0.00000   0.00000   0.00000   1.42262   0.00000   0.00000  -0.10249   0.00000
   0.00000   0.00000   0.00000   0.00000   1.42262   0.00000   0.00000  -0.10249
   0.00000   0.00000  -0.10249   0.00000   0.00000   0.01195   0.00000   0.00000
   0.00000   0.00000   0.00000  -0.10249   0.00000   0.00000   0.01195   0.00000
   0.00000   0.00000   0.00000   0.00000  -0.10249   0.00000   0.00000   0.01195



---OUTPUT-----------------------------------------------------------------------

 Cartesian coordinates (xcart) [bohr]
  0.00000000000000E+00  0.00000000000000E+00  0.00000000000000E+00
  2.58130249284597E+00  2.58130249284597E+00  2.58130249284597E+00
 Reduced coordinates (xred)
  0.00000000000000E+00  0.00000000000000E+00  0.00000000000000E+00
  2.50000000000000E-01  2.50000000000000E-01  2.50000000000000E-01
 Cartesian forces (fcart) [Ha/bohr]; max,rms= 4.17254E-28 4.17254E-28 (free atoms)
 -4.17253728397505E-28  4.17253728397505E-28  4.17253728397505E-28
  4.17253728397505E-28 -4.17253728397505E-28 -4.17253728397505E-28
 Reduced forces (fred)
 -8.61646471409404E-27 -4.30823235704702E-27  4.30823235704702E-27
  0.00000000000000E+00 -4.30823235704702E-27  4.30823235704702E-27
 Scale of Primitive Cell (acell) [bohr]
  1.03252099713839E+01  1.03252099713839E+01  1.03252099713839E+01
 Real space primitive translations (rprimd) [bohr]
  0.00000000000000E+00  5.16260498569194E+00  5.16260498569194E+00
  5.16260498569194E+00  0.00000000000000E+00  5.16260498569194E+00
  5.16260498569194E+00  5.16260498569194E+00  0.00000000000000E+00
 Unitary Cell Volume (ucvol) [Bohr^3]=  2.75192557970616E+02
 Angles (23,13,12)= [degrees]
  6.00000000000000E+01  6.00000000000000E+01  6.00000000000000E+01
 Lengths [Bohr]
  7.30102598794049E+00  7.30102598794049E+00  7.30102598794049E+00
 Stress tensor in cartesian coordinates (strten) [Ha/bohr^3]
 -4.59234973089973E-05  0.00000000000000E+00  0.00000000000000E+00
  0.00000000000000E+00 -4.59234973089984E-05  0.00000000000000E+00
  0.00000000000000E+00  0.00000000000000E+00 -4.59234973089977E-05
 Total energy (etotal) [Ha]= -7.94921182423010E+00

--- Iteration: (2/4) Internal Cycle: (1/1)
--------------------------------------------------------------------------------

---SELF-CONSISTENT-FIELD CONVERGENCE--------------------------------------------

     iter   Etot(hartree)      deltaE(h)  residm     nres2
 ETOT  1  -7.9492520516137    -7.949E+00 2.851E-13 3.185E-04
 ETOT  2  -7.9492559438186    -3.892E-06 4.189E-14 1.233E-05
 ETOT  3  -7.9492562371502    -2.933E-07 3.809E-12 2.529E-06
 ETOT  4  -7.9492563797673    -1.426E-07 1.587E-12 9.111E-08
 ETOT  5  -7.9492563900486    -1.028E-08 3.449E-14 1.733E-09
 ETOT  6  -7.9492563902401    -1.915E-10 8.922E-16 1.736E-12
 ETOT  7  -7.9492563902353     4.851E-12 4.501E-18 4.143E-13

 At SCF step    7, etot is converged : 
  for the second time, diff in etot=  4.851E-12 < toldfe=  1.000E-08

 Cartesian components of stress tensor (hartree/bohr^3)
  sigma(1 1)= -3.23382249E-05  sigma(3 2)=  0.00000000E+00
  sigma(2 2)= -3.23382249E-05  sigma(3 1)=  0.00000000E+00
  sigma(3 3)= -3.23382249E-05  sigma(2 1)=  0.00000000E+00


 PAW TEST:
 ==== Compensation charge inside spheres ============
 The following values must be close to each other ...
 Compensation charge over spherical meshes =     -0.210092113268866
 Compensation charge over fine fft grid    =     -0.210095639855250

 ==== Results concerning PAW augmentation regions ====

 Total pseudopotential strength Dij (hartree):
 Atom #  1
   0.40791   0.92990   0.00000   0.00000   0.00000   0.00000   0.00000   0.00000
   0.92990   2.10529   0.00000   0.00000   0.00000   0.00000   0.00000   0.00000
   0.00000   0.00000   0.13058   0.00000   0.00000   0.27684   0.00000   0.00000
   0.00000   0.00000   0.00000   0.13058   0.00000   0.00000   0.27684   0.00000
   0.00000   0.00000   0.00000   0.00000   0.13058   0.00000   0.00000   0.27684
   0.00000   0.00000   0.27684   0.00000   0.00000   0.58428   0.00000   0.00000
   0.00000   0.00000   0.00000   0.27684   0.00000   0.00000   0.58428   0.00000
   0.00000   0.00000   0.00000   0.00000   0.27684   0.00000   0.00000   0.58428
 Atom #  2
   0.40791   0.92990   0.00000   0.00000   0.00000   0.00000   0.00000   0.00000
   0.92990   2.10529   0.00000   0.00000   0.00000   0.00000   0.00000   0.00000
   0.00000   0.00000   0.13058   0.00000   0.00000   0.27684   0.00000   0.00000
   0.00000   0.00000   0.00000   0.13058   0.00000   0.00000   0.27684   0.00000
   0.00000   0.00000   0.00000   0.00000   0.13058   0.00000   0.00000   0.27684
   0.00000   0.00000   0.27684   0.00000   0.00000   0.58428   0.00000   0.00000
   0.00000   0.00000   0.00000   0.27684   0.00000   0.00000   0.58428   0.00000
   0.00000   0.00000   0.00000   0.00000   0.27684   0.00000   0.00000   0.58428


 Augmentation waves occupancies Rhoij:
 Atom #  1
   0.11131  -0.23078   0.00000   0.00000   0.00000   0.00000   0.00000   0.00000
  -0.23078   0.55809   0.00000   0.00000   0.00000   0.00000   0.00000   0.00000
   0.00000   0.00000   1.41459   0.00000   0.00000  -0.10101   0.00000   0.00000
   0.00000   0.00000   0.00000   1.41459   0.00000   0.00000  -0.10101   0.00000
   0.00000   0.00000   0.00000   0.00000   1.41459   0.00000   0.00000  -0.10101
   0.00000   0.00000  -0.10101   0.00000   0.00000   0.01173   0.00000   0.00000
   0.00000   0.00000   0.00000  -0.10101   0.00000   0.00000   0.01173   0.00000
   0.00000   0.00000   0.00000   0.00000  -0.10101   0.00000   0.00000   0.01173
 Atom #  2
   0.11131  -0.23078   0.00000   0.00000   0.00000   0.00000   0.00000   0.00000
  -0.23078   0.55809   0.00000   0.00000   0.00000   0.00000   0.00000   0.00000
   0.00000   0.00000   1.41459   0.00000   0.00000  -0.10101   0.00000   0.00000
   0.00000   0.00000   0.00000   1.41459   0.00000   0.00000  -0.10101   0.00000
   0.00000   0.00000   0.00000   0.00000   1.41459   0.00000   0.00000  -0.10101
   0.00000   0.00000  -0.10101   0.00000   0.00000   0.01173   0.00000   0.00000
   0.00000   0.00000   0.00000  -0.10101   0.00000   0.00000   0.01173   0.00000
   0.00000   0.00000   0.00000   0.00000  -0.10101   0.00000   0.00000   0.01173



---OUTPUT-----------------------------------------------------------------------

 Cartesian coordinates (xcart) [bohr]
 -4.17828580911702E-28  4.17828580911702E-28  4.17828580911702E-28
  2.58485876598849E+00  2.58485876598849E+00  2.58485876598849E+00
 Reduced coordinates (xred)
  1.21233484709923E-28 -4.04111615699745E-29 -4.04111615699745E-29
  2.50000000000000E-01  2.50000000000000E-01  2.50000000000000E-01
 Cartesian forces (fcart) [Ha/bohr]; max,rms= 2.60425E-29 2.60425E-29 (free atoms)
 -2.60424791731772E-29  2.60424791731772E-29 -2.60424791731772E-29
  2.60424791731772E-29 -2.60424791731772E-29  2.60424791731772E-29
 Reduced forces (fred)
  0.00000000000000E+00  2.69264522315439E-28  0.00000000000000E+00
  0.00000000000000E+00 -2.69264522315439E-28  0.00000000000000E+00
 Scale of Primitive Cell (acell) [bohr]
  1.03394350639539E+01  1.03394350639539E+01  1.03394350639539E+01
 Real space primitive translations (rprimd) [bohr]
  0.00000000000000E+00  5.16971753197697E+00  5.16971753197697E+00
  5.16971753197697E+00  0.00000000000000E+00  5.16971753197697E+00
  5.16971753197697E+00  5.16971753197697E+00  0.00000000000000E+00
 Unitary Cell Volume (ucvol) [Bohr^3]=  2.76331528117740E+02
 Angles (23,13,12)= [degrees]
  6.00000000000000E+01  6.00000000000000E+01  6.00000000000000E+01
 Lengths [Bohr]
  7.31108464735980E+00  7.31108464735980E+00  7.31108464735980E+00
 Stress tensor in cartesian coordinates (strten) [Ha/bohr^3]
 -3.23382248784771E-05  0.00000000000000E+00  0.00000000000000E+00
  0.00000000000000E+00 -3.23382248784772E-05  0.00000000000000E+00
  0.00000000000000E+00  0.00000000000000E+00 -3.23382248784771E-05
 Total energy (etotal) [Ha]= -7.94925639023530E+00

 Difference of energy with previous step (new-old):
           Absolute (Ha)=-4.45660E-05
           Relative     =-5.60633E-06

--- Iteration: (3/4) Internal Cycle: (1/1)
--------------------------------------------------------------------------------

---SELF-CONSISTENT-FIELD CONVERGENCE--------------------------------------------

     iter   Etot(hartree)      deltaE(h)  residm     nres2
 ETOT  1  -7.9492791646814    -7.949E+00 1.507E-12 1.828E-03
 ETOT  2  -7.9493013309020    -2.217E-05 2.753E-13 7.141E-05
 ETOT  3  -7.9493031181627    -1.787E-06 1.459E-10 1.468E-05
 ETOT  4  -7.9493039889840    -8.708E-07 1.247E-11 5.457E-07
 ETOT  5  -7.9493040531224    -6.414E-08 2.193E-13 1.158E-08
 ETOT  6  -7.9493040540672    -9.447E-10 4.383E-15 2.095E-10
 ETOT  7  -7.9493040540459     2.130E-11 6.982E-17 2.423E-12

 At SCF step    7, etot is converged : 
  for the second time, diff in etot=  2.130E-11 < toldfe=  1.000E-08

 Cartesian components of stress tensor (hartree/bohr^3)
  sigma(1 1)= -2.84014106E-06  sigma(3 2)=  0.00000000E+00
  sigma(2 2)= -2.84014106E-06  sigma(3 1)=  0.00000000E+00
  sigma(3 3)= -2.84014106E-06  sigma(2 1)=  0.00000000E+00


 PAW TEST:
 ==== Compensation charge inside spheres ============
 The following values must be close to each other ...
 Compensation charge over spherical meshes =     -0.210644839240717
 Compensation charge over fine fft grid    =     -0.210647214771553

 ==== Results concerning PAW augmentation regions ====

 Total pseudopotential strength Dij (hartree):
 Atom #  1
   0.40800   0.93017   0.00000   0.00000   0.00000   0.00000   0.00000   0.00000
   0.93017   2.10607   0.00000   0.00000   0.00000   0.00000   0.00000   0.00000
   0.00000   0.00000   0.13057   0.00000   0.00000   0.27684   0.00000   0.00000
   0.00000   0.00000   0.00000   0.13057   0.00000   0.00000   0.27684   0.00000
   0.00000   0.00000   0.00000   0.00000   0.13057   0.00000   0.00000   0.27684
   0.00000   0.00000   0.27684   0.00000   0.00000   0.58433   0.00000   0.00000
   0.00000   0.00000   0.00000   0.27684   0.00000   0.00000   0.58433   0.00000
   0.00000   0.00000   0.00000   0.00000   0.27684   0.00000   0.00000   0.58433
 Atom #  2
   0.40800   0.93017   0.00000   0.00000   0.00000   0.00000   0.00000   0.00000
   0.93017   2.10607   0.00000   0.00000   0.00000   0.00000   0.00000   0.00000
   0.00000   0.00000   0.13057   0.00000   0.00000   0.27684   0.00000   0.00000
   0.00000   0.00000   0.00000   0.13057   0.00000   0.00000   0.27684   0.00000
   0.00000   0.00000   0.00000   0.00000   0.13057   0.00000   0.00000   0.27684
   0.00000   0.00000   0.27684   0.00000   0.00000   0.58433   0.00000   0.00000
   0.00000   0.00000   0.00000   0.27684   0.00000   0.00000   0.58433   0.00000
   0.00000   0.00000   0.00000   0.00000   0.27684   0.00000   0.00000   0.58433


 Augmentation waves occupancies Rhoij:
 Atom #  1
   0.11397  -0.23501   0.00000   0.00000   0.00000   0.00000   0.00000   0.00000
  -0.23501   0.56196   0.00000   0.00000   0.00000   0.00000   0.00000   0.00000
   0.00000   0.00000   1.39539   0.00000   0.00000  -0.09746   0.00000   0.00000
   0.00000   0.00000   0.00000   1.39539   0.00000   0.00000  -0.09746   0.00000
   0.00000   0.00000   0.00000   0.00000   1.39539   0.00000   0.00000  -0.09746
   0.00000   0.00000  -0.09746   0.00000   0.00000   0.01120   0.00000   0.00000
   0.00000   0.00000   0.00000  -0.09746   0.00000   0.00000   0.01120   0.00000
   0.00000   0.00000   0.00000   0.00000  -0.09746   0.00000   0.00000   0.01120
 Atom #  2
   0.11397  -0.23501   0.00000   0.00000   0.00000   0.00000   0.00000   0.00000
  -0.23501   0.56196   0.00000   0.00000   0.00000   0.00000   0.00000   0.00000
   0.00000   0.00000   1.39539   0.00000   0.00000  -0.09746   0.00000   0.00000
   0.00000   0.00000   0.00000   1.39539   0.00000   0.00000  -0.09746   0.00000
   0.00000   0.00000   0.00000   0.00000   1.39539   0.00000   0.00000  -0.09746
   0.00000   0.00000  -0.09746   0.00000   0.00000   0.01120   0.00000   0.00000
   0.00000   0.00000   0.00000  -0.09746   0.00000   0.00000   0.01120   0.00000
   0.00000   0.00000   0.00000   0.00000  -0.09746   0.00000   0.00000   0.01120



---OUTPUT-----------------------------------------------------------------------

 Cartesian coordinates (xcart) [bohr]
 -5.08667173840678E-28  5.08667173840679E-28  3.29765402691073E-28
  2.59344369215901E+00  2.59344369215901E+00  2.59344369215901E+00
 Reduced coordinates (xred)
  1.29856275118411E-28 -6.62795327954366E-29 -3.17883711614871E-29
  2.50000000000000E-01  2.50000000000000E-01  2.50000000000000E-01
 Cartesian forces (fcart) [Ha/bohr]; max,rms= 5.19125E-28 4.28082E-28 (free atoms)
  5.19125445309513E-28 -5.19125445309513E-28  1.03825089061903E-28
 -5.19125445309513E-28  5.19125445309513E-28 -1.03825089061903E-28
 Reduced forces (fred)
  1.07705808926175E-27 -3.23117426778526E-27  0.00000000000000E+00
 -3.23117426778526E-27  3.23117426778526E-27  0.00000000000000E+00
 Scale of Primitive Cell (acell) [bohr]
  1.03737747686360E+01  1.03737747686360E+01  1.03737747686360E+01
 Real space primitive translations (rprimd) [bohr]
  0.00000000000000E+00  5.18688738431802E+00  5.18688738431802E+00
  5.18688738431802E+00  0.00000000000000E+00  5.18688738431802E+00
  5.18688738431802E+00  5.18688738431802E+00  0.00000000000000E+00
 Unitary Cell Volume (ucvol) [Bohr^3]=  2.79093969272099E+02
 Angles (23,13,12)= [degrees]
  6.00000000000000E+01  6.00000000000000E+01  6.00000000000000E+01
 Lengths [Bohr]
  7.33536648540445E+00  7.33536648540445E+00  7.33536648540445E+00
 Stress tensor in cartesian coordinates (strten) [Ha/bohr^3]
 -2.84014105809483E-06  0.00000000000000E+00  0.00000000000000E+00
  0.00000000000000E+00 -2.84014105809440E-06  0.00000000000000E+00
  0.00000000000000E+00  0.00000000000000E+00 -2.84014105809505E-06
 Total energy (etotal) [Ha]= -7.94930405404587E+00

 Difference of energy with previous step (new-old):
           Absolute (Ha)=-4.76638E-05
           Relative     =-5.99599E-06

--- Iteration: (4/4) Internal Cycle: (1/1)
--------------------------------------------------------------------------------

---SELF-CONSISTENT-FIELD CONVERGENCE--------------------------------------------

     iter   Etot(hartree)      deltaE(h)  residm     nres2
 ETOT  1  -7.9493042107031    -7.949E+00 1.132E-13 1.712E-05
 ETOT  2  -7.9493044164913    -2.058E-07 2.529E-15 6.729E-07
 ETOT  3  -7.9493044327227    -1.623E-08 2.052E-13 1.385E-07
 ETOT  4  -7.9493044406417    -7.919E-09 8.687E-14 5.148E-09
 ETOT  5  -7.9493044412880    -6.464E-10 2.043E-15 9.462E-11

 At SCF step    5, etot is converged : 
  for the second time, diff in etot=  6.464E-10 < toldfe=  1.000E-08

 Cartesian components of stress tensor (hartree/bohr^3)
  sigma(1 1)= -5.74572854E-08  sigma(3 2)=  0.00000000E+00
  sigma(2 2)= -5.74572854E-08  sigma(3 1)=  0.00000000E+00
  sigma(3 3)= -5.74572854E-08  sigma(2 1)=  0.00000000E+00


 PAW TEST:
 ==== Compensation charge inside spheres ============
 The following values must be close to each other ...
 Compensation charge over spherical meshes =     -0.210693327062932
 Compensation charge over fine fft grid    =     -0.210700549580345

 ==== Results concerning PAW augmentation regions ====

 Total pseudopotential strength Dij (hartree):
 Atom #  1
   0.40801   0.93019   0.00000   0.00000   0.00000   0.00000   0.00000   0.00000
   0.93019   2.10614   0.00000   0.00000   0.00000   0.00000   0.00000   0.00000
   0.00000   0.00000   0.13057   0.00000   0.00000   0.27684   0.00000   0.00000
   0.00000   0.00000   0.00000   0.13057   0.00000   0.00000   0.27684   0.00000
   0.00000   0.00000   0.00000   0.00000   0.13057   0.00000   0.00000   0.27684
   0.00000   0.00000   0.27684   0.00000   0.00000   0.58433   0.00000   0.00000
   0.00000   0.00000   0.00000   0.27684   0.00000   0.00000   0.58433   0.00000
   0.00000   0.00000   0.00000   0.00000   0.27684   0.00000   0.00000   0.58433
 Atom #  2
   0.40801   0.93019   0.00000   0.00000   0.00000   0.00000   0.00000   0.00000
   0.93019   2.10614   0.00000   0.00000   0.00000   0.00000   0.00000   0.00000
   0.00000   0.00000   0.13057   0.00000   0.00000   0.27684   0.00000   0.00000
   0.00000   0.00000   0.00000   0.13057   0.00000   0.00000   0.27684   0.00000
   0.00000   0.00000   0.00000   0.00000   0.13057   0.00000   0.00000   0.27684
   0.00000   0.00000   0.27684   0.00000   0.00000   0.58433   0.00000   0.00000
   0.00000   0.00000   0.00000   0.27684   0.00000   0.00000   0.58433   0.00000
   0.00000   0.00000   0.00000   0.00000   0.27684   0.00000   0.00000   0.58433


 Augmentation waves occupancies Rhoij:
 Atom #  1
   0.11422  -0.23541   0.00000   0.00000   0.00000   0.00000   0.00000   0.00000
  -0.23541   0.56233   0.00000   0.00000   0.00000   0.00000   0.00000   0.00000
   0.00000   0.00000   1.39352   0.00000   0.00000  -0.09711   0.00000   0.00000
   0.00000   0.00000   0.00000   1.39352   0.00000   0.00000  -0.09711   0.00000
   0.00000   0.00000   0.00000   0.00000   1.39352   0.00000   0.00000  -0.09711
   0.00000   0.00000  -0.09711   0.00000   0.00000   0.01115   0.00000   0.00000
   0.00000   0.00000   0.00000  -0.09711   0.00000   0.00000   0.01115   0.00000
   0.00000   0.00000   0.00000   0.00000  -0.09711   0.00000   0.00000   0.01115
 Atom #  2
   0.11422  -0.23541   0.00000   0.00000   0.00000   0.00000   0.00000   0.00000
  -0.23541   0.56233   0.00000   0.00000   0.00000   0.00000   0.00000   0.00000
   0.00000   0.00000   1.39352   0.00000   0.00000  -0.09711   0.00000   0.00000
   0.00000   0.00000   0.00000   1.39352   0.00000   0.00000  -0.09711   0.00000
   0.00000   0.00000   0.00000   0.00000   1.39352   0.00000   0.00000  -0.09711
   0.00000   0.00000  -0.09711   0.00000   0.00000   0.01115   0.00000   0.00000
   0.00000   0.00000   0.00000  -0.09711   0.00000   0.00000   0.01115   0.00000
   0.00000   0.00000   0.00000   0.00000  -0.09711   0.00000   0.00000   0.01115



---OUTPUT-----------------------------------------------------------------------

 Cartesian coordinates (xcart) [bohr]
  6.02232612284006E-29 -6.02232612284003E-29  4.38755623331895E-28
  2.59427933539164E+00  2.59427933539164E+00  2.59427933539164E+00
 Reduced coordinates (xred)
  3.06741352533499E-29  5.38880044796987E-29 -4.22810698665242E-29
  2.50000000000000E-01  2.50000000000000E-01  2.50000000000000E-01
 Cartesian forces (fcart) [Ha/bohr]; max,rms= 0.00000E+00 0.00000E+00 (free atoms)
  0.00000000000000E+00 -0.00000000000000E+00  0.00000000000000E+00
  0.00000000000000E+00 -0.00000000000000E+00  0.00000000000000E+00
 Reduced forces (fred)
 -5.38529044630877E-28  0.00000000000000E+00  5.38529044630877E-28
 -5.38529044630877E-28  0.00000000000000E+00  5.38529044630877E-28
 Scale of Primitive Cell (acell) [bohr]
  1.03771173415665E+01  1.03771173415665E+01  1.03771173415665E+01
 Real space primitive translations (rprimd) [bohr]
  0.00000000000000E+00  5.18855867078327E+00  5.18855867078327E+00
  5.18855867078327E+00  0.00000000000000E+00  5.18855867078327E+00
  5.18855867078327E+00  5.18855867078327E+00  0.00000000000000E+00
 Unitary Cell Volume (ucvol) [Bohr^3]=  2.79363839957690E+02
 Angles (23,13,12)= [degrees]
  6.00000000000000E+01  6.00000000000000E+01  6.00000000000000E+01
 Lengths [Bohr]
  7.33773004139022E+00  7.33773004139022E+00  7.33773004139022E+00
 Stress tensor in cartesian coordinates (strten) [Ha/bohr^3]
 -5.74572853756115E-08  0.00000000000000E+00  0.00000000000000E+00
  0.00000000000000E+00 -5.74572853756115E-08  0.00000000000000E+00
  0.00000000000000E+00  0.00000000000000E+00 -5.74572853756115E-08
 Total energy (etotal) [Ha]= -7.94930444128804E+00

 Difference of energy with previous step (new-old):
           Absolute (Ha)=-3.87242E-07
           Relative     =-4.87140E-08

 At Broyd/MD step   4, gradients are converged : 
  max grad (force/stress) = 5.7457E-06 < tolmxf= 1.0000E-04 ha/bohr (free atoms)

================================================================================

 ----iterations are completed or convergence reached----

 Mean square residual over all n,k,spin=   8.1686E-16; max=  2.0433E-15
   0.2500  0.2500  0.2500    1  2.04326E-15 kpt; spin; max resid(k); each band:
  4.42E-17 6.31E-16 2.04E-15 2.04E-15
  -0.2500  0.2500  0.2500    1  8.08479E-16 kpt; spin; max resid(k); each band:
  2.62E-16 5.54E-16 8.08E-16 1.49E-16
 reduced coordinates (array xred) for    2 atoms
       0.000000000000      0.000000000000     -0.000000000000
       0.250000000000      0.250000000000      0.250000000000
 rms dE/dt=  4.3971E-28; max dE/dt=  5.3853E-28; dE/dt below (all hartree)
    1      -0.000000000000      0.000000000000      0.000000000000
    2      -0.000000000000      0.000000000000      0.000000000000

 cartesian coordinates (angstrom) at end:
    1      0.00000000000000    -0.00000000000000     0.00000000000000
    2      1.37283349700527     1.37283349700527     1.37283349700527

 cartesian forces (hartree/bohr) at end:
    1      0.00000000000000    -0.00000000000000     0.00000000000000
    2      0.00000000000000    -0.00000000000000     0.00000000000000
 frms,max,avg= 0.0000000E+00 0.0000000E+00   0.000E+00  0.000E+00  0.000E+00 h/b

 cartesian forces (eV/Angstrom) at end:
    1      0.00000000000000    -0.00000000000000     0.00000000000000
    2      0.00000000000000    -0.00000000000000     0.00000000000000
 frms,max,avg= 0.0000000E+00 0.0000000E+00   0.000E+00  0.000E+00  0.000E+00 e/A
 length scales= 10.377117341567 10.377117341567 10.377117341567 bohr
              =  5.491333988021  5.491333988021  5.491333988021 angstroms
 Fermi (or HOMO) energy (hartree) =   0.16701   Average Vxc (hartree)=  -0.34484
 Eigenvalues (hartree) for nkpt=   2  k points:
 kpt#   1, nband=  4, wtk=  0.25000, kpt=  0.2500  0.2500  0.2500 (reduced coord)
  -0.20774   0.05274   0.16701   0.16701
 kpt#   2, nband=  4, wtk=  0.75000, kpt= -0.2500  0.2500  0.2500 (reduced coord)
  -0.13921  -0.03637   0.06744   0.11444
 Total charge density [el/Bohr^3]
,     Maximum=    8.5549E-02  at reduced coord.    0.1250    0.1250    0.6250
,Next maximum=    8.5549E-02  at reduced coord.    0.1250    0.6250    0.1250
,     Minimum=   -3.9370E-03  at reduced coord.    0.0000    0.0000    0.0000
,Next minimum=   -3.9370E-03  at reduced coord.    0.2500    0.2500    0.2500
,  Integrated=    8.0000E+00

--------------------------------------------------------------------------------
 Components of total free energy (in Hartree) :

    Kinetic energy  =  2.95170584069513E+00
    Hartree energy  =  5.63369552447541E-01
    XC energy       = -7.02971212870321E+00
    Ewald energy    = -8.30565617303295E+00
    PspCore energy  =  1.99337784458574E-01
    Loc. psp. energy= -2.48312762643131E+00
    Spherical terms =  6.15475919338563E+00
    >>>>>>>>> Etotal= -7.94932355718058E+00

 "Double-counting" decomposition of free energy:
    Band energy     =  9.89584110645145E-02
    Ewald energy    = -8.30565617303295E+00
    PspCore energy  =  1.99337784458574E-01
    Dble-C XC-energy= -4.33664087307397E+00
    Spherical terms =  4.39469640929579E+00
    >>>> Etotal (DC)= -7.94930444128804E+00

  >Total energy in eV           = -2.16312094741782E+02
  >Total DC energy in eV        = -2.16311574571892E+02
--------------------------------------------------------------------------------

 Cartesian components of stress tensor (hartree/bohr^3)
  sigma(1 1)= -5.74572854E-08  sigma(3 2)=  0.00000000E+00
  sigma(2 2)= -5.74572854E-08  sigma(3 1)=  0.00000000E+00
  sigma(3 3)= -5.74572854E-08  sigma(2 1)=  0.00000000E+00

-Cartesian components of stress tensor (GPa)         [Pressure=  1.6905E-03 GPa]
- sigma(1 1)= -1.69045141E-03  sigma(3 2)=  0.00000000E+00
- sigma(2 2)= -1.69045141E-03  sigma(3 1)=  0.00000000E+00
- sigma(3 3)= -1.69045141E-03  sigma(2 1)=  0.00000000E+00

== END DATASET(S) ==============================================================
================================================================================
  
 -outvars: echo values of variables after computation  --------
            acell1     1.0325209971E+01  1.0325209971E+01  1.0325209971E+01 Bohr
            acell2     1.0377117342E+01  1.0377117342E+01  1.0377117342E+01 Bohr
              amu      2.80855000E+01
      chksymbreak           0
          dilatmx      1.01000000E+00
             ecut1     3.00000000E+00 Hartree
             ecut2     4.00000000E+00 Hartree
           ecutsm      5.00000000E-01 Hartree
           etotal1    -7.9291948719E+00
           etotal2    -7.9493044413E+00
            fcart1     4.1725372840E-28 -2.9207760988E-27  4.1725372840E-28
                      -4.1725372840E-28  2.9207760988E-27 -4.1725372840E-28
            fcart2     0.0000000000E+00 -0.0000000000E+00  0.0000000000E+00
                       0.0000000000E+00 -0.0000000000E+00  0.0000000000E+00
-          fftalg         401
          getcell          -1
 gpu_linalg_limit           0
           ionmov           2
              ixc          11
           jdtset        1    2
              kpt      2.50000000E-01  2.50000000E-01  2.50000000E-01
                      -2.50000000E-01  2.50000000E-01  2.50000000E-01
         kptrlatt        2    0    0      0    2    0      0    0    2
          kptrlen      1.47078210E+01
P           mkmem           2
            natom           2
            nband           4
           ndtset           2
            ngfft1         12      12      12
            ngfft2         15      15      15
          ngfftdg          24      24      24
             nkpt           2
            nstep          20
             nsym          48
            ntime           4
           ntypat           1
              occ      2.000000  2.000000  2.000000  2.000000
          optcell           1
        pawecutdg      1.00000000E+01 Hartree
           prtden           0
           prteig           0
            prtwf           0
            rprim      0.0000000000E+00  5.0000000000E-01  5.0000000000E-01
                       5.0000000000E-01  0.0000000000E+00  5.0000000000E-01
                       5.0000000000E-01  5.0000000000E-01  0.0000000000E+00
           shiftk      5.00000000E-01  5.00000000E-01  5.00000000E-01
          spgroup         227
           strten1    -8.0261202336E-07 -8.0261202336E-07 -8.0261202336E-07
                       0.0000000000E+00  0.0000000000E+00  0.0000000000E+00
           strten2    -5.7457285376E-08 -5.7457285376E-08 -5.7457285376E-08
                       0.0000000000E+00  0.0000000000E+00  0.0000000000E+00
           symrel      1  0  0   0  1  0   0  0  1      -1  0  0   0 -1  0   0  0 -1
                       0 -1  1   0 -1  0   1 -1  0       0  1 -1   0  1  0  -1  1  0
                      -1  0  0  -1  0  1  -1  1  0       1  0  0   1  0 -1   1 -1  0
                       0  1 -1   1  0 -1   0  0 -1       0 -1  1  -1  0  1   0  0  1
                      -1  0  0  -1  1  0  -1  0  1       1  0  0   1 -1  0   1  0 -1
                       0 -1  1   1 -1  0   0 -1  0       0  1 -1  -1  1  0   0  1  0
                       1  0  0   0  0  1   0  1  0      -1  0  0   0  0 -1   0 -1  0
                       0  1 -1   0  0 -1   1  0 -1       0 -1  1   0  0  1  -1  0  1
                      -1  0  1  -1  1  0  -1  0  0       1  0 -1   1 -1  0   1  0  0
                       0 -1  0   1 -1  0   0 -1  1       0  1  0  -1  1  0   0  1 -1
                       1  0 -1   0  0 -1   0  1 -1      -1  0  1   0  0  1   0 -1  1
                       0  1  0   0  0  1   1  0  0       0 -1  0   0  0 -1  -1  0  0
                       1  0 -1   0  1 -1   0  0 -1      -1  0  1   0 -1  1   0  0  1
                       0 -1  0   0 -1  1   1 -1  0       0  1  0   0  1 -1  -1  1  0
                      -1  0  1  -1  0  0  -1  1  0       1  0 -1   1  0  0   1 -1  0
                       0  1  0   1  0  0   0  0  1       0 -1  0  -1  0  0   0  0 -1
                       0  0 -1   0  1 -1   1  0 -1       0  0  1   0 -1  1  -1  0  1
                       1 -1  0   0 -1  1   0 -1  0      -1  1  0   0  1 -1   0  1  0
                       0  0  1   1  0  0   0  1  0       0  0 -1  -1  0  0   0 -1  0
                      -1  1  0  -1  0  0  -1  0  1       1 -1  0   1  0  0   1  0 -1
                       0  0  1   0  1  0   1  0  0       0  0 -1   0 -1  0  -1  0  0
                       1 -1  0   0 -1  0   0 -1  1      -1  1  0   0  1  0   0  1 -1
                       0  0 -1   1  0 -1   0  1 -1       0  0  1  -1  0  1   0 -1  1
                      -1  1  0  -1  0  1  -1  0  0       1 -1  0   1  0 -1   1  0  0
            tnons      0.0000000  0.0000000  0.0000000     0.2500000  0.2500000  0.2500000
                       0.0000000  0.0000000  0.0000000     0.2500000  0.2500000  0.2500000
                       0.0000000  0.0000000  0.0000000     0.2500000  0.2500000  0.2500000
                       0.0000000  0.0000000  0.0000000     0.2500000  0.2500000  0.2500000
                       0.0000000  0.0000000  0.0000000     0.2500000  0.2500000  0.2500000
                       0.0000000  0.0000000  0.0000000     0.2500000  0.2500000  0.2500000
                       0.0000000  0.0000000  0.0000000     0.2500000  0.2500000  0.2500000
                       0.0000000  0.0000000  0.0000000     0.2500000  0.2500000  0.2500000
                       0.0000000  0.0000000  0.0000000     0.2500000  0.2500000  0.2500000
                       0.0000000  0.0000000  0.0000000     0.2500000  0.2500000  0.2500000
                       0.0000000  0.0000000  0.0000000     0.2500000  0.2500000  0.2500000
                       0.0000000  0.0000000  0.0000000     0.2500000  0.2500000  0.2500000
                       0.0000000  0.0000000  0.0000000     0.2500000  0.2500000  0.2500000
                       0.0000000  0.0000000  0.0000000     0.2500000  0.2500000  0.2500000
                       0.0000000  0.0000000  0.0000000     0.2500000  0.2500000  0.2500000
                       0.0000000  0.0000000  0.0000000     0.2500000  0.2500000  0.2500000
                       0.0000000  0.0000000  0.0000000     0.2500000  0.2500000  0.2500000
                       0.0000000  0.0000000  0.0000000     0.2500000  0.2500000  0.2500000
                       0.0000000  0.0000000  0.0000000     0.2500000  0.2500000  0.2500000
                       0.0000000  0.0000000  0.0000000     0.2500000  0.2500000  0.2500000
                       0.0000000  0.0000000  0.0000000     0.2500000  0.2500000  0.2500000
                       0.0000000  0.0000000  0.0000000     0.2500000  0.2500000  0.2500000
                       0.0000000  0.0000000  0.0000000     0.2500000  0.2500000  0.2500000
                       0.0000000  0.0000000  0.0000000     0.2500000  0.2500000  0.2500000
           toldfe      1.00000000E-08 Hartree
           tolmxf      1.00000000E-04
            typat      1  1
-          useylm           1
-    use_gpu_cuda           1
-        wfoptalg          14
              wtk        0.25000    0.75000
           xangst1    -6.5926624784E-27  4.2429552410E-27 -6.8545976294E-27
                       1.3659664477E+00  1.3659664477E+00  1.3659664477E+00
           xangst2     3.1868777269E-29 -3.1868777269E-29  2.3217947601E-28
                       1.3728334970E+00  1.3728334970E+00  1.3728334970E+00
            xcart1    -1.2458326571E-26  8.0180233995E-27 -1.2953312271E-26
                       2.5813024928E+00  2.5813024928E+00  2.5813024928E+00
            xcart2     6.0223261228E-29 -6.0223261228E-29  4.3875562333E-28
                       2.5942793354E+00  2.5942793354E+00  2.5942793354E+00
             xred      7.2860868886E-28 -3.2376738423E-27  8.2448774631E-28
                       2.5000000000E-01  2.5000000000E-01  2.5000000000E-01
            znucl       14.00000

================================================================================


- Timing analysis has been suppressed with timopt=0



================================================================================

 Suggested references for the acknowledgment of ABINIT usage.

 The users of ABINIT have little formal obligations with respect to the ABINIT group
 (those specified in the GNU General Public License, http://www.gnu.org/copyleft/gpl.txt).
 However, it is common practice in the scientific literature,
 to acknowledge the efforts of people that have made the research possible.
 In this spirit, please find below suggested citations of work written by ABINIT developers,
 corresponding to implementations inside of ABINIT that you have used in the present run.
 Note also that it will be of great value to readers of publications presenting these results,
 to read papers enabling them to understand the theoretical formalism and details
 of the ABINIT implementation.
 For information on why they are suggested, see also http://www.abinit.org/about/?text=acknowledgments.

 [1] Implementation of the Projector Augmented-Wave Method in the ABINIT code.
 M. Torrent, F. Jollet, F. Bottin, G. Zerah, and X. Gonze Comput. Mat. Science 42, 337, (2008).
 Comment : PAW calculations. Strong suggestion to cite this paper.

 [2] ABINIT : First-principles approach of materials and nanosystem properties.
 X. Gonze, B. Amadon, P.-M. Anglade, J.-M. Beuken, F. Bottin, P. Boulanger, F. Bruneval,
 D. Caliste, R. Caracas, M. Cote, T. Deutsch, L. Genovese, Ph. Ghosez, M. Giantomassi
 S. Goedecker, D.R. Hamann, P. Hermet, F. Jollet, G. Jomard, S. Leroux, M. Mancini, S. Mazevet,
 M.J.T. Oliveira, G. Onida, Y. Pouillon, T. Rangel, G.-M. Rignanese, D. Sangalli, R. Shaltaf,
 M. Torrent, M.J. Verstraete, G. Zerah, J.W. Zwanziger
 Computer Phys. Comm. 180, 2582-2615 (2009).
 Comment : the third generic paper describing the ABINIT project.
 Note that a version of this paper, that is not formatted for Computer Phys. Comm. 
 is available at http://www.abinit.org/about/ABINIT_CPC_v10.pdf .
 The licence allows the authors to put it on the Web.

 [3] A brief introduction to the ABINIT software package.
 X. Gonze, G.-M. Rignanese, M. Verstraete, J.-M. Beuken, Y. Pouillon, R. Caracas, F. Jollet,
 M. Torrent, G. Zerah, M. Mikami, Ph. Ghosez, M. Veithen, J.-Y. Raty, V. Olevano, F. Bruneval,
 L. Reining, R. Godby, G. Onida, D.R. Hamann, and D.C. Allan.
 Z. Kristallogr. 220, 558-562 (2005).
 Comment : the second generic paper describing the ABINIT project. Note that this paper
 should be cited especially if you are using the GW part of ABINIT, as several authors
 of this part are not in the list of authors of the first or third paper.
 The .pdf of the latter paper is available at http://www.abinit.org/about/zfk_0505-06_558-562.pdf.
 Note that it should not redistributed (Copyright by Oldenburg Wissenshaftverlag,
 the licence allows the authors to put it on the Web).


 And optionally :

 [4] First-principles computation of material properties : the ABINIT software project. 
 X. Gonze, J.-M. Beuken, R. Caracas, F. Detraux, M. Fuchs, G.-M. Rignanese, L. Sindic,
 M. Verstraete, G. Zerah, F. Jollet, M. Torrent, A. Roy, M. Mikami, Ph. Ghosez, J.-Y. Raty, D.C. Allan.
 Computational Materials Science 25, 478-492 (2002). http://dx.doi.org/10.1016/S0927-0256(02)00325-7
 Comment : the original paper describing the ABINIT project.

 [5] Fast radix 2, 3, 4 and 5 kernels for Fast Fourier Transformations
 on computers with overlapping multiply-add instructions.
 S. Goedecker, SIAM J. on Scientific Computing 18, 1605 (1997).
-
- Proc.   0 individual time (sec): cpu=         71.5  wall=         72.4

================================================================================

 Calculation completed.
.Delivered    8 WARNINGs and  19 COMMENTs to log file.
+Overall time at end (sec) : cpu=         71.5  wall=         72.4
