
.Version 7.9.3 of ABINIT 
.(MPI version, prepared for a x86_64_linux_gnu4.7 computer) 

.Copyright (C) 1998-2014 ABINIT group . 
 ABINIT comes with ABSOLUTELY NO WARRANTY.
 It is free software, and you are welcome to redistribute it
 under certain conditions (GNU General Public License,
 see ~abinit/COPYING or http://www.gnu.org/copyleft/gpl.txt).

 ABINIT is a project of the Universite Catholique de Louvain,
 Corning Inc. and other collaborators, see ~abinit/doc/developers/contributors.txt .
 Please read ~abinit/doc/users/acknowledgments.html for suggested
 acknowledgments of the ABINIT effort.
 For more information, see http://www.abinit.org .

.Starting date : Sat 30 Aug 2014.
- ( at 22h48 )
  
- input  file    -> t10.in
- output file    -> t10.out
- root for input  files -> t10i
- root for output files -> t10o


 Symmetries : space group Fm -3 m (#225); Bravais cF (face-center cubic)
================================================================================
 Values of the parameters that define the memory need of the present run
   intxc =         0  ionmov =         3    iscf =         7 xclevel =         2
  lmnmax =         2   lnmax =         2   mband =         5  mffmem =         1
P  mgfft =        48   mkmem =         2 mpssoang=         2     mpw =      4744
  mqgrid =      3001   natom =         1    nfft =    110592    nkpt =         2
  nloalg =         4  nspden =         1 nspinor =         1  nsppol =         1
    nsym =        48  n1xccc =         0  ntypat =         1  occopt =         1
================================================================================
P This job should need less than                      35.074 Mbytes of memory.
  Rough estimation (10% accuracy) of disk space for files :
_ WF disk file :      0.726 Mbytes ; DEN or POT disk file :      0.846 Mbytes.
================================================================================

--------------------------------------------------------------------------------
------------- Echo of variables that govern the present computation ------------
--------------------------------------------------------------------------------
-
- outvars: echo of selected default values                                      
-   accesswff0 =  0 , fftalg0 =112 , wfoptalg0 =  0
-
- outvars: echo of global parameters not present in the input file              
-  max_nthreads =    0
-
 -outvars: echo values of preprocessed input variables --------
            acell      1.2000000000E+01  1.2000000000E+01  1.2000000000E+01 Bohr
              amu      3.99480000E+01
           diemac      4.00000000E+00
          dilatmx      1.05000000E+00
             ecut      3.40000000E+01 Hartree
           ecutsm      5.00000000E-01 Hartree
-          fftalg         112
           ionmov           3
              ixc          11
              kpt     -2.50000000E-01  5.00000000E-01  0.00000000E+00
                      -2.50000000E-01  0.00000000E+00  0.00000000E+00
         kptrlatt        2   -2    2     -2    2    2     -2   -2    2
          kptrlen      2.40000000E+01
P           mkmem           2
            natom           1
            nband           5
            ngfft          48      48      48
             nkpt           2
            nstep          20
             nsym          48
            ntime          10
           ntypat           1
              occ      2.000000  2.000000  2.000000  2.000000  0.000000
          optcell           1
           prtden           0
           prteig           0
            prtwf           0
            rprim      0.0000000000E+00  5.0000000000E-01  5.0000000000E-01
                       5.0000000000E-01  0.0000000000E+00  5.0000000000E-01
                       5.0000000000E-01  5.0000000000E-01  0.0000000000E+00
           shiftk      5.00000000E-01  5.00000000E-01  5.00000000E-01
          spgroup         225
           symrel      1  0  0   0  1  0   0  0  1      -1  0  0   0 -1  0   0  0 -1
                       0 -1  1   0 -1  0   1 -1  0       0  1 -1   0  1  0  -1  1  0
                      -1  0  0  -1  0  1  -1  1  0       1  0  0   1  0 -1   1 -1  0
                       0  1 -1   1  0 -1   0  0 -1       0 -1  1  -1  0  1   0  0  1
                      -1  0  0  -1  1  0  -1  0  1       1  0  0   1 -1  0   1  0 -1
                       0 -1  1   1 -1  0   0 -1  0       0  1 -1  -1  1  0   0  1  0
                       1  0  0   0  0  1   0  1  0      -1  0  0   0  0 -1   0 -1  0
                       0  1 -1   0  0 -1   1  0 -1       0 -1  1   0  0  1  -1  0  1
                      -1  0  1  -1  1  0  -1  0  0       1  0 -1   1 -1  0   1  0  0
                       0 -1  0   1 -1  0   0 -1  1       0  1  0  -1  1  0   0  1 -1
                       1  0 -1   0  0 -1   0  1 -1      -1  0  1   0  0  1   0 -1  1
                       0  1  0   0  0  1   1  0  0       0 -1  0   0  0 -1  -1  0  0
                       1  0 -1   0  1 -1   0  0 -1      -1  0  1   0 -1  1   0  0  1
                       0 -1  0   0 -1  1   1 -1  0       0  1  0   0  1 -1  -1  1  0
                      -1  0  1  -1  0  0  -1  1  0       1  0 -1   1  0  0   1 -1  0
                       0  1  0   1  0  0   0  0  1       0 -1  0  -1  0  0   0  0 -1
                       0  0 -1   0  1 -1   1  0 -1       0  0  1   0 -1  1  -1  0  1
                       1 -1  0   0 -1  1   0 -1  0      -1  1  0   0  1 -1   0  1  0
                       0  0  1   1  0  0   0  1  0       0  0 -1  -1  0  0   0 -1  0
                      -1  1  0  -1  0  0  -1  0  1       1 -1  0   1  0  0   1  0 -1
                       0  0  1   0  1  0   1  0  0       0  0 -1   0 -1  0  -1  0  0
                       1 -1  0   0 -1  0   0 -1  1      -1  1  0   0  1  0   0  1 -1
                       0  0 -1   1  0 -1   0  1 -1       0  0  1  -1  0  1   0 -1  1
                      -1  1  0  -1  0  1  -1  0  0       1 -1  0   1  0 -1   1  0  0
           toldfe      1.00000000E-06 Hartree
            typat      1
          vdw_tol      1.00000000E-08
           vdw_xc           5
              wtk        0.75000    0.25000
            znucl       18.00000

================================================================================

 chkinp: Checking input parameters for consistency.

================================================================================
== DATASET  1 ==================================================================
-   nproc =    1

 Exchange-correlation functional for the present dataset will be:
  GGA: Perdew-Burke-Ernzerhof functional - ixc=11
 Citation for XC functional:
  J.P.Perdew, K.Burke, M.Ernzerhof, PRL 77, 3865 (1996)

 Real(R)+Recip(G) space primitive vectors, cartesian coordinates (Bohr,Bohr^-1):
 R(1)=  0.0000000  6.0000000  6.0000000  G(1)= -0.0833333  0.0833333  0.0833333
 R(2)=  6.0000000  0.0000000  6.0000000  G(2)=  0.0833333 -0.0833333  0.0833333
 R(3)=  6.0000000  6.0000000  0.0000000  G(3)=  0.0833333  0.0833333 -0.0833333
 Unit cell volume ucvol=  4.3200000E+02 bohr^3
 Angles (23,13,12)=  6.00000000E+01  6.00000000E+01  6.00000000E+01 degrees

 getcut: wavevector=  0.0000  0.0000  0.0000  ngfft=  48  48  48
         ecut(hartree)=     37.485   => boxcut(ratio)=   2.05249

--- Pseudopotential description ------------------------------------------------
- pspini: atom type   1  psp file is /home/gonze/ABINIT/ABINITv7.9.3/trunk/7.9.3-private/tests/Psps_for_tests/18ar.revpbe
- pspatm: opening atomic psp file    /home/gonze/ABINIT/ABINITv7.9.3/trunk/7.9.3-private/tests/Psps_for_tests/18ar.revpbe
-   Ar  APE 1.0 : Troullier-Martins scheme, Perdew-Wang LDA, llocal= 1
- 18.00000   8.00000  20100419                znucl, zion, pspdat
    6    7    1    1       800   0.00000      pspcod,pspxc,lmax,lloc,mmax,r2well
    0.00000000000000    0.00000000000000    0.00000000000000   rchrg,fchrg,qchrg
  1.018841          amesh (Hamman grid)
 pspatm: epsatm=   16.71504544
         --- l  ekb(1:nproj) -->
             0    1.363104
 pspatm: atomic psp has been read  and splines computed

   1.33720364E+02                                ecore*ucvol(ha*bohr**3)
--------------------------------------------------------------------------------

P newkpt: treating      5 bands with npw=    4736 for ikpt=   1 by node    0
P newkpt: treating      5 bands with npw=    4744 for ikpt=   2 by node    0

_setup2: Arith. and geom. avg. npw (full set) are    4738.000    4737.999

================================================================================

=== [ionmov= 3] Broyden-Fletcher-Goldfard-Shanno method (forces,Tot energy) 
================================================================================

--- Iteration: ( 1/10) Internal Cycle: (1/1)
--------------------------------------------------------------------------------

---SELF-CONSISTENT-FIELD CONVERGENCE--------------------------------------------

     iter   Etot(hartree)      deltaE(h)  residm     vres2
 ETOT  1  -21.228972872775    -2.123E+01 1.218E-02 6.979E+01
 ETOT  2  -21.232889970161    -3.917E-03 2.405E-08 2.468E+00
 ETOT  3  -21.232901098145    -1.113E-05 2.219E-07 2.139E-01
 ETOT  4  -21.232906329581    -5.231E-06 3.811E-07 1.518E-02
 ETOT  5  -21.232907430558    -1.101E-06 2.430E-08 6.917E-04
 ETOT  6  -21.232907460261    -2.970E-08 9.581E-10 1.197E-05
 ETOT  7  -21.232907460331    -6.992E-11 8.760E-12 6.775E-07

 At SCF step    7, etot is converged : 
  for the second time, diff in etot=  6.992E-11 < toldfe=  1.000E-06

 Cartesian components of stress tensor (hartree/bohr^3)
  sigma(1 1)=  1.08088504E-05  sigma(3 2)=  0.00000000E+00
  sigma(2 2)=  1.08088504E-05  sigma(3 1)=  0.00000000E+00
  sigma(3 3)=  1.08088504E-05  sigma(2 1)=  0.00000000E+00


---OUTPUT-----------------------------------------------------------------------

 Cartesian coordinates (xcart) [bohr]
  0.00000000000000E+00  0.00000000000000E+00  0.00000000000000E+00
 Reduced coordinates (xred)
  0.00000000000000E+00  0.00000000000000E+00  0.00000000000000E+00
 Cartesian forces (fcart) [Ha/bohr]; max,rms= 0.00000E+00 0.00000E+00 (free atoms)
 -0.00000000000000E+00 -0.00000000000000E+00 -0.00000000000000E+00
 Reduced forces (fred)
  0.00000000000000E+00  0.00000000000000E+00  0.00000000000000E+00
 Scale of Primitive Cell (acell) [bohr]
  1.20000000000000E+01  1.20000000000000E+01  1.20000000000000E+01
 Real space primitive translations (rprimd) [bohr]
  0.00000000000000E+00  6.00000000000000E+00  6.00000000000000E+00
  6.00000000000000E+00  0.00000000000000E+00  6.00000000000000E+00
  6.00000000000000E+00  6.00000000000000E+00  0.00000000000000E+00
 Unitary Cell Volume (ucvol) [Bohr^3]=  4.32000000000000E+02
 Angles (23,13,12)= [degrees]
  6.00000000000000E+01  6.00000000000000E+01  6.00000000000000E+01
 Lengths [Bohr]
  8.48528137423857E+00  8.48528137423857E+00  8.48528137423857E+00
 Stress tensor in cartesian coordinates (strten) [Ha/bohr^3]
  1.08088503914056E-05  0.00000000000000E+00  0.00000000000000E+00
  0.00000000000000E+00  1.08088503914055E-05  0.00000000000000E+00
  0.00000000000000E+00  0.00000000000000E+00  1.08088503914064E-05
 Total energy (etotal) [Ha]= -2.12329074603313E+01

--- Iteration: ( 2/10) Internal Cycle: (1/1)
--------------------------------------------------------------------------------

---SELF-CONSISTENT-FIELD CONVERGENCE--------------------------------------------

     iter   Etot(hartree)      deltaE(h)  residm     vres2
 ETOT  1  -21.232908589693    -2.123E+01 2.618E-12 4.635E-02
 ETOT  2  -21.232911571712    -2.982E-06 3.947E-12 5.936E-03
 ETOT  3  -21.232912021836    -4.501E-07 8.869E-09 2.445E-04
 ETOT  4  -21.232912025462    -3.625E-09 3.070E-10 5.533E-06

 At SCF step    4, etot is converged : 
  for the second time, diff in etot=  3.625E-09 < toldfe=  1.000E-06

 Cartesian components of stress tensor (hartree/bohr^3)
  sigma(1 1)=  1.10724899E-05  sigma(3 2)=  0.00000000E+00
  sigma(2 2)=  1.10724899E-05  sigma(3 1)=  0.00000000E+00
  sigma(3 3)=  1.10724899E-05  sigma(2 1)=  0.00000000E+00


---OUTPUT-----------------------------------------------------------------------

 Cartesian coordinates (xcart) [bohr]
  0.00000000000000E+00  0.00000000000000E+00  0.00000000000000E+00
 Reduced coordinates (xred)
  0.00000000000000E+00  0.00000000000000E+00  0.00000000000000E+00
 Cartesian forces (fcart) [Ha/bohr]; max,rms= 0.00000E+00 0.00000E+00 (free atoms)
 -0.00000000000000E+00 -0.00000000000000E+00 -0.00000000000000E+00
 Reduced forces (fred)
  0.00000000000000E+00  0.00000000000000E+00  0.00000000000000E+00
 Scale of Primitive Cell (acell) [bohr]
  1.19961088138591E+01  1.19961088138591E+01  1.19961088138591E+01
 Real space primitive translations (rprimd) [bohr]
  0.00000000000000E+00  5.99805440692955E+00  5.99805440692955E+00
  5.99805440692955E+00  0.00000000000000E+00  5.99805440692955E+00
  5.99805440692955E+00  5.99805440692955E+00  0.00000000000000E+00
 Unitary Cell Volume (ucvol) [Bohr^3]=  4.31579888154019E+02
 Angles (23,13,12)= [degrees]
  6.00000000000000E+01  6.00000000000000E+01  6.00000000000000E+01
 Lengths [Bohr]
  8.48252989013148E+00  8.48252989013148E+00  8.48252989013148E+00
 Stress tensor in cartesian coordinates (strten) [Ha/bohr^3]
  1.10724898664631E-05  0.00000000000000E+00  0.00000000000000E+00
  0.00000000000000E+00  1.10724898664630E-05  0.00000000000000E+00
  0.00000000000000E+00  0.00000000000000E+00  1.10724898664632E-05
 Total energy (etotal) [Ha]= -2.12329120254618E+01

 Difference of energy with previous step (new-old):
           Absolute (Ha)=-4.56513E-06
           Relative     =-2.15003E-07

--- Iteration: ( 3/10) Internal Cycle: (1/1)
--------------------------------------------------------------------------------

---SELF-CONSISTENT-FIELD CONVERGENCE--------------------------------------------

     iter   Etot(hartree)      deltaE(h)  residm     vres2
 ETOT  1  -21.232911020337    -2.123E+01 4.861E-12 1.062E-01
 ETOT  2  -21.232917863675    -6.843E-06 9.163E-12 1.364E-02
 ETOT  3  -21.232918902225    -1.039E-06 2.048E-08 5.539E-04
 ETOT  4  -21.232918910369    -8.144E-09 6.940E-10 1.261E-05
 ETOT  5  -21.232918911773    -1.404E-09 3.510E-11 4.016E-07

 At SCF step    5, etot is converged : 
  for the second time, diff in etot=  1.404E-09 < toldfe=  1.000E-06

 Cartesian components of stress tensor (hartree/bohr^3)
  sigma(1 1)=  1.09593463E-05  sigma(3 2)=  0.00000000E+00
  sigma(2 2)=  1.09593463E-05  sigma(3 1)=  0.00000000E+00
  sigma(3 3)=  1.09593463E-05  sigma(2 1)=  0.00000000E+00


---OUTPUT-----------------------------------------------------------------------

 Cartesian coordinates (xcart) [bohr]
  0.00000000000000E+00  0.00000000000000E+00  0.00000000000000E+00
 Reduced coordinates (xred)
  0.00000000000000E+00  0.00000000000000E+00  0.00000000000000E+00
 Cartesian forces (fcart) [Ha/bohr]; max,rms= 0.00000E+00 0.00000E+00 (free atoms)
 -0.00000000000000E+00 -0.00000000000000E+00 -0.00000000000000E+00
 Reduced forces (fred)
  0.00000000000000E+00  0.00000000000000E+00  0.00000000000000E+00
 Scale of Primitive Cell (acell) [bohr]
  1.19902720346477E+01  1.19902720346477E+01  1.19902720346477E+01
 Real space primitive translations (rprimd) [bohr]
  0.00000000000000E+00  5.99513601732386E+00  5.99513601732386E+00
  5.99513601732386E+00  0.00000000000000E+00  5.99513601732386E+00
  5.99513601732386E+00  5.99513601732386E+00  0.00000000000000E+00
 Unitary Cell Volume (ucvol) [Bohr^3]=  4.30950231211595E+02
 Angles (23,13,12)= [degrees]
  6.00000000000000E+01  6.00000000000000E+01  6.00000000000000E+01
 Lengths [Bohr]
  8.47840266397082E+00  8.47840266397082E+00  8.47840266397082E+00
 Stress tensor in cartesian coordinates (strten) [Ha/bohr^3]
  1.09593462547274E-05  0.00000000000000E+00  0.00000000000000E+00
  0.00000000000000E+00  1.09593462547274E-05  0.00000000000000E+00
  0.00000000000000E+00  0.00000000000000E+00  1.09593462547274E-05
 Total energy (etotal) [Ha]= -2.12329189117733E+01

 Difference of energy with previous step (new-old):
           Absolute (Ha)=-6.88631E-06
           Relative     =-3.24322E-07

--- Iteration: ( 4/10) Internal Cycle: (1/1)
--------------------------------------------------------------------------------

---SELF-CONSISTENT-FIELD CONVERGENCE--------------------------------------------

     iter   Etot(hartree)      deltaE(h)  residm     vres2
 ETOT  1  -21.232911943374    -2.123E+01 2.333E-10 2.352E-01
 ETOT  2  -21.232927047925    -1.510E-05 1.980E-11 3.008E-02
 ETOT  3  -21.232929326971    -2.279E-06 4.515E-08 1.234E-03
 ETOT  4  -21.232929345394    -1.842E-08 1.560E-09 2.823E-05
 ETOT  5  -21.232929348535    -3.141E-09 7.835E-11 8.830E-07

 At SCF step    5, etot is converged : 
  for the second time, diff in etot=  3.141E-09 < toldfe=  1.000E-06

 Cartesian components of stress tensor (hartree/bohr^3)
  sigma(1 1)=  1.11231770E-05  sigma(3 2)=  0.00000000E+00
  sigma(2 2)=  1.11231770E-05  sigma(3 1)=  0.00000000E+00
  sigma(3 3)=  1.11231770E-05  sigma(2 1)=  0.00000000E+00


---OUTPUT-----------------------------------------------------------------------

 Cartesian coordinates (xcart) [bohr]
  0.00000000000000E+00  0.00000000000000E+00  0.00000000000000E+00
 Reduced coordinates (xred)
  0.00000000000000E+00  0.00000000000000E+00  0.00000000000000E+00
 Cartesian forces (fcart) [Ha/bohr]; max,rms= 0.00000E+00 0.00000E+00 (free atoms)
 -0.00000000000000E+00 -0.00000000000000E+00 -0.00000000000000E+00
 Reduced forces (fred)
  0.00000000000000E+00  0.00000000000000E+00  0.00000000000000E+00
 Scale of Primitive Cell (acell) [bohr]
  1.19815168658307E+01  1.19815168658307E+01  1.19815168658307E+01
 Real space primitive translations (rprimd) [bohr]
  0.00000000000000E+00  5.99075843291534E+00  5.99075843291534E+00
  5.99075843291534E+00  0.00000000000000E+00  5.99075843291534E+00
  5.99075843291534E+00  5.99075843291534E+00  0.00000000000000E+00
 Unitary Cell Volume (ucvol) [Bohr^3]=  4.30006894567370E+02
 Angles (23,13,12)= [degrees]
  6.00000000000000E+01  6.00000000000000E+01  6.00000000000000E+01
 Lengths [Bohr]
  8.47221182472986E+00  8.47221182472986E+00  8.47221182472986E+00
 Stress tensor in cartesian coordinates (strten) [Ha/bohr^3]
  1.11231769626853E-05  0.00000000000000E+00  0.00000000000000E+00
  0.00000000000000E+00  1.11231769626855E-05  0.00000000000000E+00
  0.00000000000000E+00  0.00000000000000E+00  1.11231769626853E-05
 Total energy (etotal) [Ha]= -2.12329293485347E+01

 Difference of energy with previous step (new-old):
           Absolute (Ha)=-1.04368E-05
           Relative     =-4.91537E-07

--- Iteration: ( 5/10) Internal Cycle: (1/1)
--------------------------------------------------------------------------------

---SELF-CONSISTENT-FIELD CONVERGENCE--------------------------------------------

     iter   Etot(hartree)      deltaE(h)  residm     vres2
 ETOT  1  -21.232906285903    -2.123E+01 8.812E-09 5.289E-01
 ETOT  2  -21.232940177358    -3.389E-05 4.393E-11 6.752E-02
 ETOT  3  -21.232945284533    -5.107E-06 1.017E-07 2.764E-03
 ETOT  4  -21.232945326144    -4.161E-08 3.523E-09 6.396E-05
 ETOT  5  -21.232945333237    -7.093E-09 1.762E-10 1.924E-06

 At SCF step    5, etot is converged : 
  for the second time, diff in etot=  7.093E-09 < toldfe=  1.000E-06

 Cartesian components of stress tensor (hartree/bohr^3)
  sigma(1 1)=  1.14476723E-05  sigma(3 2)=  0.00000000E+00
  sigma(2 2)=  1.14476723E-05  sigma(3 1)=  0.00000000E+00
  sigma(3 3)=  1.14476723E-05  sigma(2 1)=  0.00000000E+00


---OUTPUT-----------------------------------------------------------------------

 Cartesian coordinates (xcart) [bohr]
  0.00000000000000E+00  0.00000000000000E+00  0.00000000000000E+00
 Reduced coordinates (xred)
  0.00000000000000E+00  0.00000000000000E+00  0.00000000000000E+00
 Cartesian forces (fcart) [Ha/bohr]; max,rms= 0.00000E+00 0.00000E+00 (free atoms)
 -0.00000000000000E+00 -0.00000000000000E+00 -0.00000000000000E+00
 Reduced forces (fred)
  0.00000000000000E+00  0.00000000000000E+00  0.00000000000000E+00
 Scale of Primitive Cell (acell) [bohr]
  1.19683841126051E+01  1.19683841126051E+01  1.19683841126051E+01
 Real space primitive translations (rprimd) [bohr]
  0.00000000000000E+00  5.98419205630254E+00  5.98419205630254E+00
  5.98419205630254E+00  0.00000000000000E+00  5.98419205630254E+00
  5.98419205630254E+00  5.98419205630254E+00  0.00000000000000E+00
 Unitary Cell Volume (ucvol) [Bohr^3]=  4.28594472339842E+02
 Angles (23,13,12)= [degrees]
  6.00000000000000E+01  6.00000000000000E+01  6.00000000000000E+01
 Lengths [Bohr]
  8.46292556586839E+00  8.46292556586839E+00  8.46292556586839E+00
 Stress tensor in cartesian coordinates (strten) [Ha/bohr^3]
  1.14476722688956E-05  0.00000000000000E+00  0.00000000000000E+00
  0.00000000000000E+00  1.14476722688956E-05  0.00000000000000E+00
  0.00000000000000E+00  0.00000000000000E+00  1.14476722688955E-05
 Total energy (etotal) [Ha]= -2.12329453332371E+01

 Difference of energy with previous step (new-old):
           Absolute (Ha)=-1.59847E-05
           Relative     =-7.52826E-07

--- Iteration: ( 6/10) Internal Cycle: (1/1)
--------------------------------------------------------------------------------

---SELF-CONSISTENT-FIELD CONVERGENCE--------------------------------------------

     iter   Etot(hartree)      deltaE(h)  residm     vres2
 ETOT  1  -21.232882702834    -2.123E+01 2.375E-10 1.189E+00
 ETOT  2  -21.232958644831    -7.594E-05 9.667E-11 1.514E-01
 ETOT  3  -21.232970066733    -1.142E-05 2.293E-07 6.181E-03
 ETOT  4  -21.232970160932    -9.420E-08 7.961E-09 1.452E-04
 ETOT  5  -21.232970176928    -1.600E-08 3.938E-10 4.085E-06

 At SCF step    5, etot is converged : 
  for the second time, diff in etot=  1.600E-08 < toldfe=  1.000E-06

 Cartesian components of stress tensor (hartree/bohr^3)
  sigma(1 1)=  1.19523311E-05  sigma(3 2)=  0.00000000E+00
  sigma(2 2)=  1.19523311E-05  sigma(3 1)=  0.00000000E+00
  sigma(3 3)=  1.19523311E-05  sigma(2 1)=  0.00000000E+00


---OUTPUT-----------------------------------------------------------------------

 Cartesian coordinates (xcart) [bohr]
  0.00000000000000E+00  0.00000000000000E+00  0.00000000000000E+00
 Reduced coordinates (xred)
  0.00000000000000E+00  0.00000000000000E+00  0.00000000000000E+00
 Cartesian forces (fcart) [Ha/bohr]; max,rms= 0.00000E+00 0.00000E+00 (free atoms)
 -0.00000000000000E+00 -0.00000000000000E+00 -0.00000000000000E+00
 Reduced forces (fred)
  0.00000000000000E+00  0.00000000000000E+00  0.00000000000000E+00
 Scale of Primitive Cell (acell) [bohr]
  1.19486849827667E+01  1.19486849827667E+01  1.19486849827667E+01
 Real space primitive translations (rprimd) [bohr]
  0.00000000000000E+00  5.97434249138334E+00  5.97434249138334E+00
  5.97434249138334E+00  0.00000000000000E+00  5.97434249138334E+00
  5.97434249138334E+00  5.97434249138334E+00  0.00000000000000E+00
 Unitary Cell Volume (ucvol) [Bohr^3]=  4.26481643436670E+02
 Angles (23,13,12)= [degrees]
  6.00000000000000E+01  6.00000000000000E+01  6.00000000000000E+01
 Lengths [Bohr]
  8.44899617757618E+00  8.44899617757618E+00  8.44899617757618E+00
 Stress tensor in cartesian coordinates (strten) [Ha/bohr^3]
  1.19523310775705E-05  0.00000000000000E+00  0.00000000000000E+00
  0.00000000000000E+00  1.19523310775702E-05  0.00000000000000E+00
  0.00000000000000E+00  0.00000000000000E+00  1.19523310775704E-05
 Total energy (etotal) [Ha]= -2.12329701769280E+01

 Difference of energy with previous step (new-old):
           Absolute (Ha)=-2.48437E-05
           Relative     =-1.17005E-06

--- Iteration: ( 7/10) Internal Cycle: (1/1)
--------------------------------------------------------------------------------

---SELF-CONSISTENT-FIELD CONVERGENCE--------------------------------------------

     iter   Etot(hartree)      deltaE(h)  residm     vres2
 ETOT  1  -21.232813357266    -2.123E+01 2.782E-06 2.669E+00
 ETOT  2  -21.232983195457    -1.698E-04 2.108E-10 3.389E-01
 ETOT  3  -21.233008672684    -2.548E-05 5.173E-07 1.380E-02
 ETOT  4  -21.233008886430    -2.137E-07 1.799E-08 3.303E-04
 ETOT  5  -21.233008922276    -3.585E-08 8.668E-10 8.297E-06

 At SCF step    5, etot is converged : 
  for the second time, diff in etot=  3.585E-08 < toldfe=  1.000E-06

 Cartesian components of stress tensor (hartree/bohr^3)
  sigma(1 1)=  1.23275669E-05  sigma(3 2)=  0.00000000E+00
  sigma(2 2)=  1.23275669E-05  sigma(3 1)=  0.00000000E+00
  sigma(3 3)=  1.23275669E-05  sigma(2 1)=  0.00000000E+00


---OUTPUT-----------------------------------------------------------------------

 Cartesian coordinates (xcart) [bohr]
  0.00000000000000E+00  0.00000000000000E+00  0.00000000000000E+00
 Reduced coordinates (xred)
  0.00000000000000E+00  0.00000000000000E+00  0.00000000000000E+00
 Cartesian forces (fcart) [Ha/bohr]; max,rms= 0.00000E+00 0.00000E+00 (free atoms)
 -0.00000000000000E+00 -0.00000000000000E+00 -0.00000000000000E+00
 Reduced forces (fred)
  0.00000000000000E+00  0.00000000000000E+00  0.00000000000000E+00
 Scale of Primitive Cell (acell) [bohr]
  1.19191362880091E+01  1.19191362880091E+01  1.19191362880091E+01
 Real space primitive translations (rprimd) [bohr]
  0.00000000000000E+00  5.95956814400455E+00  5.95956814400455E+00
  5.95956814400455E+00  0.00000000000000E+00  5.95956814400455E+00
  5.95956814400455E+00  5.95956814400455E+00  0.00000000000000E+00
 Unitary Cell Volume (ucvol) [Bohr^3]=  4.23325437373496E+02
 Angles (23,13,12)= [degrees]
  6.00000000000000E+01  6.00000000000000E+01  6.00000000000000E+01
 Lengths [Bohr]
  8.42810209513788E+00  8.42810209513788E+00  8.42810209513788E+00
 Stress tensor in cartesian coordinates (strten) [Ha/bohr^3]
  1.23275669086975E-05  0.00000000000000E+00  0.00000000000000E+00
  0.00000000000000E+00  1.23275669086974E-05  0.00000000000000E+00
  0.00000000000000E+00  0.00000000000000E+00  1.23275669086980E-05
 Total energy (etotal) [Ha]= -2.12330089222761E+01

 Difference of energy with previous step (new-old):
           Absolute (Ha)=-3.87453E-05
           Relative     =-1.82477E-06

--- Iteration: ( 8/10) Internal Cycle: (1/1)
--------------------------------------------------------------------------------

---SELF-CONSISTENT-FIELD CONVERGENCE--------------------------------------------

     iter   Etot(hartree)      deltaE(h)  residm     vres2
 ETOT  1  -21.232630688324    -2.123E+01 9.860E-10 5.992E+00
 ETOT  2  -21.233009289206    -3.786E-04 4.479E-10 7.558E-01
 ETOT  3  -21.233065843755    -5.655E-05 1.169E-06 3.065E-02
 ETOT  4  -21.233066331146    -4.874E-07 4.095E-08 7.741E-04
 ETOT  5  -21.233066412978    -8.183E-08 1.922E-09 1.623E-05

 At SCF step    5, etot is converged : 
  for the second time, diff in etot=  8.183E-08 < toldfe=  1.000E-06

 Cartesian components of stress tensor (hartree/bohr^3)
  sigma(1 1)=  1.19003542E-05  sigma(3 2)=  0.00000000E+00
  sigma(2 2)=  1.19003542E-05  sigma(3 1)=  0.00000000E+00
  sigma(3 3)=  1.19003542E-05  sigma(2 1)=  0.00000000E+00


---OUTPUT-----------------------------------------------------------------------

 Cartesian coordinates (xcart) [bohr]
  0.00000000000000E+00  0.00000000000000E+00  0.00000000000000E+00
 Reduced coordinates (xred)
  0.00000000000000E+00  0.00000000000000E+00  0.00000000000000E+00
 Cartesian forces (fcart) [Ha/bohr]; max,rms= 0.00000E+00 0.00000E+00 (free atoms)
 -0.00000000000000E+00 -0.00000000000000E+00 -0.00000000000000E+00
 Reduced forces (fred)
  0.00000000000000E+00  0.00000000000000E+00  0.00000000000000E+00
 Scale of Primitive Cell (acell) [bohr]
  1.18748132458727E+01  1.18748132458727E+01  1.18748132458727E+01
 Real space primitive translations (rprimd) [bohr]
  0.00000000000000E+00  5.93740662293636E+00  5.93740662293636E+00
  5.93740662293636E+00  0.00000000000000E+00  5.93740662293636E+00
  5.93740662293636E+00  5.93740662293636E+00  0.00000000000000E+00
 Unitary Cell Volume (ucvol) [Bohr^3]=  4.18620385591889E+02
 Angles (23,13,12)= [degrees]
  6.00000000000000E+01  6.00000000000000E+01  6.00000000000000E+01
 Lengths [Bohr]
  8.39676097148044E+00  8.39676097148044E+00  8.39676097148044E+00
 Stress tensor in cartesian coordinates (strten) [Ha/bohr^3]
  1.19003542458620E-05  0.00000000000000E+00  0.00000000000000E+00
  0.00000000000000E+00  1.19003542458623E-05  0.00000000000000E+00
  0.00000000000000E+00  0.00000000000000E+00  1.19003542458620E-05
 Total energy (etotal) [Ha]= -2.12330664129783E+01

 Difference of energy with previous step (new-old):
           Absolute (Ha)=-5.74907E-05
           Relative     =-2.70761E-06

--- Iteration: ( 9/10) Internal Cycle: (1/1)
--------------------------------------------------------------------------------

---SELF-CONSISTENT-FIELD CONVERGENCE--------------------------------------------

     iter   Etot(hartree)      deltaE(h)  residm     vres2
 ETOT  1  -21.232183869385    -2.123E+01 7.690E-10 1.343E+01
 ETOT  2  -21.233024192055    -8.403E-04 9.246E-10 1.678E+00
 ETOT  3  -21.233149000161    -1.248E-04 2.649E-06 6.775E-02
 ETOT  4  -21.233150119477    -1.119E-06 9.357E-08 1.859E-03
 ETOT  5  -21.233150305812    -1.863E-07 4.176E-09 3.084E-05
 ETOT  6  -21.233150305863    -5.139E-11 1.637E-11 1.404E-06

 At SCF step    6, etot is converged : 
  for the second time, diff in etot=  5.139E-11 < toldfe=  1.000E-06

 Cartesian components of stress tensor (hartree/bohr^3)
  sigma(1 1)=  1.21772409E-05  sigma(3 2)=  0.00000000E+00
  sigma(2 2)=  1.21772409E-05  sigma(3 1)=  0.00000000E+00
  sigma(3 3)=  1.21772409E-05  sigma(2 1)=  0.00000000E+00


---OUTPUT-----------------------------------------------------------------------

 Cartesian coordinates (xcart) [bohr]
  0.00000000000000E+00  0.00000000000000E+00  0.00000000000000E+00
 Reduced coordinates (xred)
  0.00000000000000E+00  0.00000000000000E+00  0.00000000000000E+00
 Cartesian forces (fcart) [Ha/bohr]; max,rms= 0.00000E+00 0.00000E+00 (free atoms)
 -0.00000000000000E+00 -0.00000000000000E+00 -0.00000000000000E+00
 Reduced forces (fred)
  0.00000000000000E+00  0.00000000000000E+00  0.00000000000000E+00
 Scale of Primitive Cell (acell) [bohr]
  1.18083286826682E+01  1.18083286826682E+01  1.18083286826682E+01
 Real space primitive translations (rprimd) [bohr]
  0.00000000000000E+00  5.90416434133409E+00  5.90416434133409E+00
  5.90416434133409E+00  0.00000000000000E+00  5.90416434133409E+00
  5.90416434133409E+00  5.90416434133409E+00  0.00000000000000E+00
 Unitary Cell Volume (ucvol) [Bohr^3]=  4.11628378373022E+02
 Angles (23,13,12)= [degrees]
  6.00000000000000E+01  6.00000000000000E+01  6.00000000000000E+01
 Lengths [Bohr]
  8.34974928599427E+00  8.34974928599427E+00  8.34974928599427E+00
 Stress tensor in cartesian coordinates (strten) [Ha/bohr^3]
  1.21772409009658E-05  0.00000000000000E+00  0.00000000000000E+00
  0.00000000000000E+00  1.21772409009658E-05  0.00000000000000E+00
  0.00000000000000E+00  0.00000000000000E+00  1.21772409009661E-05
 Total energy (etotal) [Ha]= -2.12331503058632E+01

 Difference of energy with previous step (new-old):
           Absolute (Ha)=-8.38929E-05
           Relative     =-3.95104E-06

--- Iteration: (10/10) Internal Cycle: (1/1)
--------------------------------------------------------------------------------

---SELF-CONSISTENT-FIELD CONVERGENCE--------------------------------------------

     iter   Etot(hartree)      deltaE(h)  residm     vres2
 ETOT  1  -21.231150487832    -2.123E+01 2.629E-09 3.003E+01
 ETOT  2  -21.233003077970    -1.853E-03 1.947E-09 3.706E+00
 ETOT  3  -21.233276043812    -2.730E-04 6.031E-06 1.490E-01
 ETOT  4  -21.233278636097    -2.592E-06 2.144E-07 4.610E-03
 ETOT  5  -21.233279055806    -4.197E-07 9.001E-09 6.798E-05
 ETOT  6  -21.233279056482    -6.765E-10 5.830E-11 4.277E-06

 At SCF step    6, etot is converged : 
  for the second time, diff in etot=  6.765E-10 < toldfe=  1.000E-06

 Cartesian components of stress tensor (hartree/bohr^3)
  sigma(1 1)=  1.26117254E-05  sigma(3 2)=  0.00000000E+00
  sigma(2 2)=  1.26117254E-05  sigma(3 1)=  0.00000000E+00
  sigma(3 3)=  1.26117254E-05  sigma(2 1)=  0.00000000E+00


---OUTPUT-----------------------------------------------------------------------

 Cartesian coordinates (xcart) [bohr]
  0.00000000000000E+00  0.00000000000000E+00  0.00000000000000E+00
 Reduced coordinates (xred)
  0.00000000000000E+00  0.00000000000000E+00  0.00000000000000E+00
 Cartesian forces (fcart) [Ha/bohr]; max,rms= 0.00000E+00 0.00000E+00 (free atoms)
 -0.00000000000000E+00 -0.00000000000000E+00 -0.00000000000000E+00
 Reduced forces (fred)
  0.00000000000000E+00  0.00000000000000E+00  0.00000000000000E+00
 Scale of Primitive Cell (acell) [bohr]
  1.17086018378613E+01  1.17086018378613E+01  1.17086018378613E+01
 Real space primitive translations (rprimd) [bohr]
  0.00000000000000E+00  5.85430091893066E+00  5.85430091893066E+00
  5.85430091893066E+00  0.00000000000000E+00  5.85430091893066E+00
  5.85430091893066E+00  5.85430091893066E+00  0.00000000000000E+00
 Unitary Cell Volume (ucvol) [Bohr^3]=  4.01287028624160E+02
 Angles (23,13,12)= [degrees]
  6.00000000000000E+01  6.00000000000000E+01  6.00000000000000E+01
 Lengths [Bohr]
  8.27923175776501E+00  8.27923175776501E+00  8.27923175776501E+00
 Stress tensor in cartesian coordinates (strten) [Ha/bohr^3]
  1.26117253916873E-05  0.00000000000000E+00  0.00000000000000E+00
  0.00000000000000E+00  1.26117253916873E-05  0.00000000000000E+00
  0.00000000000000E+00  0.00000000000000E+00  1.26117253916874E-05
 Total energy (etotal) [Ha]= -2.12332790564823E+01

 Difference of energy with previous step (new-old):
           Absolute (Ha)=-1.28751E-04
           Relative     =-6.06364E-06

 fconv : WARNING -
  ntime=   10 was not enough Broyd/MD steps to converge gradients: 
  max grad (force/stress) = 1.2612E-03 > tolmxf= 5.0000E-05 ha/bohr (free atoms)

================================================================================

 ----iterations are completed or convergence reached----

 Mean square residual over all n,k,spin=   1.4468E-11; max=  5.8297E-11
  -0.2500  0.5000  0.0000    1  5.82966E-11 kpt; spin; max resid(k); each band:
  1.24E-11 1.28E-11 1.53E-12 1.40E-13 5.83E-11
  -0.2500  0.0000  0.0000    1  3.03323E-11 kpt; spin; max resid(k); each band:
  2.23E-11 6.62E-12 1.23E-13 1.23E-13 3.03E-11
 reduced coordinates (array xred) for    1 atoms
       0.000000000000      0.000000000000      0.000000000000
 rms dE/dt=  0.0000E+00; max dE/dt=  0.0000E+00; dE/dt below (all hartree)
    1       0.000000000000      0.000000000000      0.000000000000

 cartesian coordinates (angstrom) at end:
    1      0.00000000000000     0.00000000000000     0.00000000000000

 cartesian forces (hartree/bohr) at end:
    1     -0.00000000000000    -0.00000000000000    -0.00000000000000
 frms,max,avg= 0.0000000E+00 0.0000000E+00   0.000E+00  0.000E+00  0.000E+00 h/b

 cartesian forces (eV/Angstrom) at end:
    1     -0.00000000000000    -0.00000000000000    -0.00000000000000
 frms,max,avg= 0.0000000E+00 0.0000000E+00   0.000E+00  0.000E+00  0.000E+00 e/A
 length scales= 11.708601837861 11.708601837861 11.708601837861 bohr
              =  6.195925237051  6.195925237051  6.195925237051 angstroms
 Fermi (or HOMO) energy (hartree) =  -0.28925   Average Vxc (hartree)=  -0.18924
 Eigenvalues (hartree) for nkpt=   2  k points:
 kpt#   1, nband=  5, wtk=  0.75000, kpt= -0.2500  0.5000  0.0000 (reduced coord)
  -0.79518  -0.30086  -0.29415  -0.29182   0.12863
 kpt#   2, nband=  5, wtk=  0.25000, kpt= -0.2500  0.0000  0.0000 (reduced coord)
  -0.79613  -0.29630  -0.28925  -0.28925   0.05584
 Total charge density [el/Bohr^3]
,     Maximum=    3.8801E-01  at reduced coord.    0.0833    0.8958    0.9792
,Next maximum=    3.8801E-01  at reduced coord.    0.0417    0.8958    0.9792
,     Minimum=    6.4698E-05  at reduced coord.    0.5000    0.5000    0.5000
,Next minimum=    6.5852E-05  at reduced coord.    0.5000    0.5000    0.4792
,  Integrated=    8.0000E+00

--------------------------------------------------------------------------------
 Components of total free energy (in Hartree) :

    Kinetic energy  =  7.50682340802347E+00
    Hartree energy  =  6.75500402918272E+00
    XC energy       = -3.63083484571190E+00
    Ewald energy    = -1.25305812259512E+01
    PspCore energy  =  3.33228721549447E-01
    Loc. psp. energy= -2.05358681114567E+01
    NL   psp  energy=  8.70289920707301E-01
    Vd Walls DFT-D2 = -1.34095282553119E-03
    >>>>>>>>> Etotal= -2.12332790564823E+01

 Other information on the energy :
    Total energy(eV)= -5.77786907012439E+02 ; Band energy (Ha)=  -3.3584904933E+00
--------------------------------------------------------------------------------

 Cartesian components of stress tensor (hartree/bohr^3)
  sigma(1 1)=  1.26117254E-05  sigma(3 2)=  0.00000000E+00
  sigma(2 2)=  1.26117254E-05  sigma(3 1)=  0.00000000E+00
  sigma(3 3)=  1.26117254E-05  sigma(2 1)=  0.00000000E+00

-Cartesian components of stress tensor (GPa)         [Pressure= -3.7105E-01 GPa]
- sigma(1 1)=  3.71049709E-01  sigma(3 2)=  0.00000000E+00
- sigma(2 2)=  3.71049709E-01  sigma(3 1)=  0.00000000E+00
- sigma(3 3)=  3.71049709E-01  sigma(2 1)=  0.00000000E+00

== END DATASET(S) ==============================================================
================================================================================
  
 -outvars: echo values of variables after computation  --------
            acell      1.1708601838E+01  1.1708601838E+01  1.1708601838E+01 Bohr
              amu      3.99480000E+01
           diemac      4.00000000E+00
          dilatmx      1.05000000E+00
             ecut      3.40000000E+01 Hartree
           ecutsm      5.00000000E-01 Hartree
           etotal     -2.1233279056E+01
            fcart     -0.0000000000E+00 -0.0000000000E+00 -0.0000000000E+00
-          fftalg         112
           ionmov           3
              ixc          11
              kpt     -2.50000000E-01  5.00000000E-01  0.00000000E+00
                      -2.50000000E-01  0.00000000E+00  0.00000000E+00
         kptrlatt        2   -2    2     -2    2    2     -2   -2    2
          kptrlen      2.40000000E+01
P           mkmem           2
            natom           1
            nband           5
            ngfft          48      48      48
             nkpt           2
            nstep          20
             nsym          48
            ntime          10
           ntypat           1
              occ      2.000000  2.000000  2.000000  2.000000  0.000000
          optcell           1
           prtden           0
           prteig           0
            prtwf           0
            rprim      0.0000000000E+00  5.0000000000E-01  5.0000000000E-01
                       5.0000000000E-01  0.0000000000E+00  5.0000000000E-01
                       5.0000000000E-01  5.0000000000E-01  0.0000000000E+00
           shiftk      5.00000000E-01  5.00000000E-01  5.00000000E-01
          spgroup         225
           strten      1.2611725392E-05  1.2611725392E-05  1.2611725392E-05
                       0.0000000000E+00  0.0000000000E+00  0.0000000000E+00
           symrel      1  0  0   0  1  0   0  0  1      -1  0  0   0 -1  0   0  0 -1
                       0 -1  1   0 -1  0   1 -1  0       0  1 -1   0  1  0  -1  1  0
                      -1  0  0  -1  0  1  -1  1  0       1  0  0   1  0 -1   1 -1  0
                       0  1 -1   1  0 -1   0  0 -1       0 -1  1  -1  0  1   0  0  1
                      -1  0  0  -1  1  0  -1  0  1       1  0  0   1 -1  0   1  0 -1
                       0 -1  1   1 -1  0   0 -1  0       0  1 -1  -1  1  0   0  1  0
                       1  0  0   0  0  1   0  1  0      -1  0  0   0  0 -1   0 -1  0
                       0  1 -1   0  0 -1   1  0 -1       0 -1  1   0  0  1  -1  0  1
                      -1  0  1  -1  1  0  -1  0  0       1  0 -1   1 -1  0   1  0  0
                       0 -1  0   1 -1  0   0 -1  1       0  1  0  -1  1  0   0  1 -1
                       1  0 -1   0  0 -1   0  1 -1      -1  0  1   0  0  1   0 -1  1
                       0  1  0   0  0  1   1  0  0       0 -1  0   0  0 -1  -1  0  0
                       1  0 -1   0  1 -1   0  0 -1      -1  0  1   0 -1  1   0  0  1
                       0 -1  0   0 -1  1   1 -1  0       0  1  0   0  1 -1  -1  1  0
                      -1  0  1  -1  0  0  -1  1  0       1  0 -1   1  0  0   1 -1  0
                       0  1  0   1  0  0   0  0  1       0 -1  0  -1  0  0   0  0 -1
                       0  0 -1   0  1 -1   1  0 -1       0  0  1   0 -1  1  -1  0  1
                       1 -1  0   0 -1  1   0 -1  0      -1  1  0   0  1 -1   0  1  0
                       0  0  1   1  0  0   0  1  0       0  0 -1  -1  0  0   0 -1  0
                      -1  1  0  -1  0  0  -1  0  1       1 -1  0   1  0  0   1  0 -1
                       0  0  1   0  1  0   1  0  0       0  0 -1   0 -1  0  -1  0  0
                       1 -1  0   0 -1  0   0 -1  1      -1  1  0   0  1  0   0  1 -1
                       0  0 -1   1  0 -1   0  1 -1       0  0  1  -1  0  1   0 -1  1
                      -1  1  0  -1  0  1  -1  0  0       1 -1  0   1  0 -1   1  0  0
           toldfe      1.00000000E-06 Hartree
            typat      1
          vdw_tol      1.00000000E-08
           vdw_xc           5
              wtk        0.75000    0.25000
            znucl       18.00000

================================================================================


- Timing analysis has been suppressed with timopt=0



================================================================================

 Suggested references for the acknowledgment of ABINIT usage.

 The users of ABINIT have little formal obligations with respect to the ABINIT group
 (those specified in the GNU General Public License, http://www.gnu.org/copyleft/gpl.txt).
 However, it is common practice in the scientific literature,
 to acknowledge the efforts of people that have made the research possible.
 In this spirit, please find below suggested citations of work written by ABINIT developers,
 corresponding to implementations inside of ABINIT that you have used in the present run.
 Note also that it will be of great value to readers of publications presenting these results,
 to read papers enabling them to understand the theoretical formalism and details
 of the ABINIT implementation.
 For information on why they are suggested, see also http://www.abinit.org/about/?text=acknowledgments.

 [1] Ab initio pseudopotentials for electronic structure calculations of poly-atomic systems, 
 using density-functional theory.
 M. Fuchs, M. Scheffler, Comput. Phys. Commun. 119, 67 (1999).
 Comment : Some pseudopotential generated using the FHI code were used.

 [2] ABINIT : First-principles approach of materials and nanosystem properties.
 X. Gonze, B. Amadon, P.-M. Anglade, J.-M. Beuken, F. Bottin, P. Boulanger, F. Bruneval,
 D. Caliste, R. Caracas, M. Cote, T. Deutsch, L. Genovese, Ph. Ghosez, M. Giantomassi
 S. Goedecker, D.R. Hamann, P. Hermet, F. Jollet, G. Jomard, S. Leroux, M. Mancini, S. Mazevet,
 M.J.T. Oliveira, G. Onida, Y. Pouillon, T. Rangel, G.-M. Rignanese, D. Sangalli, R. Shaltaf,
 M. Torrent, M.J. Verstraete, G. Zerah, J.W. Zwanziger
 Computer Phys. Comm. 180, 2582-2615 (2009).
 Comment : the third generic paper describing the ABINIT project.
 Note that a version of this paper, that is not formatted for Computer Phys. Comm. 
 is available at http://www.abinit.org/about/ABINIT_CPC_v10.pdf .
 The licence allows the authors to put it on the Web.

 [3] A brief introduction to the ABINIT software package.
 X. Gonze, G.-M. Rignanese, M. Verstraete, J.-M. Beuken, Y. Pouillon, R. Caracas, F. Jollet,
 M. Torrent, G. Zerah, M. Mikami, Ph. Ghosez, M. Veithen, J.-Y. Raty, V. Olevano, F. Bruneval,
 L. Reining, R. Godby, G. Onida, D.R. Hamann, and D.C. Allan.
 Z. Kristallogr. 220, 558-562 (2005).
 Comment : the second generic paper describing the ABINIT project. Note that this paper
 should be cited especially if you are using the GW part of ABINIT, as several authors
 of this part are not in the list of authors of the first or third paper.
 The .pdf of the latter paper is available at http://www.abinit.org/about/zfk_0505-06_558-562.pdf.
 Note that it should not redistributed (Copyright by Oldenburg Wissenshaftverlag,
 the licence allows the authors to put it on the Web).


 And optionally :

 [4] First-principles computation of material properties : the ABINIT software project. 
 X. Gonze, J.-M. Beuken, R. Caracas, F. Detraux, M. Fuchs, G.-M. Rignanese, L. Sindic,
 M. Verstraete, G. Zerah, F. Jollet, M. Torrent, A. Roy, M. Mikami, Ph. Ghosez, J.-Y. Raty, D.C. Allan.
 Computational Materials Science 25, 478-492 (2002). http://dx.doi.org/10.1016/S0927-0256(02)00325-7
 Comment : the original paper describing the ABINIT project.

 [5] Fast radix 2, 3, 4 and 5 kernels for Fast Fourier Transformations
 on computers with overlapping multiply-add instructions.
 S. Goedecker, SIAM J. on Scientific Computing 18, 1605 (1997).
-
- Proc.   0 individual time (sec): cpu=         19.9  wall=         37.2

================================================================================

 Calculation completed.
.Delivered   10 WARNINGs and   9 COMMENTs to log file.
+Overall time at end (sec) : cpu=         19.9  wall=         37.2
