
.Version 7.9.3 of ABINIT 
.(sequential version, prepared for a x86_64_linux_gnu4.7 computer) 

.Copyright (C) 1998-2014 ABINIT group . 
 ABINIT comes with ABSOLUTELY NO WARRANTY.
 It is free software, and you are welcome to redistribute it
 under certain conditions (GNU General Public License,
 see ~abinit/COPYING or http://www.gnu.org/copyleft/gpl.txt).

 ABINIT is a project of the Universite Catholique de Louvain,
 Corning Inc. and other collaborators, see ~abinit/doc/developers/contributors.txt .
 Please read ~abinit/doc/users/acknowledgments.html for suggested
 acknowledgments of the ABINIT effort.
 For more information, see http://www.abinit.org .

.Starting date : Sat 30 Aug 2014.
- ( at 09h40 )
  
- input  file    -> tsv4_55.in
- output file    -> tsv4_55.out
- root for input  files -> tsv4_55i
- root for output files -> tsv4_55o


 DATASET    1 : space group R3 c (#161); Bravais hR (rhombohedral)
================================================================================
 Values of the parameters that define the memory need for DATASET  1.
   intxc =         0  ionmov =         0    iscf =         5 xclevel =         1
  lmnmax =         3   lnmax =         3   mband =        34  mffmem =         1
P  mgfft =        16   mkmem =         2 mpssoang=         3     mpw =       181
  mqgrid =      3001   natom =        10    nfft =      4096    nkpt =         2
  nloalg =         4  nspden =         1 nspinor =         1  nsppol =         1
    nsym =         6  n1xccc =         0  ntypat =         3  occopt =         1
================================================================================
P This job should need less than                       2.146 Mbytes of memory.
  Rough estimation (10% accuracy) of disk space for files :
_ WF disk file :      0.190 Mbytes ; DEN or POT disk file :      0.033 Mbytes.
================================================================================


 DATASET    2 : space group Cc (#  9); Bravais mC (1-face-center monocl.)
================================================================================
 Values of the parameters that define the memory need for DATASET  2.
   intxc =         0  ionmov =         0    iscf =         5 xclevel =         1
  lmnmax =         3   lnmax =         3   mband =        34  mffmem =         1
P  mgfft =        16   mkmem =         3 mpssoang=         3     mpw =       181
  mqgrid =      3001   natom =        10    nfft =      4096    nkpt =         3
  nloalg =         4  nspden =         1 nspinor =         1  nsppol =         1
    nsym =         2  n1xccc =         0  ntypat =         3  occopt =         1
================================================================================
P This job should need less than                       2.253 Mbytes of memory.
  Rough estimation (10% accuracy) of disk space for files :
_ WF disk file :      0.284 Mbytes ; DEN or POT disk file :      0.033 Mbytes.
================================================================================

--------------------------------------------------------------------------------
------------- Echo of variables that govern the present computation ------------
--------------------------------------------------------------------------------
-
- outvars: echo of selected default values                                      
-   accesswff0 =  0 , fftalg0 =112 , wfoptalg0 =  0
-
- outvars: echo of global parameters not present in the input file              
-  max_nthreads =    0
-
 -outvars: echo values of preprocessed input variables --------
            acell      1.0260157145E+01  1.0260157145E+01  1.0260157145E+01 Bohr
              amu      9.29063800E+01  6.94100000E+00  1.59994000E+01
         berryopt1         -1
         berryopt2          4
           diemac      6.00000000E+00
             ecut      3.00000000E+00 Hartree
           efield1     0.00000000E+00  0.00000000E+00  0.00000000E+00
           efield2     1.00000000E-04  0.00000000E+00  0.00000000E+00
-          fftalg         112
           getwfk1          0
           getwfk2          1
             iscf           5
              ixc           7
           jdtset        1    2
              kpt1     2.50000000E-01  2.50000000E-01  2.50000000E-01
                      -2.50000000E-01  2.50000000E-01  2.50000000E-01
              kpt2     2.50000000E-01  2.50000000E-01  2.50000000E-01
                      -2.50000000E-01  2.50000000E-01  2.50000000E-01
                       2.50000000E-01 -2.50000000E-01  2.50000000E-01
         kptrlatt        2    0    0      0    2    0      0    0    2
          kptrlen      1.91510682E+01
P           mkmem1          2
P           mkmem2          3
            natom          10
            nband1         34
            nband2         34
           ndtset           2
            ngfft          16      16      16
             nkpt1          2
             nkpt2          3
            nstep         200
             nsym1          6
             nsym2          2
           ntypat           3
              occ1     2.000000  2.000000  2.000000  2.000000  2.000000  2.000000
                       2.000000  2.000000  2.000000  2.000000  2.000000  2.000000
                       2.000000  2.000000  2.000000  2.000000  2.000000  2.000000
                       2.000000  2.000000  2.000000  2.000000  2.000000  2.000000
                       2.000000  2.000000  2.000000  2.000000  2.000000  2.000000
                       2.000000  2.000000  2.000000  2.000000
              occ2     2.000000  2.000000  2.000000  2.000000  2.000000  2.000000
                       2.000000  2.000000  2.000000  2.000000  2.000000  2.000000
                       2.000000  2.000000  2.000000  2.000000  2.000000  2.000000
                       2.000000  2.000000  2.000000  2.000000  2.000000  2.000000
                       2.000000  2.000000  2.000000  2.000000  2.000000  2.000000
                       2.000000  2.000000  2.000000  2.000000
            rfdir1          1       1       1
            rfdir2          0       0       0
            rprim      5.3882578138E-01  0.0000000000E+00  8.4241722283E-01
                      -2.6941289069E-01  4.6663681489E-01  8.4241722283E-01
                      -2.6941289069E-01 -4.6663681489E-01  8.4241722283E-01
           shiftk      5.00000000E-01  5.00000000E-01  5.00000000E-01
          spgroup1        161
          spgroup2          9
           symafm1       1    1    1    1    1    1
           symafm2       1    1
           symrel1     1  0  0   0  1  0   0  0  1       0  1  0   1  0  0   0  0  1
                       0  0  1   1  0  0   0  1  0       1  0  0   0  0  1   0  1  0
                       0  1  0   0  0  1   1  0  0       0  0  1   0  1  0   1  0  0
           symrel2     1  0  0   0  1  0   0  0  1       1  0  0   0  0  1   0  1  0
            tnons1     0.0000000  0.0000000  0.0000000     0.5000000  0.5000000  0.5000000
                       0.0000000  0.0000000  0.0000000     0.5000000  0.5000000  0.5000000
                       0.0000000  0.0000000  0.0000000     0.5000000  0.5000000  0.5000000
            tnons2     0.0000000  0.0000000  0.0000000     0.5000000  0.5000000  0.5000000
           toldfe      1.00000000E-10 Hartree
            typat      1  1  2  2  3  3  3  3  3  3
              wtk1       0.25000    0.75000
              wtk2       0.25000    0.25000    0.50000
           xangst      0.0000000000E+00  0.0000000000E+00 -8.5303879162E-03
                       0.0000000000E+00  0.0000000000E+00  6.8522519267E+00
                       0.0000000000E+00  0.0000000000E+00  3.8847380230E+00
                       0.0000000000E+00  0.0000000000E+00  1.0745520338E+01
                       1.4079003709E+00  6.5979245129E-01  5.4571231627E+00
                      -1.2753472095E+00  8.8938126151E-01  5.4571231627E+00
                      -1.3255316138E-01 -1.5491737128E+00  5.4571231627E+00
                       1.3302083189E+00 -9.8440349033E-01  7.7440506009E+00
                       1.8741427077E-01  1.6441959416E+00  7.7440506009E+00
                      -1.5176225896E+00 -6.5979245129E-01  7.7440506009E+00
            xcart      0.0000000000E+00  0.0000000000E+00 -1.6120096969E-02
                       0.0000000000E+00  0.0000000000E+00  1.2948879535E+01
                       0.0000000000E+00  0.0000000000E+00  7.3410909615E+00
                       0.0000000000E+00  0.0000000000E+00  2.0306090593E+01
                       2.6605461233E+00  1.2468270375E+00  1.0312468251E+01
                      -2.4100569502E+00  1.6806870120E+00  1.0312468251E+01
                      -2.5048917306E-01 -2.9275140495E+00  1.0312468251E+01
                       2.5137294223E+00 -1.8602530010E+00  1.4634134795E+01
                       3.5416164515E-01  3.1070800385E+00  1.4634134795E+01
                      -2.8678910675E+00 -1.2468270375E+00  1.4634134795E+01
             xred     -6.2167749428E-04 -6.2167749428E-04 -6.2167749428E-04
                       4.9937832251E-01  4.9937832251E-01  4.9937832251E-01
                       2.8311188469E-01  2.8311188469E-01  2.8311188469E-01
                       7.8311188469E-01  7.8311188469E-01  7.8311188469E-01
                       7.1853575943E-01  3.6749800127E-01  1.0707868171E-01
                       1.0707868171E-01  7.1853575943E-01  3.6749800127E-01
                       3.6749800127E-01  1.0707868171E-01  7.1853575943E-01
                       8.6749800127E-01  2.1853575943E-01  6.0707868171E-01
                       6.0707868171E-01  8.6749800127E-01  2.1853575943E-01
                       2.1853575943E-01  6.0707868171E-01  8.6749800127E-01
            znucl       41.00000    3.00000    8.00000

================================================================================

 chkinp: Checking input parameters for consistency, jdtset=   1.

 chkinp: Checking input parameters for consistency, jdtset=   2.

================================================================================
== DATASET  1 ==================================================================
-   nproc =    1

 Exchange-correlation functional for the present dataset will be:
  LDA: Perdew-Wang 92 LSD fit to Ceperley-Alder data - ixc=7
 Citation for XC functional:
  J.P.Perdew and Y.Wang, PRB 45, 13244 (1992)

 Real(R)+Recip(G) space primitive vectors, cartesian coordinates (Bohr,Bohr^-1):
 R(1)=  5.5284372  0.0000000  8.6433331  G(1)=  0.1205886  0.0000000  0.0385654
 R(2)= -2.7642186  4.7877671  8.6433331  G(2)= -0.0602943  0.1044328  0.0385654
 R(3)= -2.7642186 -4.7877671  8.6433331  G(3)= -0.0602943 -0.1044328  0.0385654
 Unit cell volume ucvol=  6.8633776E+02 bohr^3
 Angles (23,13,12)=  5.56324109E+01  5.56324109E+01  5.56324109E+01 degrees

 getcut: wavevector=  0.0000  0.0000  0.0000  ngfft=  16  16  16
         ecut(hartree)=      3.000   => boxcut(ratio)=   2.00793

--- Pseudopotential description ------------------------------------------------
- pspini: atom type   1  psp file is /data/ABINIT/testf_gcc47_serial/trunk_7.9.3-private/tests/Psps_for_tests/41nb_001023.pspfhi
- pspatm: opening atomic psp file    /data/ABINIT/testf_gcc47_serial/trunk_7.9.3-private/tests/Psps_for_tests/41nb_001023.pspfhi
- Nb, fhi98PP: TM-type, LDA Perdew/Wang, l = 2 local
- 41.00000  13.00000      1023                znucl, zion, pspdat
    6    7    2    2       539   0.00000      pspcod,pspxc,lmax,lloc,mmax,r2well
    1.20000000000000    0.00000000000000    0.00000000000000   rchrg,fchrg,qchrg
  1.024700          amesh (Hamman grid)
 pspatm: epsatm=   19.94110200
         --- l  ekb(1:nproj) -->
             0   15.574102
             1    9.959063
 pspatm: atomic psp has been read  and splines computed

- pspini: atom type   2  psp file is /data/ABINIT/testf_gcc47_serial/trunk_7.9.3-private/tests/Psps_for_tests/03li.pspfhi
- pspatm: opening atomic psp file    /data/ABINIT/testf_gcc47_serial/trunk_7.9.3-private/tests/Psps_for_tests/03li.pspfhi
- Li, fhi98PP: TM-type, LDA PedewWang, l = 2 local
-  3.00000   3.00000      1023                znucl, zion, pspdat
    6    7    2    2       433   0.00000      pspcod,pspxc,lmax,lloc,mmax,r2well
    0.80000000000000    0.00000000000000    0.00000000000000   rchrg,fchrg,qchrg
  1.024700          amesh (Hamman grid)
 pspatm: epsatm=    0.69307674
         --- l  ekb(1:nproj) -->
             0   -5.775081
             1   -1.038282
 pspatm: atomic psp has been read  and splines computed

- pspini: atom type   3  psp file is /data/ABINIT/testf_gcc47_serial/trunk_7.9.3-private/tests/Psps_for_tests/08o_001023.pspfhi
- pspatm: opening atomic psp file    /data/ABINIT/testf_gcc47_serial/trunk_7.9.3-private/tests/Psps_for_tests/08o_001023.pspfhi
- O, fhi98PP: TM-type, LDA PerdewWang, l=2 local
-  8.00000   6.00000      1023                znucl, zion, pspdat
    6    7    2    2       473   0.00000      pspcod,pspxc,lmax,lloc,mmax,r2well
    1.20000000000000    0.00000000000000    0.00000000000000   rchrg,fchrg,qchrg
  1.024700          amesh (Hamman grid)
 pspatm: epsatm=    2.60350195
         --- l  ekb(1:nproj) -->
             0    4.939348
             1   -3.218107
 pspatm: atomic psp has been read  and splines computed

   3.86847710E+03                                ecore*ucvol(ha*bohr**3)
--------------------------------------------------------------------------------

P newkpt: treating     34 bands with npw=     181 for ikpt=   1 by node    0
P newkpt: treating     34 bands with npw=     172 for ikpt=   2 by node    0

_setup2: Arith. and geom. avg. npw (full set) are     174.250     174.207
  initberry: for direction 1, nkstr =   2, nstr =      4
  initberry: for direction 2, nkstr =   2, nstr =      4
  initberry: for direction 3, nkstr =   2, nstr =      4

================================================================================

     iter   Etot(hartree)      deltaE(h)  residm     vres2
 ETOT  1  -190.52718197997    -1.905E+02 1.585E-02 5.536E+02
 ETOT  2  -193.19450694067    -2.667E+00 4.156E-04 5.324E+01
 ETOT  3  -193.33884598437    -1.443E-01 3.561E-03 2.693E+01
 ETOT  4  -193.40968869416    -7.084E-02 1.240E-03 2.307E+00
 ETOT  5  -193.41541068111    -5.722E-03 2.527E-04 7.342E-01
 ETOT  6  -193.41768771069    -2.277E-03 9.428E-05 1.739E-02
 ETOT  7  -193.41773565288    -4.794E-05 1.246E-06 1.370E-03
 ETOT  8  -193.41773892461    -3.272E-06 5.859E-08 5.501E-05
 ETOT  9  -193.41773906698    -1.424E-07 2.575E-09 6.126E-06
 ETOT 10  -193.41773906781    -8.302E-10 1.282E-11 6.580E-06
 ETOT 11  -193.41773908151    -1.370E-08 1.073E-10 3.243E-07
 ETOT 12  -193.41773908224    -7.286E-10 1.147E-11 2.215E-09
 ETOT 13  -193.41773908224    -2.530E-12 3.737E-14 1.631E-09
 ETOT 14  -193.41773908224    -3.354E-12 5.350E-14 1.694E-10

 At SCF step   14, etot is converged : 
  for the second time, diff in etot=  3.354E-12 < toldfe=  1.000E-10

 Computing the polarization (Berry phase) for reciprocal vector:
  0.50000  0.00000  0.00000 (in reduced coordinates)
  0.06029  0.00000  0.01928 (in cartesian coordinates - atomic units)
 Number of strings:     4
 Number of k points in string:    2

 Summary of the results
 Electronic Berry phase     9.433668759E-01
            Ionic phase     9.998570024E-01
            Total phase     1.943223878E+00
    Remapping in [-1,1]    -5.677612166E-02

           Polarization    -6.533951314E-04 (a.u. of charge)/bohr^2
           Polarization    -3.738384660E-02 C/m^2


 Computing the polarization (Berry phase) for reciprocal vector:
  0.00000  0.50000  0.00000 (in reduced coordinates)
 -0.03015  0.05222  0.01928 (in cartesian coordinates - atomic units)
 Number of strings:     4
 Number of k points in string:    2

 Summary of the results
 Electronic Berry phase     9.433668758E-01
            Ionic phase     9.998570024E-01
            Total phase     1.943223878E+00
    Remapping in [-1,1]    -5.677612181E-02

           Polarization    -6.533951332E-04 (a.u. of charge)/bohr^2
           Polarization    -3.738384670E-02 C/m^2


 Computing the polarization (Berry phase) for reciprocal vector:
  0.00000  0.00000  0.50000 (in reduced coordinates)
 -0.03015 -0.05222  0.01928 (in cartesian coordinates - atomic units)
 Number of strings:     4
 Number of k points in string:    2

 Summary of the results
 Electronic Berry phase     9.433668759E-01
            Ionic phase     9.998570024E-01
            Total phase     1.943223878E+00
    Remapping in [-1,1]    -5.677612170E-02

           Polarization    -6.533951318E-04 (a.u. of charge)/bohr^2
           Polarization    -3.738384662E-02 C/m^2


 Polarization in cartesian coordinates (a.u.):
 (the sum of the electronic and ionic Berry phase has been folded into [-1, 1])
     Electronic berry phase:        0.771436858E-12  -0.826811988E-12   0.356406184E-01
     Ionic:                        -0.452929247E-17   0.388225069E-17   0.377748285E-01  
     Total:                         0.771433946E-12  -0.826808591E-12  -0.214501499E-02

 Polarization in cartesian coordinates (C/m^2):
 (the sum of the electronic and ionic Berry phase has been folded into [-1, 1])
     Electronic berry phase:        0.441375758E-10  -0.473058507E-10   0.203916948E+01
     Ionic:                        -0.259142388E-15   0.222122047E-15   0.216127780E+01  
     Total:                         0.441374092E-10  -0.473056563E-10  -0.122726521E+00

 Cartesian components of stress tensor (hartree/bohr^3)
  sigma(1 1)=  2.49375818E-02  sigma(3 2)=  0.00000000E+00
  sigma(2 2)=  2.49375818E-02  sigma(3 1)=  0.00000000E+00
  sigma(3 3)=  2.71876098E-02  sigma(2 1)=  0.00000000E+00

================================================================================

 ----iterations are completed or convergence reached----

 Mean square residual over all n,k,spin=   2.0710E-14; max=  5.3497E-14
   0.2500  0.2500  0.2500    1  5.34967E-14 kpt; spin; max resid(k); each band:
  4.55E-15 5.42E-15 4.46E-14 4.07E-14 4.07E-14 3.22E-14 3.22E-14 4.54E-14
  3.33E-14 3.36E-14 3.36E-14 4.35E-14 4.35E-14 5.35E-14 3.16E-14 2.65E-14
  7.61E-15 6.94E-15 6.94E-15 6.19E-15 6.19E-15 1.47E-14 1.01E-14 1.01E-14
  7.71E-15 8.03E-15 8.03E-15 7.73E-15 2.43E-14 6.62E-15 6.62E-15 2.37E-14
  5.68E-15 5.68E-15
  -0.2500  0.2500  0.2500    1  4.29577E-14 kpt; spin; max resid(k); each band:
  4.74E-15 4.18E-15 3.88E-14 3.57E-14 4.13E-14 3.15E-14 3.44E-14 3.32E-14
  4.01E-14 3.67E-14 2.66E-14 4.30E-14 4.21E-14 3.79E-14 2.98E-14 3.33E-14
  7.80E-15 8.60E-15 7.12E-15 9.95E-15 1.52E-14 1.14E-14 1.17E-14 7.86E-15
  1.41E-14 1.14E-14 9.10E-15 7.07E-15 5.91E-15 1.01E-14 9.70E-15 1.50E-14
  8.40E-15 6.86E-15
 reduced coordinates (array xred) for   10 atoms
      -0.000621677490     -0.000621677490     -0.000621677490
       0.499378322510      0.499378322510      0.499378322510
       0.283111884692      0.283111884692      0.283111884692
       0.783111884692      0.783111884692      0.783111884692
       0.718535759432      0.367498001272      0.107078681712
       0.107078681712      0.718535759432      0.367498001272
       0.367498001272      0.107078681712      0.718535759432
       0.867498001272      0.218535759432      0.607078681712
       0.607078681712      0.867498001272      0.218535759432
       0.218535759432      0.607078681712      0.867498001272
 rms dE/dt=  5.7846E-01; max dE/dt=  9.4187E-01; dE/dt below (all hartree)
    1       0.941870693569      0.941870693569      0.941870693569
    2       0.941870693569      0.941870693569      0.941870693569
    3       0.284803764593      0.284803764593      0.284803764593
    4       0.284803764593      0.284803764593      0.284803764593
    5      -0.217085819575     -0.776872599203     -0.232834366367
    6      -0.232834366367     -0.217085819575     -0.776872599203
    7      -0.776872599203     -0.232834366367     -0.217085819575
    8      -0.776872599203     -0.217085819575     -0.232834366367
    9      -0.232834366367     -0.776872599203     -0.217085819575
   10      -0.217085819575     -0.232834366367     -0.776872599203

 cartesian coordinates (angstrom) at end:
    1      0.00000000000000     0.00000000000000    -0.00853038785745
    2      0.00000000000000     0.00000000000000     6.85225192666191
    3      0.00000000000000     0.00000000000000     3.88473802305216
    4      0.00000000000000     0.00000000000000    10.74552033757152
    5      1.40790037085701     0.65979245129279     5.45712316277572
    6     -1.27534720947327     0.88938126151331     5.45712316277572
    7     -0.13255316138375    -1.54917371280610     5.45712316277572
    8      1.33020831885816    -0.98440349032753     7.74405060094884
    9      0.18741427076863     1.64419594162032     7.74405060094884
   10     -1.51762258962679    -0.65979245129279     7.74405060094884

 cartesian forces (hartree/bohr) at end:
    1     -0.00000000000000     0.00000000000000    -0.10897351165238
    2     -0.00000000000000     0.00000000000000    -0.10897351165238
    3     -0.00000000000000     0.00000000000000    -0.03295342515376
    4      0.00000000000000    -0.00000000000000    -0.03295342515376
    5     -0.03470150825376     0.05681544518604     0.04730897893538
    6     -0.03185286473155    -0.05846011029041     0.04730897893538
    7      0.06655437298531     0.00164466510437     0.04730897893538
    8      0.06655437298531    -0.00164466510437     0.04730897893538
    9     -0.03185286473155     0.05846011029041     0.04730897893538
   10     -0.03470150825376    -0.05681544518604     0.04730897893538
 frms,max,avg= 4.6884355E-02 1.0897351E-01   0.000E+00  0.000E+00  2.738E-06 h/b

 cartesian forces (eV/Angstrom) at end:
    1     -0.00000000000000     0.00000000000000    -5.60364280246754
    2     -0.00000000000000     0.00000000000000    -5.60364280246754
    3     -0.00000000000000     0.00000000000000    -1.69453311065707
    4      0.00000000000000    -0.00000000000000    -1.69453311065707
    5     -1.78442315029016     2.92156741265087     2.43272530437487
    6     -1.63794002307935    -3.00613948557777     2.43272530437487
    7      3.42236317336951     0.08457207292690     2.43272530437487
    8      3.42236317336950    -0.08457207292690     2.43272530437487
    9     -1.63794002307935     3.00613948557777     2.43272530437487
   10     -1.78442315029016    -2.92156741265087     2.43272530437487
 frms,max,avg= 2.4108903E+00 5.6036428E+00   0.000E+00  0.000E+00  1.408E-04 e/A
 length scales= 10.260157145000 10.260157145000 10.260157145000 bohr
              =  5.429441317686  5.429441317686  5.429441317686 angstroms
 prteigrs : about to open file tsv4_55o_DS1_EIG
 Fermi (or HOMO) energy (hartree) =   0.46511   Average Vxc (hartree)=  -0.47051
 Eigenvalues (hartree) for nkpt=   2  k points:
 kpt#   1, nband= 34, wtk=  0.25000, kpt=  0.2500  0.2500  0.2500 (reduced coord)
  -1.90201  -1.89748  -0.94301  -0.91649  -0.91649  -0.87942  -0.87942  -0.85567
  -0.77852  -0.76773  -0.76773  -0.72608  -0.72608  -0.72335  -0.46610  -0.42475
   0.19067   0.19920   0.19920   0.20992   0.20992   0.23783   0.27766   0.27766
   0.27878   0.33968   0.33968   0.35423   0.39465   0.40228   0.40228   0.44502
   0.44958   0.44958
 kpt#   2, nband= 34, wtk=  0.75000, kpt= -0.2500  0.2500  0.2500 (reduced coord)
  -1.89547  -1.89306  -0.92317  -0.89843  -0.89511  -0.87180  -0.84266  -0.83473
  -0.78258  -0.74238  -0.72065  -0.69677  -0.69387  -0.66125  -0.44366  -0.40787
   0.18981   0.19957   0.21182   0.21724   0.24479   0.26198   0.26608   0.27900
   0.30931   0.34449   0.35942   0.35972   0.38642   0.40717   0.41967   0.42123
   0.45794   0.46511
 Total charge density [el/Bohr^3]
,     Maximum=    3.6684E-01  at reduced coord.    0.9375    0.0625    0.9375
,Next maximum=    3.6684E-01  at reduced coord.    0.4375    0.4375    0.5625
,     Minimum=    7.4493E-03  at reduced coord.    0.2500    0.1875    0.0625
,Next minimum=    7.4493E-03  at reduced coord.    0.0625    0.2500    0.1875
,  Integrated=    6.8000E+01

--------------------------------------------------------------------------------
 Components of total free energy (in Hartree) :

    Kinetic energy  =  6.63427523871258E+01
    Hartree energy  =  2.37739159460273E+01
    XC energy       = -3.09852483402127E+01
    Ewald energy    = -1.67783490845544E+02
    PspCore energy  =  5.63640426658303E+00
    Loc. psp. energy= -1.07858218216608E+02
    NL   psp  energy=  1.74561457203861E+01
    >>>>>>>>> Etotal= -1.93417739082243E+02

 Other information on the energy :
    Total energy(eV)= -5.26316434350023E+03 ; Band energy (Ha)=  -1.7060264250E+01
--------------------------------------------------------------------------------

 Cartesian components of stress tensor (hartree/bohr^3)
  sigma(1 1)=  2.49375818E-02  sigma(3 2)=  0.00000000E+00
  sigma(2 2)=  2.49375818E-02  sigma(3 1)=  0.00000000E+00
  sigma(3 3)=  2.71876098E-02  sigma(2 1)=  0.00000000E+00

-Cartesian components of stress tensor (GPa)         [Pressure= -7.5575E+02 GPa]
- sigma(1 1)=  7.33688863E+02  sigma(3 2)=  0.00000000E+00
- sigma(2 2)=  7.33688863E+02  sigma(3 1)=  0.00000000E+00
- sigma(3 3)=  7.99886961E+02  sigma(2 1)=  0.00000000E+00

================================================================================
== DATASET  2 ==================================================================
-   nproc =    1

 mkfilename : getwfk/=0, take file _WFK from output of DATASET   1.

 Exchange-correlation functional for the present dataset will be:
  LDA: Perdew-Wang 92 LSD fit to Ceperley-Alder data - ixc=7
 Citation for XC functional:
  J.P.Perdew and Y.Wang, PRB 45, 13244 (1992)

 Real(R)+Recip(G) space primitive vectors, cartesian coordinates (Bohr,Bohr^-1):
 R(1)=  5.5284372  0.0000000  8.6433331  G(1)=  0.1205886  0.0000000  0.0385654
 R(2)= -2.7642186  4.7877671  8.6433331  G(2)= -0.0602943  0.1044328  0.0385654
 R(3)= -2.7642186 -4.7877671  8.6433331  G(3)= -0.0602943 -0.1044328  0.0385654
 Unit cell volume ucvol=  6.8633776E+02 bohr^3
 Angles (23,13,12)=  5.56324109E+01  5.56324109E+01  5.56324109E+01 degrees

 getcut: wavevector=  0.0000  0.0000  0.0000  ngfft=  16  16  16
         ecut(hartree)=      3.000   => boxcut(ratio)=   2.00793
--------------------------------------------------------------------------------

-inwffil : will read wavefunctions from disk file tsv4_55o_DS1_WFK
- newkpt: read input wf with ikpt,npw=   1     181, make ikpt,npw=   1     181
- newkpt: read input wf with ikpt,npw=   2     172, make ikpt,npw=   2     172
- newkpt: read input wf with ikpt,npw=   3     172, make ikpt,npw=   3     172

_setup2: Arith. and geom. avg. npw (full set) are     174.250     174.207
  initberry: for direction 1, nkstr =   2, nstr =      4
  initberry: for direction 2, nkstr =   2, nstr =      4
  initberry: for direction 3, nkstr =   2, nstr =      4

 initberry: COMMENT - 
  As a rough estimate,
  to be below the critical field, the bandgap of your system
  should be larger than    0.03 eV.


================================================================================

     iter   Etot(hartree)      deltaE(h)  residm     vres2
 ETOT  1  -193.40267322845    -1.934E+02 4.341E-04 4.373E+00
 ETOT  2  -193.41645048368    -1.378E-02 1.267E-07 3.016E-01
 ETOT  3  -193.41747332670    -1.023E-03 2.193E-05 6.842E-02
 ETOT  4  -193.41771833340    -2.450E-04 5.308E-06 6.426E-03
 ETOT  5  -193.41773835272    -2.002E-05 1.155E-06 8.605E-04
 ETOT  6  -193.41774148131    -3.129E-06 8.416E-08 1.965E-04
 ETOT  7  -193.41774188408    -4.028E-07 5.392E-08 1.505E-05
 ETOT  8  -193.41774191644    -3.236E-08 5.305E-08 2.591E-07
 ETOT  9  -193.41774191686    -4.212E-10 5.303E-08 7.400E-08
 ETOT 10  -193.41774191702    -1.527E-10 5.304E-08 6.593E-09
 ETOT 11  -193.41774191703    -1.279E-11 5.304E-08 1.114E-10
 ETOT 12  -193.41774191703     3.411E-13 5.304E-08 8.246E-11

 At SCF step   12, etot is converged : 
  for the second time, diff in etot=  3.411E-13 < toldfe=  1.000E-10

 Computing the polarization (Berry phase) for reciprocal vector:
  0.50000  0.00000  0.00000 (in reduced coordinates)
  0.06029  0.00000  0.01928 (in cartesian coordinates - atomic units)
 Number of strings:     4
 Number of k points in string:    2

 Summary of the results
 Electronic Berry phase     9.495450099E-01
            Ionic phase     9.998570024E-01
            Total phase     1.949402012E+00
    Remapping in [-1,1]    -5.059798766E-02

           Polarization    -5.822954762E-04 (a.u. of charge)/bohr^2
           Polarization    -3.331589678E-02 C/m^2


 Computing the polarization (Berry phase) for reciprocal vector:
  0.00000  0.50000  0.00000 (in reduced coordinates)
 -0.03015  0.05222  0.01928 (in cartesian coordinates - atomic units)
 Number of strings:     4
 Number of k points in string:    2

 Summary of the results
 Electronic Berry phase     9.402778451E-01
            Ionic phase     9.998570024E-01
            Total phase     1.940134847E+00
    Remapping in [-1,1]    -5.986515251E-02

           Polarization    -6.889445431E-04 (a.u. of charge)/bohr^2
           Polarization    -3.941779771E-02 C/m^2


 Computing the polarization (Berry phase) for reciprocal vector:
  0.00000  0.00000  0.50000 (in reduced coordinates)
 -0.03015 -0.05222  0.01928 (in cartesian coordinates - atomic units)
 Number of strings:     4
 Number of k points in string:    2

 Summary of the results
 Electronic Berry phase     9.402778450E-01
            Ionic phase     9.998570024E-01
            Total phase     1.940134847E+00
    Remapping in [-1,1]    -5.986515263E-02

           Polarization    -6.889445444E-04 (a.u. of charge)/bohr^2
           Polarization    -3.941779778E-02 C/m^2


 Polarization in cartesian coordinates (a.u.):
 (the sum of the electronic and ionic Berry phase has been folded into [-1, 1])
     Electronic berry phase:        0.746468310E-04   0.810168779E-12   0.356406194E-01
     Ionic:                        -0.452929247E-17   0.258816713E-17   0.377748285E-01  
     Total:                         0.746468310E-04   0.810171367E-12  -0.214501408E-02

 Polarization in cartesian coordinates (C/m^2):
 (the sum of the electronic and ionic Berry phase has been folded into [-1, 1])
     Electronic berry phase:        0.427090063E-02   0.463536134E-10   0.203916954E+01
     Ionic:                        -0.259142388E-15   0.148081365E-15   0.216127780E+01  
     Total:                         0.427090063E-02   0.463537615E-10  -0.122726469E+00

 Stress tensor under a constant electric field:

 Cartesian components of Maxwell stress tensor (hartree/bohr^3)
 Maxstr(1 1)=  3.16628699E-11 Maxstr(3 2)=  0.00000000E+00
 Maxstr(2 2)= -3.16628699E-11 Maxstr(3 1)=  0.00000000E+00
 Maxstr(3 3)= -3.16628699E-11 Maxstr(2 1)=  0.00000000E+00


 Cartesian components of stress tensor (hartree/bohr^3)
  sigma(1 1)=  2.49370947E-02  sigma(3 2)=  0.00000000E+00
  sigma(2 2)=  2.49380628E-02  sigma(3 1)=  1.47027288E-08
  sigma(3 3)=  2.71876072E-02  sigma(2 1)=  0.00000000E+00

================================================================================

 ----iterations are completed or convergence reached----

 Mean square residual over all n,k,spin=   1.4953E-08; max=  5.3038E-08
   0.2500  0.2500  0.2500    1  5.22618E-08 kpt; spin; max resid(k); each band:
  1.26E-10 1.40E-10 2.37E-09 3.25E-09 1.81E-09 1.38E-09 1.02E-09 1.48E-09
  3.21E-09 6.70E-09 3.79E-09 6.30E-09 5.24E-09 3.77E-09 3.52E-09 4.34E-09
  6.23E-09 5.80E-09 4.88E-09 1.23E-08 8.86E-09 7.69E-09 1.76E-08 1.63E-08
  2.29E-08 4.40E-08 2.30E-08 3.67E-08 3.75E-08 2.71E-08 5.23E-08 3.99E-08
  4.85E-08 4.81E-08
  -0.2500  0.2500  0.2500    1  4.83150E-08 kpt; spin; max resid(k); each band:
  8.40E-11 6.66E-11 2.01E-09 2.19E-09 2.86E-09 8.46E-10 1.98E-09 1.91E-09
  5.64E-09 4.90E-09 2.80E-09 5.68E-09 5.11E-09 3.09E-09 3.71E-09 4.21E-09
  5.60E-09 6.53E-09 8.86E-09 5.49E-09 1.75E-08 1.25E-08 1.25E-08 1.93E-08
  4.48E-08 3.99E-08 3.46E-08 4.04E-08 2.21E-08 3.83E-08 3.75E-08 3.31E-08
  4.83E-08 2.54E-08
   0.2500 -0.2500  0.2500    1  5.30382E-08 kpt; spin; max resid(k); each band:
  1.29E-10 6.19E-11 2.15E-09 1.49E-09 1.99E-09 1.30E-09 1.20E-09 1.15E-09
  3.90E-09 3.48E-09 6.24E-09 4.01E-09 5.63E-09 5.13E-09 4.08E-09 3.42E-09
  5.65E-09 1.08E-08 7.10E-09 4.44E-09 1.14E-08 1.69E-08 1.61E-08 1.92E-08
  2.35E-08 2.70E-08 3.50E-08 3.25E-08 4.39E-08 2.95E-08 5.30E-08 4.56E-08
  4.41E-08 4.64E-08
 reduced coordinates (array xred) for   10 atoms
      -0.000621677490     -0.000621677490     -0.000621677490
       0.499378322510      0.499378322510      0.499378322510
       0.283111884692      0.283111884692      0.283111884692
       0.783111884692      0.783111884692      0.783111884692
       0.718535759432      0.367498001272      0.107078681712
       0.107078681712      0.718535759432      0.367498001272
       0.367498001272      0.107078681712      0.718535759432
       0.867498001272      0.218535759432      0.607078681712
       0.607078681712      0.867498001272      0.218535759432
       0.218535759432      0.607078681712      0.867498001272
 rms dE/dt=  5.7847E-01; max dE/dt=  9.4551E-01; dE/dt below (all hartree)
    1       0.936768035489      0.945508380180      0.943338825784
    2       0.936768035489      0.943338825784      0.945508380180
    3       0.284125463625      0.285077240263      0.285211334445
    4       0.284125463625      0.285211334445      0.285077240263
    5      -0.216586394516     -0.781119115467     -0.236577689585
    6      -0.230689268990     -0.217532916049     -0.775762099000
    7      -0.773736213546     -0.231240946327     -0.217139600058
    8      -0.773736213546     -0.217139600058     -0.231240946327
    9      -0.230689268990     -0.775762099000     -0.217532916049
   10      -0.216586394516     -0.236577689585     -0.781119115467

 cartesian coordinates (angstrom) at end:
    1      0.00000000000000     0.00000000000000    -0.00853038785745
    2      0.00000000000000     0.00000000000000     6.85225192666191
    3      0.00000000000000     0.00000000000000     3.88473802305216
    4      0.00000000000000     0.00000000000000    10.74552033757152
    5      1.40790037085701     0.65979245129279     5.45712316277572
    6     -1.27534720947327     0.88938126151331     5.45712316277572
    7     -0.13255316138375    -1.54917371280610     5.45712316277572
    8      1.33020831885816    -0.98440349032753     7.74405060094884
    9      0.18741427076863     1.64419594162032     7.74405060094884
   10     -1.51762258962679    -0.65979245129279     7.74405060094884

 cartesian forces (hartree/bohr) at end:
    1      0.00092317234480    -0.00022657267705    -0.10897363341512
    2      0.00092317234480     0.00022657267705    -0.10897363341512
    3      0.00012285650694     0.00001400383316    -0.03295353086585
    4      0.00012285650694    -0.00001400383316    -0.03295353086585
    5     -0.03524347718656     0.05686799505320     0.04759784966721
    6     -0.03207154166273    -0.05829744608183     0.04720066818541
    7      0.06626898999755     0.00147264331376     0.04712864642834
    8      0.06626898999755    -0.00147264331376     0.04712864642834
    9     -0.03207154166273     0.05829744608183     0.04720066818541
   10     -0.03524347718656    -0.05686799505320     0.04759784966721
 frms,max,avg= 4.6885442E-02 1.0897363E-01   2.051E-09  0.000E+00  2.738E-06 h/b

 cartesian forces (eV/Angstrom) at end:
    1      0.04747142665184    -0.01165083451710    -5.60364906375847
    2      0.04747142665184     0.01165083451710    -5.60364906375847
    3      0.00631753506336     0.00072010599372    -1.69453854659060
    4      0.00631753506336    -0.00072010599372    -1.69453854659060
    5     -1.81229231100100     2.92426963524052     2.44757963340143
    6     -1.64918484205311    -2.99777495636513     2.42715574214561
    7      3.40768819133892     0.07572635753958     2.42345223480203
    8      3.40768819133892    -0.07572635753958     2.42345223480203
    9     -1.64918484205311     2.99777495636513     2.42715574214561
   10     -1.81229231100100    -2.92426963524052     2.44757963340143
 frms,max,avg= 2.4109462E+00 5.6036491E+00   1.055E-07  0.000E+00  1.408E-04 e/A
 length scales= 10.260157145000 10.260157145000 10.260157145000 bohr
              =  5.429441317686  5.429441317686  5.429441317686 angstroms
 prteigrs : about to open file tsv4_55o_DS2_EIG
 Fermi (or HOMO) energy (hartree) =   0.46511   Average Vxc (hartree)=  -0.47051
 Eigenvalues (hartree) for nkpt=   3  k points:
 kpt#   1, nband= 34, wtk=  0.25000, kpt=  0.2500  0.2500  0.2500 (reduced coord)
  -1.90201  -1.89748  -0.94301  -0.91649  -0.91649  -0.87942  -0.87942  -0.85567
  -0.77852  -0.76773  -0.76773  -0.72609  -0.72608  -0.72335  -0.46610  -0.42475
   0.19067   0.19920   0.19921   0.20992   0.20992   0.23783   0.27766   0.27766
   0.27878   0.33968   0.33969   0.35423   0.39465   0.40228   0.40229   0.44502
   0.44957   0.44959
 kpt#   2, nband= 34, wtk=  0.25000, kpt= -0.2500  0.2500  0.2500 (reduced coord)
  -1.89547  -1.89306  -0.92317  -0.89843  -0.89512  -0.87178  -0.84265  -0.83474
  -0.78256  -0.74238  -0.72065  -0.69678  -0.69387  -0.66124  -0.44366  -0.40787
   0.18981   0.19958   0.21182   0.21723   0.24478   0.26197   0.26609   0.27900
   0.30932   0.34450   0.35941   0.35972   0.38641   0.40718   0.41966   0.42124
   0.45794   0.46511
 kpt#   3, nband= 34, wtk=  0.50000, kpt=  0.2500 -0.2500  0.2500 (reduced coord)
  -1.89547  -1.89306  -0.92318  -0.89844  -0.89510  -0.87180  -0.84266  -0.83472
  -0.78258  -0.74238  -0.72065  -0.69676  -0.69387  -0.66125  -0.44366  -0.40787
   0.18981   0.19957   0.21182   0.21724   0.24479   0.26198   0.26608   0.27900
   0.30931   0.34449   0.35942   0.35972   0.38642   0.40717   0.41967   0.42123
   0.45793   0.46511
 Total charge density [el/Bohr^3]
,     Maximum=    3.6685E-01  at reduced coord.    0.4375    0.5625    0.4375
,Next maximum=    3.6685E-01  at reduced coord.    0.9375    0.9375    0.0625
,     Minimum=    7.4467E-03  at reduced coord.    0.0625    0.2500    0.1875
,Next minimum=    7.4467E-03  at reduced coord.    0.5625    0.6875    0.7500
,  Integrated=    6.8000E+01

--------------------------------------------------------------------------------
 Components of total free energy (in Hartree) :

    Kinetic energy  =  6.63427497131225E+01
    Hartree energy  =  2.37739166838894E+01
    XC energy       = -3.09852472819168E+01
    Ewald energy    = -1.67783490845544E+02
    PspCore energy  =  5.63640426658303E+00
    Loc. psp. energy= -1.07858217179345E+02
    NL   psp  energy=  1.74561481225617E+01
    Electric energy = -5.39637903418180E-06
    Kohn-Sham energy= -1.93417736520649E+02
    >>>>>>>>> Etotal= -1.93417741917029E+02

 Other information on the energy :
    Total energy(eV)= -5.26316442063868E+03 ; Band energy (Ha)=  -1.7060264772E+01
--------------------------------------------------------------------------------

Constant unreduced E calculation  - final values:
 (a. u.)
       E:   1.000000000E-04   0.000000000E+00   0.000000000E+00  
       P:   7.464683103E-05   8.101713671E-13  -2.145014080E-03  

    ebar:   5.528437191E-04  -2.764218595E-04  -2.764218595E-04  
    pbar:  -2.277955118E-01  -2.355743525E-01  -2.355743526E-01  

       e:   6.586192089E-04  -3.293096045E-04  -3.293096045E-04  
       p:  -5.059798766E-02  -5.986515251E-02  -5.986515263E-02  

 (S.I.), that is V/m for E, and C/m^2 for P
-      E:   5.142206319E+07   0.000000000E+00   0.000000000E+00  
       P:   4.270900632E-03   4.635376153E-11  -1.227264690E-01  


 Please check: COMMENT - 
  As a rough estimate,
  to be below the critical field, the bandgap of your system
  should be larger than    0.03 eV.

--------------------------------------------------------------------------------

 Cartesian components of stress tensor (hartree/bohr^3)
  sigma(1 1)=  2.49370947E-02  sigma(3 2)=  0.00000000E+00
  sigma(2 2)=  2.49380628E-02  sigma(3 1)=  1.47027288E-08
  sigma(3 3)=  2.71876072E-02  sigma(2 1)=  0.00000000E+00

-Cartesian components of stress tensor (GPa)         [Pressure= -7.5575E+02 GPa]
- sigma(1 1)=  7.33674533E+02  sigma(3 2)=  0.00000000E+00
- sigma(2 2)=  7.33703016E+02  sigma(3 1)=  4.32569143E-04
- sigma(3 3)=  7.99886884E+02  sigma(2 1)=  0.00000000E+00

== END DATASET(S) ==============================================================
================================================================================
  
 -outvars: echo values of variables after computation  --------
            acell      1.0260157145E+01  1.0260157145E+01  1.0260157145E+01 Bohr
              amu      9.29063800E+01  6.94100000E+00  1.59994000E+01
         berryopt1         -1
         berryopt2          4
           diemac      6.00000000E+00
             ecut      3.00000000E+00 Hartree
           efield1     0.00000000E+00  0.00000000E+00  0.00000000E+00
           efield2     1.00000000E-04  0.00000000E+00  0.00000000E+00
           etotal1    -1.9341773908E+02
           etotal2    -1.9341774192E+02
            fcart1    -6.9388939039E-19  1.3877787808E-18 -1.0897351165E-01
                      -6.9388939039E-19  1.3877787808E-18 -1.0897351165E-01
                      -6.9388939039E-19  1.3877787808E-18 -3.2953425154E-02
                       2.7755575616E-18 -5.5511151231E-18 -3.2953425154E-02
                      -3.4701508254E-02  5.6815445186E-02  4.7308978935E-02
                      -3.1852864732E-02 -5.8460110290E-02  4.7308978935E-02
                       6.6554372985E-02  1.6446651044E-03  4.7308978935E-02
                       6.6554372985E-02 -1.6446651044E-03  4.7308978935E-02
                      -3.1852864732E-02  5.8460110290E-02  4.7308978935E-02
                      -3.4701508254E-02 -5.6815445186E-02  4.7308978935E-02
            fcart2     9.2317234480E-04 -2.2657267705E-04 -1.0897363342E-01
                       9.2317234480E-04  2.2657267705E-04 -1.0897363342E-01
                       1.2285650694E-04  1.4003833161E-05 -3.2953530866E-02
                       1.2285650694E-04 -1.4003833161E-05 -3.2953530866E-02
                      -3.5243477187E-02  5.6867995053E-02  4.7597849667E-02
                      -3.2071541663E-02 -5.8297446082E-02  4.7200668185E-02
                       6.6268989998E-02  1.4726433138E-03  4.7128646428E-02
                       6.6268989998E-02 -1.4726433138E-03  4.7128646428E-02
                      -3.2071541663E-02  5.8297446082E-02  4.7200668185E-02
                      -3.5243477187E-02 -5.6867995053E-02  4.7597849667E-02
-          fftalg         112
           getwfk1          0
           getwfk2          1
             iscf           5
              ixc           7
           jdtset        1    2
              kpt1     2.50000000E-01  2.50000000E-01  2.50000000E-01
                      -2.50000000E-01  2.50000000E-01  2.50000000E-01
              kpt2     2.50000000E-01  2.50000000E-01  2.50000000E-01
                      -2.50000000E-01  2.50000000E-01  2.50000000E-01
                       2.50000000E-01 -2.50000000E-01  2.50000000E-01
         kptrlatt        2    0    0      0    2    0      0    0    2
          kptrlen      1.91510682E+01
P           mkmem1          2
P           mkmem2          3
            natom          10
            nband1         34
            nband2         34
           ndtset           2
            ngfft          16      16      16
             nkpt1          2
             nkpt2          3
            nstep         200
             nsym1          6
             nsym2          2
           ntypat           3
              occ1     2.000000  2.000000  2.000000  2.000000  2.000000  2.000000
                       2.000000  2.000000  2.000000  2.000000  2.000000  2.000000
                       2.000000  2.000000  2.000000  2.000000  2.000000  2.000000
                       2.000000  2.000000  2.000000  2.000000  2.000000  2.000000
                       2.000000  2.000000  2.000000  2.000000  2.000000  2.000000
                       2.000000  2.000000  2.000000  2.000000
              occ2     2.000000  2.000000  2.000000  2.000000  2.000000  2.000000
                       2.000000  2.000000  2.000000  2.000000  2.000000  2.000000
                       2.000000  2.000000  2.000000  2.000000  2.000000  2.000000
                       2.000000  2.000000  2.000000  2.000000  2.000000  2.000000
                       2.000000  2.000000  2.000000  2.000000  2.000000  2.000000
                       2.000000  2.000000  2.000000  2.000000
            rfdir1          1       1       1
            rfdir2          0       0       0
            rprim      5.3882578138E-01  0.0000000000E+00  8.4241722283E-01
                      -2.6941289069E-01  4.6663681489E-01  8.4241722283E-01
                      -2.6941289069E-01 -4.6663681489E-01  8.4241722283E-01
           shiftk      5.00000000E-01  5.00000000E-01  5.00000000E-01
          spgroup1        161
          spgroup2          9
           strten1     2.4937581772E-02  2.4937581772E-02  2.7187609774E-02
                       0.0000000000E+00  0.0000000000E+00  0.0000000000E+00
           strten2     2.4937094713E-02  2.4938062834E-02  2.7187607173E-02
                       0.0000000000E+00  1.4702728819E-08  0.0000000000E+00
           symafm1       1    1    1    1    1    1
           symafm2       1    1
           symrel1     1  0  0   0  1  0   0  0  1       0  1  0   1  0  0   0  0  1
                       0  0  1   1  0  0   0  1  0       1  0  0   0  0  1   0  1  0
                       0  1  0   0  0  1   1  0  0       0  0  1   0  1  0   1  0  0
           symrel2     1  0  0   0  1  0   0  0  1       1  0  0   0  0  1   0  1  0
            tnons1     0.0000000  0.0000000  0.0000000     0.5000000  0.5000000  0.5000000
                       0.0000000  0.0000000  0.0000000     0.5000000  0.5000000  0.5000000
                       0.0000000  0.0000000  0.0000000     0.5000000  0.5000000  0.5000000
            tnons2     0.0000000  0.0000000  0.0000000     0.5000000  0.5000000  0.5000000
           toldfe      1.00000000E-10 Hartree
            typat      1  1  2  2  3  3  3  3  3  3
              wtk1       0.25000    0.75000
              wtk2       0.25000    0.25000    0.50000
           xangst      0.0000000000E+00  0.0000000000E+00 -8.5303878575E-03
                       0.0000000000E+00  0.0000000000E+00  6.8522519267E+00
                       0.0000000000E+00  0.0000000000E+00  3.8847380231E+00
                       0.0000000000E+00  0.0000000000E+00  1.0745520338E+01
                       1.4079003709E+00  6.5979245129E-01  5.4571231628E+00
                      -1.2753472095E+00  8.8938126151E-01  5.4571231628E+00
                      -1.3255316138E-01 -1.5491737128E+00  5.4571231628E+00
                       1.3302083189E+00 -9.8440349033E-01  7.7440506009E+00
                       1.8741427077E-01  1.6441959416E+00  7.7440506009E+00
                      -1.5176225896E+00 -6.5979245129E-01  7.7440506009E+00
            xcart      0.0000000000E+00  0.0000000000E+00 -1.6120096858E-02
                       0.0000000000E+00  0.0000000000E+00  1.2948879535E+01
                       0.0000000000E+00  0.0000000000E+00  7.3410909616E+00
                       0.0000000000E+00  0.0000000000E+00  2.0306090593E+01
                       2.6605461233E+00  1.2468270375E+00  1.0312468251E+01
                      -2.4100569502E+00  1.6806870120E+00  1.0312468251E+01
                      -2.5048917306E-01 -2.9275140495E+00  1.0312468251E+01
                       2.5137294223E+00 -1.8602530010E+00  1.4634134795E+01
                       3.5416164515E-01  3.1070800385E+00  1.4634134795E+01
                      -2.8678910675E+00 -1.2468270375E+00  1.4634134795E+01
             xred     -6.2167749000E-04 -6.2167749000E-04 -6.2167749000E-04
                       4.9937832251E-01  4.9937832251E-01  4.9937832251E-01
                       2.8311188469E-01  2.8311188469E-01  2.8311188469E-01
                       7.8311188469E-01  7.8311188469E-01  7.8311188469E-01
                       7.1853575943E-01  3.6749800127E-01  1.0707868171E-01
                       1.0707868171E-01  7.1853575943E-01  3.6749800127E-01
                       3.6749800127E-01  1.0707868171E-01  7.1853575943E-01
                       8.6749800127E-01  2.1853575943E-01  6.0707868171E-01
                       6.0707868171E-01  8.6749800127E-01  2.1853575943E-01
                       2.1853575943E-01  6.0707868171E-01  8.6749800127E-01
            znucl       41.00000    3.00000    8.00000

================================================================================

- Total cpu        time (s,m,h):         21.4        0.36      0.006
- Total wall clock time (s,m,h):         21.4        0.36      0.006
-
- For major independent code sections, cpu and wall times (sec),
-  as well as % of the time and number of calls for node 0-
-<BEGIN_TIMER mpi_nprocs = 1, omp_nthreads = 1, mpi_rank = 0>
- cpu_time =           21.4, wall_time =           21.4
-
- routine                        cpu     %       wall     %      number of calls  Gflops 
-                                                                  (-1=no count)
- fourwf%(pot)                   0.876   4.1      0.893   4.2          11933      -1.00    
- nonlop(apply)                  0.581   2.7      0.592   2.8          11933      -1.00    
- pspini                         0.550   2.6      0.550   2.6              2      -1.00    
- projbd                         0.539   2.5      0.506   2.4          18834      -1.00    
- vtowfk(ssdiag)                 0.262   1.2      0.269   1.3             -1      -1.00    
- invars2                        0.174   0.8      0.174   0.8              2      -1.00    
- getghc-other                   0.118   0.6      0.086   0.4             -1      -1.00    
- timing timab                   0.113   0.5      0.113   0.5             10      -1.00    
- others (97)                    0.273   1.3      0.269   1.3             -1      -1.00    
-<END_TIMER>
-
- subtotal                       3.485  16.3      3.452  16.2

- For major independent code sections, cpu and wall times (sec),
- as well as % of the total time and number of calls 

-<BEGIN_TIMER mpi_nprocs = 1, omp_nthreads = 1, mpi_rank = world>
- cpu_time =          21.4, wall_time =          21.4
-
- routine                         cpu     %       wall     %      number of calls Gflops 
-                                                                  (-1=no count)
- fourwf%(pot)                   0.876   4.1      0.893   4.2          11933      -1.00    
- nonlop(apply)                  0.581   2.7      0.592   2.8          11933      -1.00    
- pspini                         0.550   2.6      0.550   2.6              2      -1.00    
- projbd                         0.539   2.5      0.506   2.4          18834      -1.00    
- vtowfk(ssdiag)                 0.262   1.2      0.269   1.3             -1      -1.00    
- invars2                        0.174   0.8      0.174   0.8              2      -1.00    
- getghc-other                   0.118   0.6      0.086   0.4             -1      -1.00    
- timing timab                   0.113   0.5      0.113   0.5             10      -1.00    
- others (97)                    0.273   1.3      0.269   1.3             -1      -1.00    
-<END_TIMER>

- subtotal                       3.485  16.3      3.452  16.2

================================================================================

 Suggested references for the acknowledgment of ABINIT usage.

 The users of ABINIT have little formal obligations with respect to the ABINIT group
 (those specified in the GNU General Public License, http://www.gnu.org/copyleft/gpl.txt).
 However, it is common practice in the scientific literature,
 to acknowledge the efforts of people that have made the research possible.
 In this spirit, please find below suggested citations of work written by ABINIT developers,
 corresponding to implementations inside of ABINIT that you have used in the present run.
 Note also that it will be of great value to readers of publications presenting these results,
 to read papers enabling them to understand the theoretical formalism and details
 of the ABINIT implementation.
 For information on why they are suggested, see also http://www.abinit.org/about/?text=acknowledgments.

 [1] Ab initio pseudopotentials for electronic structure calculations of poly-atomic systems, 
 using density-functional theory.
 M. Fuchs, M. Scheffler, Comput. Phys. Commun. 119, 67 (1999).
 Comment : Some pseudopotential generated using the FHI code were used.

 [2] ABINIT : First-principles approach of materials and nanosystem properties.
 X. Gonze, B. Amadon, P.-M. Anglade, J.-M. Beuken, F. Bottin, P. Boulanger, F. Bruneval,
 D. Caliste, R. Caracas, M. Cote, T. Deutsch, L. Genovese, Ph. Ghosez, M. Giantomassi
 S. Goedecker, D.R. Hamann, P. Hermet, F. Jollet, G. Jomard, S. Leroux, M. Mancini, S. Mazevet,
 M.J.T. Oliveira, G. Onida, Y. Pouillon, T. Rangel, G.-M. Rignanese, D. Sangalli, R. Shaltaf,
 M. Torrent, M.J. Verstraete, G. Zerah, J.W. Zwanziger
 Computer Phys. Comm. 180, 2582-2615 (2009).
 Comment : the third generic paper describing the ABINIT project.
 Note that a version of this paper, that is not formatted for Computer Phys. Comm. 
 is available at http://www.abinit.org/about/ABINIT_CPC_v10.pdf .
 The licence allows the authors to put it on the Web.

 [3] A brief introduction to the ABINIT software package.
 X. Gonze, G.-M. Rignanese, M. Verstraete, J.-M. Beuken, Y. Pouillon, R. Caracas, F. Jollet,
 M. Torrent, G. Zerah, M. Mikami, Ph. Ghosez, M. Veithen, J.-Y. Raty, V. Olevano, F. Bruneval,
 L. Reining, R. Godby, G. Onida, D.R. Hamann, and D.C. Allan.
 Z. Kristallogr. 220, 558-562 (2005).
 Comment : the second generic paper describing the ABINIT project. Note that this paper
 should be cited especially if you are using the GW part of ABINIT, as several authors
 of this part are not in the list of authors of the first or third paper.
 The .pdf of the latter paper is available at http://www.abinit.org/about/zfk_0505-06_558-562.pdf.
 Note that it should not redistributed (Copyright by Oldenburg Wissenshaftverlag,
 the licence allows the authors to put it on the Web).


 And optionally :

 [4] First-principles computation of material properties : the ABINIT software project. 
 X. Gonze, J.-M. Beuken, R. Caracas, F. Detraux, M. Fuchs, G.-M. Rignanese, L. Sindic,
 M. Verstraete, G. Zerah, F. Jollet, M. Torrent, A. Roy, M. Mikami, Ph. Ghosez, J.-Y. Raty, D.C. Allan.
 Computational Materials Science 25, 478-492 (2002). http://dx.doi.org/10.1016/S0927-0256(02)00325-7
 Comment : the original paper describing the ABINIT project.

 [5] Fast radix 2, 3, 4 and 5 kernels for Fast Fourier Transformations
 on computers with overlapping multiply-add instructions.
 S. Goedecker, SIAM J. on Scientific Computing 18, 1605 (1997).
-
- Proc.   0 individual time (sec): cpu=         21.4  wall=         21.4

================================================================================

 Calculation completed.
.Delivered   41 WARNINGs and   3 COMMENTs to log file.
+Overall time at end (sec) : cpu=         21.4  wall=         21.4
