
.Version 7.10.4 of ABINIT 
.(MPI version, prepared for a x86_64_linux_gnu4.7 computer) 

.Copyright (C) 1998-2014 ABINIT group . 
 ABINIT comes with ABSOLUTELY NO WARRANTY.
 It is free software, and you are welcome to redistribute it
 under certain conditions (GNU General Public License,
 see ~abinit/COPYING or http://www.gnu.org/copyleft/gpl.txt).

 ABINIT is a project of the Universite Catholique de Louvain,
 Corning Inc. and other collaborators, see ~abinit/doc/developers/contributors.txt .
 Please read ~abinit/doc/users/acknowledgments.html for suggested
 acknowledgments of the ABINIT effort.
 For more information, see http://www.abinit.org .

.Starting date : Wed 11 Mar 2015.
- ( at 10h24 )
  
- input  file    -> t07.in
- output file    -> t07.out
- root for input  files -> t07i
- root for output files -> t07o


 DATASET    1 : space group F-4 3 m (#216); Bravais cF (face-center cubic)
================================================================================
 Values of the parameters that define the memory need for DATASET  1.
   intxc =         0  ionmov =         0    iscf =         3 xclevel =         1
  lmnmax =         2   lnmax =         2   mband =         4  mffmem =         1
P  mgfft =        12   mkmem =         2 mpssoang=         3     mpw =        74
  mqgrid =      3001   natom =         2    nfft =      1728    nkpt =         2
  nloalg =         4  nspden =         1 nspinor =         1  nsppol =         1
    nsym =        24  n1xccc =         0  ntypat =         2  occopt =         1
================================================================================
P This job should need less than                       0.915 Mbytes of memory.
  Rough estimation (10% accuracy) of disk space for files :
_ WF disk file :      0.011 Mbytes ; DEN or POT disk file :      0.015 Mbytes.
================================================================================


 DATASET    2 : space group F-4 3 m (#216); Bravais cF (face-center cubic)
================================================================================
 Values of the parameters that define the memory need for DATASET  2.
   intxc =         0  ionmov =         0    iscf =        -2 xclevel =         1
  lmnmax =         2   lnmax =         2   mband =         4  mffmem =         1
P  mgfft =        12   mkmem =        32 mpssoang=         3     mpw =        74
  mqgrid =      3001   natom =         2    nfft =      1728    nkpt =        32
  nloalg =         4  nspden =         1 nspinor =         1  nsppol =         1
    nsym =        24  n1xccc =         0  ntypat =         2  occopt =         1
================================================================================
P This job should need less than                       1.042 Mbytes of memory.
  Rough estimation (10% accuracy) of disk space for files :
_ WF disk file :      0.147 Mbytes ; DEN or POT disk file :      0.015 Mbytes.
================================================================================


 DATASET    3 : space group F-4 3 m (#216); Bravais cF (face-center cubic)
================================================================================
 Values of the parameters that define the memory need for DATASET  3.
   intxc =         0  ionmov =         0    iscf =        -2 xclevel =         1
  lmnmax =         2   lnmax =         2   mband =         4  mffmem =         1
P  mgfft =        12   mkmem =        32 mpssoang=         3     mpw =        74
  mqgrid =      3001   natom =         2    nfft =      1728    nkpt =        32
  nloalg =         4  nspden =         1 nspinor =         1  nsppol =         1
    nsym =        24  n1xccc =         0  ntypat =         2  occopt =         1
================================================================================
P This job should need less than                       1.042 Mbytes of memory.
  Rough estimation (10% accuracy) of disk space for files :
_ WF disk file :      0.147 Mbytes ; DEN or POT disk file :      0.015 Mbytes.
================================================================================


 DATASET    4 : space group F-4 3 m (#216); Bravais cF (face-center cubic)
================================================================================
 Values of the parameters that define the memory need for DATASET  4 (RF).
   intxc =         0    iscf =         3 xclevel =         1  lmnmax =         2
   lnmax =         2   mband =         4  mffmem =         1   mgfft =        12
P  mkmem =        32  mkqmem =        32  mk1mem =        32 mpssoang=         3
     mpw =        74  mqgrid =      3001   natom =         2    nfft =      1728
    nkpt =        32  nloalg =         4  nspden =         1 nspinor =         1
  nsppol =         1    nsym =        24  n1xccc =         0  ntypat =         2
  occopt =         1
================================================================================
P This job should need less than                       1.618 Mbytes of memory.
P Max. in main chain + nonlop.f + opernl.f
P          198 blocks of mpw  integer numbers, for      0.056 Mbytes.
P          832 blocks of mpw  real(dp)  numbers, for      0.470 Mbytes.
P           34 blocks of nfft real(dp)  numbers, for      0.448 Mbytes.
P              Additional     integer numbers, for      0.002 Mbytes.
P              Additional     real(dp)  numbers, for      0.405 Mbytes.
P              With residue estimated to be             0.237 Mbytes.
P
P Comparison of the memory needs of different chains
P Main chain + fourwf.f                 1.611 Mbytes.
P Main chain + nonlop.f + opernl.f      1.618 Mbytes.
  Rough estimation (10% accuracy) of disk space for files :
_ WF disk file :      0.147 Mbytes ; DEN or POT disk file :      0.015 Mbytes.
================================================================================

--------------------------------------------------------------------------------
------------- Echo of variables that govern the present computation ------------
--------------------------------------------------------------------------------
-
- outvars: echo of selected default values                                      
-   accesswff0 =  0 , fftalg0 =112 , wfoptalg0 =  0
-
- outvars: echo of global parameters not present in the input file              
-  max_nthreads =    0
-
 -outvars: echo values of preprocessed input variables --------
            acell      1.0600000000E+01  1.0600000000E+01  1.0600000000E+01 Bohr
              amu      6.97200000E+01  7.49216000E+01
           diemac      1.00000000E+01
             ecut      3.00000000E+00 Hartree
-          fftalg         112
           getden1          0
           getden2          1
           getden3          1
           getden4          0
           getwfk1          0
           getwfk2          1
           getwfk3          2
           getwfk4          2
           getwfq1          0
           getwfq2          0
           getwfq3          0
           getwfq4          3
             iscf1          3
             iscf2         -2
             iscf3         -2
             iscf4          3
              ixc           3
           jdtset        1    2    3    4
              kpt1     2.50000000E-01  2.50000000E-01  2.50000000E-01
                       2.50000000E-01  5.00000000E-01  5.00000000E-01
              kpt2     2.50000000E-01  2.50000000E-01  2.50000000E-01
                      -2.50000000E-01 -2.50000000E-01 -2.50000000E-01
                       0.00000000E+00  0.00000000E+00  2.50000000E-01
                       0.00000000E+00  2.50000000E-01  0.00000000E+00
                       2.50000000E-01  0.00000000E+00  0.00000000E+00
                       0.00000000E+00  0.00000000E+00 -2.50000000E-01
                       0.00000000E+00 -2.50000000E-01  0.00000000E+00
                      -2.50000000E-01  0.00000000E+00  0.00000000E+00
                       5.00000000E-01  5.00000000E-01  2.50000000E-01
                       5.00000000E-01  2.50000000E-01  5.00000000E-01
                       2.50000000E-01  5.00000000E-01  5.00000000E-01
                      -5.00000000E-01 -5.00000000E-01 -2.50000000E-01
                      -5.00000000E-01 -2.50000000E-01 -5.00000000E-01
                      -2.50000000E-01 -5.00000000E-01 -5.00000000E-01
                       5.00000000E-01  2.50000000E-01  0.00000000E+00
                       2.50000000E-01  0.00000000E+00  5.00000000E-01
                       0.00000000E+00  5.00000000E-01  2.50000000E-01
                       0.00000000E+00  2.50000000E-01  5.00000000E-01
                       2.50000000E-01  5.00000000E-01  0.00000000E+00
                       5.00000000E-01  0.00000000E+00  2.50000000E-01
                      -5.00000000E-01 -2.50000000E-01  0.00000000E+00
                      -2.50000000E-01  0.00000000E+00 -5.00000000E-01
                       0.00000000E+00 -5.00000000E-01 -2.50000000E-01
                       0.00000000E+00 -2.50000000E-01 -5.00000000E-01
                      -2.50000000E-01 -5.00000000E-01  0.00000000E+00
                      -5.00000000E-01  0.00000000E+00 -2.50000000E-01
                       2.50000000E-01  2.50000000E-01 -2.50000000E-01
                       2.50000000E-01 -2.50000000E-01  2.50000000E-01
                      -2.50000000E-01  2.50000000E-01  2.50000000E-01
                      -2.50000000E-01 -2.50000000E-01  2.50000000E-01
                      -2.50000000E-01  2.50000000E-01 -2.50000000E-01
                       2.50000000E-01 -2.50000000E-01 -2.50000000E-01
              kpt3     2.50000000E-01  2.50000000E-01  2.50000000E-01
                      -2.50000000E-01 -2.50000000E-01 -2.50000000E-01
                       0.00000000E+00  0.00000000E+00  2.50000000E-01
                       0.00000000E+00  2.50000000E-01  0.00000000E+00
                       2.50000000E-01  0.00000000E+00  0.00000000E+00
                       0.00000000E+00  0.00000000E+00 -2.50000000E-01
                       0.00000000E+00 -2.50000000E-01  0.00000000E+00
                      -2.50000000E-01  0.00000000E+00  0.00000000E+00
                       5.00000000E-01  5.00000000E-01  2.50000000E-01
                       5.00000000E-01  2.50000000E-01  5.00000000E-01
                       2.50000000E-01  5.00000000E-01  5.00000000E-01
                      -5.00000000E-01 -5.00000000E-01 -2.50000000E-01
                      -5.00000000E-01 -2.50000000E-01 -5.00000000E-01
                      -2.50000000E-01 -5.00000000E-01 -5.00000000E-01
                       5.00000000E-01  2.50000000E-01  0.00000000E+00
                       2.50000000E-01  0.00000000E+00  5.00000000E-01
                       0.00000000E+00  5.00000000E-01  2.50000000E-01
                       0.00000000E+00  2.50000000E-01  5.00000000E-01
                       2.50000000E-01  5.00000000E-01  0.00000000E+00
                       5.00000000E-01  0.00000000E+00  2.50000000E-01
                      -5.00000000E-01 -2.50000000E-01  0.00000000E+00
                      -2.50000000E-01  0.00000000E+00 -5.00000000E-01
                       0.00000000E+00 -5.00000000E-01 -2.50000000E-01
                       0.00000000E+00 -2.50000000E-01 -5.00000000E-01
                      -2.50000000E-01 -5.00000000E-01  0.00000000E+00
                      -5.00000000E-01  0.00000000E+00 -2.50000000E-01
                       2.50000000E-01  2.50000000E-01 -2.50000000E-01
                       2.50000000E-01 -2.50000000E-01  2.50000000E-01
                      -2.50000000E-01  2.50000000E-01  2.50000000E-01
                      -2.50000000E-01 -2.50000000E-01  2.50000000E-01
                      -2.50000000E-01  2.50000000E-01 -2.50000000E-01
                       2.50000000E-01 -2.50000000E-01 -2.50000000E-01
              kpt4     2.50000000E-01  2.50000000E-01  2.50000000E-01
                      -2.50000000E-01 -2.50000000E-01 -2.50000000E-01
                       0.00000000E+00  0.00000000E+00  2.50000000E-01
                       0.00000000E+00  2.50000000E-01  0.00000000E+00
                       2.50000000E-01  0.00000000E+00  0.00000000E+00
                       0.00000000E+00  0.00000000E+00 -2.50000000E-01
                       0.00000000E+00 -2.50000000E-01  0.00000000E+00
                      -2.50000000E-01  0.00000000E+00  0.00000000E+00
                       5.00000000E-01  5.00000000E-01  2.50000000E-01
                       5.00000000E-01  2.50000000E-01  5.00000000E-01
                       2.50000000E-01  5.00000000E-01  5.00000000E-01
                      -5.00000000E-01 -5.00000000E-01 -2.50000000E-01
                      -5.00000000E-01 -2.50000000E-01 -5.00000000E-01
                      -2.50000000E-01 -5.00000000E-01 -5.00000000E-01
                       5.00000000E-01  2.50000000E-01  0.00000000E+00
                       2.50000000E-01  0.00000000E+00  5.00000000E-01
                       0.00000000E+00  5.00000000E-01  2.50000000E-01
                       0.00000000E+00  2.50000000E-01  5.00000000E-01
                       2.50000000E-01  5.00000000E-01  0.00000000E+00
                       5.00000000E-01  0.00000000E+00  2.50000000E-01
                      -5.00000000E-01 -2.50000000E-01  0.00000000E+00
                      -2.50000000E-01  0.00000000E+00 -5.00000000E-01
                       0.00000000E+00 -5.00000000E-01 -2.50000000E-01
                       0.00000000E+00 -2.50000000E-01 -5.00000000E-01
                      -2.50000000E-01 -5.00000000E-01  0.00000000E+00
                      -5.00000000E-01  0.00000000E+00 -2.50000000E-01
                       2.50000000E-01  2.50000000E-01 -2.50000000E-01
                       2.50000000E-01 -2.50000000E-01  2.50000000E-01
                      -2.50000000E-01  2.50000000E-01  2.50000000E-01
                      -2.50000000E-01 -2.50000000E-01  2.50000000E-01
                      -2.50000000E-01  2.50000000E-01 -2.50000000E-01
                       2.50000000E-01 -2.50000000E-01 -2.50000000E-01
           kptopt           0
P           mkmem1          2
P           mkmem2         32
P           mkmem3         32
P           mkmem4         32
P          mkqmem1          2
P          mkqmem2         32
P          mkqmem3         32
P          mkqmem4         32
P          mk1mem1          2
P          mk1mem2         32
P          mk1mem3         32
P          mk1mem4         32
            natom           2
            nband1          4
            nband2          4
            nband3          4
            nband4          4
           ndtset           4
            ngfft          12      12      12
             nkpt1          2
             nkpt2         32
             nkpt3         32
             nkpt4         32
             nqpt1          0
             nqpt2          0
             nqpt3          1
             nqpt4          1
             nsym          24
           ntypat           2
              occ1     2.000000  2.000000  2.000000  2.000000
              occ4     2.000000  2.000000  2.000000  2.000000
        optdriver1          0
        optdriver2          0
        optdriver3          0
        optdriver4          1
           prtvol1          0
           prtvol2          0
           prtvol3          0
           prtvol4         10
              qpt1     0.00000000E+00  0.00000000E+00  0.00000000E+00
              qpt2     0.00000000E+00  0.00000000E+00  0.00000000E+00
              qpt3     0.00000000E+00  5.00000000E-01  5.00000000E-01
              qpt4     0.00000000E+00  5.00000000E-01  5.00000000E-01
          rfatpol1          1       1
          rfatpol2          1       1
          rfatpol3          1       1
          rfatpol4          1       2
            rfdir1          0       0       0
            rfdir2          0       0       0
            rfdir3          0       0       0
            rfdir4          1       1       1
           rfphon1          0
           rfphon2          0
           rfphon3          0
           rfphon4          1
            rprim      0.0000000000E+00  5.0000000000E-01  5.0000000000E-01
                       5.0000000000E-01  0.0000000000E+00  5.0000000000E-01
                       5.0000000000E-01  5.0000000000E-01  0.0000000000E+00
          spgroup         216
           symrel      1  0  0   0  1  0   0  0  1       0  1 -1   1  0 -1   0  0 -1
                       0 -1  1   0 -1  0   1 -1  0      -1  0  0  -1  0  1  -1  1  0
                       0  1  0   0  0  1   1  0  0       1  0 -1   0  0 -1   0  1 -1
                       0 -1  0   1 -1  0   0 -1  1      -1  0  1  -1  1  0  -1  0  0
                       0  0  1   1  0  0   0  1  0       0  0 -1   0  1 -1   1  0 -1
                       1 -1  0   0 -1  1   0 -1  0      -1  1  0  -1  0  0  -1  0  1
                       1  0 -1   0  1 -1   0  0 -1       0  1  0   1  0  0   0  0  1
                      -1  0  1  -1  0  0  -1  1  0       0 -1  0   0 -1  1   1 -1  0
                      -1  1  0  -1  0  1  -1  0  0       1 -1  0   0 -1  0   0 -1  1
                       0  0 -1   1  0 -1   0  1 -1       0  0  1   0  1  0   1  0  0
                       0 -1  1   1 -1  0   0 -1  0      -1  0  0  -1  1  0  -1  0  1
                       1  0  0   0  0  1   0  1  0       0  1 -1   0  0 -1   1  0 -1
           tolwfr1     1.00000000E-22
           tolwfr2     1.00000000E-22
           tolwfr3     1.00000000E-22
           tolwfr4     2.00000000E-15
            typat      1  2
              wtk1       0.25000    0.75000
              wtk2       1.00000    1.00000    1.00000    1.00000    1.00000    1.00000
                         1.00000    1.00000    1.00000    1.00000    1.00000    1.00000
                         1.00000    1.00000    1.00000    1.00000    1.00000    1.00000
                         1.00000    1.00000    1.00000    1.00000    1.00000    1.00000
                         1.00000    1.00000    1.00000    1.00000    1.00000    1.00000
                         1.00000    1.00000
              wtk3       1.00000    1.00000    1.00000    1.00000    1.00000    1.00000
                         1.00000    1.00000    1.00000    1.00000    1.00000    1.00000
                         1.00000    1.00000    1.00000    1.00000    1.00000    1.00000
                         1.00000    1.00000    1.00000    1.00000    1.00000    1.00000
                         1.00000    1.00000    1.00000    1.00000    1.00000    1.00000
                         1.00000    1.00000
              wtk4       0.03125    0.03125    0.03125    0.03125    0.03125    0.03125
                         0.03125    0.03125    0.03125    0.03125    0.03125    0.03125
                         0.03125    0.03125    0.03125    0.03125    0.03125    0.03125
                         0.03125    0.03125    0.03125    0.03125    0.03125    0.03125
                         0.03125    0.03125    0.03125    0.03125    0.03125    0.03125
                         0.03125    0.03125
           xangst      0.0000000000E+00  0.0000000000E+00  0.0000000000E+00
                       1.4023196028E+00  1.4023196028E+00  1.4023196028E+00
            xcart      0.0000000000E+00  0.0000000000E+00  0.0000000000E+00
                       2.6500000000E+00  2.6500000000E+00  2.6500000000E+00
             xred      0.0000000000E+00  0.0000000000E+00  0.0000000000E+00
                       2.5000000000E-01  2.5000000000E-01  2.5000000000E-01
            znucl       31.00000   33.00000

================================================================================

 chkinp: Checking input parameters for consistency, jdtset=   1.

 chkinp: Checking input parameters for consistency, jdtset=   2.

 chkinp: Checking input parameters for consistency, jdtset=   3.

 chkinp: Checking input parameters for consistency, jdtset=   4.

================================================================================
== DATASET  1 ==================================================================
-   nproc =    1

 Exchange-correlation functional for the present dataset will be:
  LDA: old Teter (4/91) fit to Ceperley-Alder data - ixc=3

 Real(R)+Recip(G) space primitive vectors, cartesian coordinates (Bohr,Bohr^-1):
 R(1)=  0.0000000  5.3000000  5.3000000  G(1)= -0.0943396  0.0943396  0.0943396
 R(2)=  5.3000000  0.0000000  5.3000000  G(2)=  0.0943396 -0.0943396  0.0943396
 R(3)=  5.3000000  5.3000000  0.0000000  G(3)=  0.0943396  0.0943396 -0.0943396
 Unit cell volume ucvol=  2.9775400E+02 bohr^3
 Angles (23,13,12)=  6.00000000E+01  6.00000000E+01  6.00000000E+01 degrees

 getcut: wavevector=  0.0000  0.0000  0.0000  ngfft=  12  12  12
         ecut(hartree)=      3.000   => boxcut(ratio)=   2.05336

--- Pseudopotential description ------------------------------------------------
- pspini: atom type   1  psp file is /home/gonze/ABINIT/ABINITv7.10.4/trunk/7.10.4-private/tests/Psps_for_tests/31ga.SGS_mod
- pspatm: opening atomic psp file    /home/gonze/ABINIT/ABINITv7.10.4/trunk/7.10.4-private/tests/Psps_for_tests/31ga.SGS_mod
-   pspot from prpsa - Bachelet or Stumpf table ( !! OLD, only for tests )
- 31.00000   3.00000    900101                znucl, zion, pspdat
    5    3    2    2       267   0.00000      pspcod,pspxc,lmax,lloc,mmax,r2well
    3.225807E-04    4.879035E-02              r1 and al (Hamman grid)
    0   0.000   0.000    1   1.2712000        l,e99.0,e99.9,nproj,rcpsp
   0.00000000   0.00000000   0.00000000   0.00000000     rms, ekb1, ekb2, epsatm
    1   0.000   0.000    1   1.4316000        l,e99.0,e99.9,nproj,rcpsp
   0.00000000   0.00000000   0.00000000   0.00000000     rms, ekb1, ekb2, epsatm
    2   0.000   0.000    0   1.4889000        l,e99.0,e99.9,nproj,rcpsp
   0.00000000   0.00000000   0.00000000   0.00000000     rms, ekb1, ekb2, epsatm
    0.00000000000000    0.00000000000000    0.00000000000000   rchrg,fchrg,qchrg
 pspatm: epsatm=   19.73612150
         --- l  ekb(1:nproj) -->
             0    9.397339
             1   -0.525725
 pspatm: atomic psp has been read  and splines computed

- pspini: atom type   2  psp file is /home/gonze/ABINIT/ABINITv7.10.4/trunk/7.10.4-private/tests/Psps_for_tests/33as.SGS_mod
- pspatm: opening atomic psp file    /home/gonze/ABINIT/ABINITv7.10.4/trunk/7.10.4-private/tests/Psps_for_tests/33as.SGS_mod
-   pspot from prpsa - Bachelet or Stumpf table ( !! OLD, for testing purposes only )
- 33.00000   5.00000    900101                znucl, zion, pspdat
    5    3    2    2       269   0.00000      pspcod,pspxc,lmax,lloc,mmax,r2well
    3.030304E-04    4.879035E-02              r1 and al (Hamman grid)
    0   0.000   0.000    1   1.0000000        l,e99.0,e99.9,nproj,rcpsp
   0.00000000   0.00000000   0.00000000   0.00000000     rms, ekb1, ekb2, epsatm
    1   0.000   0.000    1   1.0000000        l,e99.0,e99.9,nproj,rcpsp
   0.00000000   0.00000000   0.00000000   0.00000000     rms, ekb1, ekb2, epsatm
    2   0.000   0.000    0   1.0000000        l,e99.0,e99.9,nproj,rcpsp
   0.00000000   0.00000000   0.00000000   0.00000000     rms, ekb1, ekb2, epsatm
    0.00000000000000    0.00000000000000    0.00000000000000   rchrg,fchrg,qchrg
 pspatm: epsatm=   26.05495600
         --- l  ekb(1:nproj) -->
             0    9.019459
             1   -0.908274
 pspatm: atomic psp has been read  and splines computed

   3.66328620E+02                                ecore*ucvol(ha*bohr**3)
--------------------------------------------------------------------------------

P newkpt: treating      4 bands with npw=      68 for ikpt=   1 by node    0
P newkpt: treating      4 bands with npw=      74 for ikpt=   2 by node    0

_setup2: Arith. and geom. avg. npw (full set) are      72.500      72.452

================================================================================

     iter   Etot(hartree)      deltaE(h)  residm     vres2
 ETOT  1  -8.4734605291315    -8.473E+00 1.174E-02 1.837E-01
 ETOT  2  -8.4801452393148    -6.685E-03 1.815E-06 7.314E-03
 ETOT  3  -8.4801670466028    -2.181E-05 3.421E-07 1.896E-04
 ETOT  4  -8.4801676332189    -5.866E-07 8.570E-09 1.484E-05
 ETOT  5  -8.4801676666617    -3.344E-08 4.746E-10 1.056E-06
 ETOT  6  -8.4801676681001    -1.438E-09 1.412E-11 8.716E-08
 ETOT  7  -8.4801676682791    -1.790E-10 2.433E-12 1.979E-09
 ETOT  8  -8.4801676682852    -6.125E-12 1.039E-13 1.978E-10
 ETOT  9  -8.4801676682858    -5.098E-13 5.758E-15 1.665E-11
 ETOT 10  -8.4801676682857     8.882E-15 2.397E-16 1.411E-12
 ETOT 11  -8.4801676682857     1.776E-15 3.754E-17 2.891E-14
 ETOT 12  -8.4801676682858    -4.796E-14 1.430E-18 2.638E-15
 ETOT 13  -8.4801676682858     3.020E-14 8.622E-20 2.201E-16
 ETOT 14  -8.4801676682858    -3.197E-14 2.699E-21 2.169E-17
 ETOT 15  -8.4801676682858     1.954E-14 4.643E-22 3.927E-19
 ETOT 16  -8.4801676682858    -1.599E-14 9.844E-23 1.804E-20

 At SCF step   16   max residual=  9.84E-23 < tolwfr=  1.00E-22 =>converged.

 Cartesian components of stress tensor (hartree/bohr^3)
  sigma(1 1)=  8.61808484E-04  sigma(3 2)=  0.00000000E+00
  sigma(2 2)=  8.61808484E-04  sigma(3 1)=  0.00000000E+00
  sigma(3 3)=  8.61808484E-04  sigma(2 1)=  0.00000000E+00

================================================================================

 ----iterations are completed or convergence reached----

 Mean square residual over all n,k,spin=   4.9502E-23; max=  9.8444E-23
   0.2500  0.2500  0.2500    1  9.84441E-23 kpt; spin; max resid(k); each band:
  3.19E-23 4.13E-23 1.05E-23 9.84E-23
   0.2500  0.5000  0.5000    1  8.46964E-23 kpt; spin; max resid(k); each band:
  8.47E-23 3.71E-23 2.55E-23 6.66E-23
 reduced coordinates (array xred) for    2 atoms
       0.000000000000      0.000000000000      0.000000000000
       0.250000000000      0.250000000000      0.250000000000
 rms dE/dt=  0.0000E+00; max dE/dt=  0.0000E+00; dE/dt below (all hartree)
    1       0.000000000000      0.000000000000      0.000000000000
    2       0.000000000000      0.000000000000      0.000000000000

 cartesian coordinates (angstrom) at end:
    1      0.00000000000000     0.00000000000000     0.00000000000000
    2      1.40231960276350     1.40231960276350     1.40231960276350

 cartesian forces (hartree/bohr) at end:
    1     -0.00000000000000    -0.00000000000000    -0.00000000000000
    2     -0.00000000000000    -0.00000000000000    -0.00000000000000
 frms,max,avg= 0.0000000E+00 0.0000000E+00   0.000E+00  0.000E+00  0.000E+00 h/b

 cartesian forces (eV/Angstrom) at end:
    1     -0.00000000000000    -0.00000000000000    -0.00000000000000
    2     -0.00000000000000    -0.00000000000000    -0.00000000000000
 frms,max,avg= 0.0000000E+00 0.0000000E+00   0.000E+00  0.000E+00  0.000E+00 e/A
 length scales= 10.600000000000 10.600000000000 10.600000000000 bohr
              =  5.609278411054  5.609278411054  5.609278411054 angstroms
 prteigrs : about to open file t07o_DS1_EIG
 Fermi (or HOMO) energy (hartree) =  -0.00295   Average Vxc (hartree)=  -0.32162
 Eigenvalues (hartree) for nkpt=   2  k points:
 kpt#   1, nband=  4, wtk=  0.25000, kpt=  0.2500  0.2500  0.2500 (reduced coord)
  -0.37902  -0.10860  -0.00295  -0.00295
 kpt#   2, nband=  4, wtk=  0.75000, kpt=  0.2500  0.5000  0.5000 (reduced coord)
  -0.32621  -0.19104  -0.09331  -0.05191
 Total charge density [el/Bohr^3]
,     Maximum=    8.8162E-02  at reduced coord.    0.1667    0.1667    0.5000
,Next maximum=    8.8162E-02  at reduced coord.    0.1667    0.5000    0.1667
,     Minimum=    2.3676E-03  at reduced coord.    0.7500    0.7500    0.7500
,Next minimum=    2.7397E-03  at reduced coord.    0.7500    0.7500    0.6667
,  Integrated=    8.0000E+00

--------------------------------------------------------------------------------
 Components of total free energy (in Hartree) :

    Kinetic energy  =  2.96179974875012E+00
    Hartree energy  =  7.04070743157746E-01
    XC energy       = -2.37496084294692E+00
    Ewald energy    = -8.48789573682593E+00
    PspCore energy  =  1.23030629308481E+00
    Loc. psp. energy= -2.46709548011017E+00
    NL   psp  energy= -4.63923933954372E-02
    >>>>>>>>> Etotal= -8.48016766828579E+00

 Other information on the energy :
    Total energy(eV)= -2.30757097618886E+02 ; Band energy (Ha)=  -1.2404709641E+00
--------------------------------------------------------------------------------

 Cartesian components of stress tensor (hartree/bohr^3)
  sigma(1 1)=  8.61808484E-04  sigma(3 2)=  0.00000000E+00
  sigma(2 2)=  8.61808484E-04  sigma(3 1)=  0.00000000E+00
  sigma(3 3)=  8.61808484E-04  sigma(2 1)=  0.00000000E+00

-Cartesian components of stress tensor (GPa)         [Pressure= -2.5355E+01 GPa]
- sigma(1 1)=  2.53552767E+01  sigma(3 2)=  0.00000000E+00
- sigma(2 2)=  2.53552767E+01  sigma(3 1)=  0.00000000E+00
- sigma(3 3)=  2.53552767E+01  sigma(2 1)=  0.00000000E+00

================================================================================
== DATASET  2 ==================================================================
-   nproc =    1

 mkfilename : getwfk/=0, take file _WFK from output of DATASET   1.

 mkfilename : getden/=0, take file _DEN from output of DATASET   1.

 Exchange-correlation functional for the present dataset will be:
  LDA: old Teter (4/91) fit to Ceperley-Alder data - ixc=3

 Real(R)+Recip(G) space primitive vectors, cartesian coordinates (Bohr,Bohr^-1):
 R(1)=  0.0000000  5.3000000  5.3000000  G(1)= -0.0943396  0.0943396  0.0943396
 R(2)=  5.3000000  0.0000000  5.3000000  G(2)=  0.0943396 -0.0943396  0.0943396
 R(3)=  5.3000000  5.3000000  0.0000000  G(3)=  0.0943396  0.0943396 -0.0943396
 Unit cell volume ucvol=  2.9775400E+02 bohr^3
 Angles (23,13,12)=  6.00000000E+01  6.00000000E+01  6.00000000E+01 degrees

 getcut: wavevector=  0.0000  0.0000  0.0000  ngfft=  12  12  12
         ecut(hartree)=      3.000   => boxcut(ratio)=   2.05336
--------------------------------------------------------------------------------

-inwffil : will read wavefunctions from disk file t07o_DS1_WFK
- newkpt: read input wf with ikpt,npw=   1      68, make ikpt,npw=   1      68
- newkpt: read input wf with ikpt,npw=   1      68, make ikpt,npw=   2      68
- newkpt: read input wf with ikpt,npw=   1      68, make ikpt,npw=   3      68
- newkpt: read input wf with ikpt,npw=   1      68, make ikpt,npw=   4      68
- newkpt: read input wf with ikpt,npw=   1      68, make ikpt,npw=   5      68
- newkpt: read input wf with ikpt,npw=   1      68, make ikpt,npw=   6      68
- newkpt: read input wf with ikpt,npw=   1      68, make ikpt,npw=   7      68
- newkpt: read input wf with ikpt,npw=   1      68, make ikpt,npw=   8      68
- newkpt: read input wf with ikpt,npw=   2      74, make ikpt,npw=   9      74
- newkpt: read input wf with ikpt,npw=   2      74, make ikpt,npw=  10      74
- newkpt: read input wf with ikpt,npw=   2      74, make ikpt,npw=  11      74
- newkpt: read input wf with ikpt,npw=   2      74, make ikpt,npw=  12      74
- newkpt: read input wf with ikpt,npw=   2      74, make ikpt,npw=  13      74
- newkpt: read input wf with ikpt,npw=   2      74, make ikpt,npw=  14      74
- newkpt: read input wf with ikpt,npw=   2      74, make ikpt,npw=  15      74
- newkpt: read input wf with ikpt,npw=   2      74, make ikpt,npw=  16      74
- newkpt: read input wf with ikpt,npw=   2      74, make ikpt,npw=  17      74
- newkpt: read input wf with ikpt,npw=   2      74, make ikpt,npw=  18      74
- newkpt: read input wf with ikpt,npw=   2      74, make ikpt,npw=  19      74
- newkpt: read input wf with ikpt,npw=   2      74, make ikpt,npw=  20      74
- newkpt: read input wf with ikpt,npw=   2      74, make ikpt,npw=  21      74
- newkpt: read input wf with ikpt,npw=   2      74, make ikpt,npw=  22      74
- newkpt: read input wf with ikpt,npw=   2      74, make ikpt,npw=  23      74
- newkpt: read input wf with ikpt,npw=   2      74, make ikpt,npw=  24      74
- newkpt: read input wf with ikpt,npw=   2      74, make ikpt,npw=  25      74
- newkpt: read input wf with ikpt,npw=   2      74, make ikpt,npw=  26      74
- newkpt: read input wf with ikpt,npw=   2      74, make ikpt,npw=  27      74
- newkpt: read input wf with ikpt,npw=   2      74, make ikpt,npw=  28      74
- newkpt: read input wf with ikpt,npw=   2      74, make ikpt,npw=  29      74
- newkpt: read input wf with ikpt,npw=   2      74, make ikpt,npw=  30      74
- newkpt: read input wf with ikpt,npw=   2      74, make ikpt,npw=  31      74
- newkpt: read input wf with ikpt,npw=   2      74, make ikpt,npw=  32      74


================================================================================
 prteigrs : about to open file t07o_DS2_EIG
 Non-SCF case, kpt    1 (  0.25000  0.25000  0.25000), residuals and eigenvalues=
  3.04E-23  3.39E-23  9.94E-24  9.61E-23
 -3.7902E-01 -1.0860E-01 -2.9519E-03 -2.9519E-03
 Non-SCF case, kpt    2 ( -0.25000 -0.25000 -0.25000), residuals and eigenvalues=
  3.04E-23  3.39E-23  9.94E-24  9.61E-23
 -3.7902E-01 -1.0860E-01 -2.9519E-03 -2.9519E-03
 Non-SCF case, kpt    3 (  0.00000  0.00000  0.25000), residuals and eigenvalues=
  3.63E-23  5.84E-23  2.84E-23  4.97E-23
 -3.7902E-01 -1.0860E-01 -2.9519E-03 -2.9519E-03
 Non-SCF case, kpt    4 (  0.00000  0.25000  0.00000), residuals and eigenvalues=
  4.48E-23  5.77E-23  2.32E-23  6.27E-23
 -3.7902E-01 -1.0860E-01 -2.9519E-03 -2.9519E-03
 Non-SCF case, kpt    5 (  0.25000  0.00000  0.00000), residuals and eigenvalues=
  4.24E-23  6.06E-23  6.21E-23  8.90E-23
 -3.7902E-01 -1.0860E-01 -2.9519E-03 -2.9519E-03
 Non-SCF case, kpt    6 (  0.00000  0.00000 -0.25000), residuals and eigenvalues=
  3.63E-23  5.84E-23  2.84E-23  4.97E-23
 -3.7902E-01 -1.0860E-01 -2.9519E-03 -2.9519E-03
 Non-SCF case, kpt    7 (  0.00000 -0.25000  0.00000), residuals and eigenvalues=
  4.48E-23  5.77E-23  2.32E-23  6.27E-23
 -3.7902E-01 -1.0860E-01 -2.9519E-03 -2.9519E-03
 Non-SCF case, kpt    8 ( -0.25000  0.00000  0.00000), residuals and eigenvalues=
  4.24E-23  6.06E-23  6.21E-23  8.90E-23
 -3.7902E-01 -1.0860E-01 -2.9519E-03 -2.9519E-03
 Non-SCF case, kpt    9 (  0.50000  0.50000  0.25000), residuals and eigenvalues=
  4.00E-23  6.09E-23  2.79E-23  7.81E-23
 -3.2621E-01 -1.9104E-01 -9.3313E-02 -5.1908E-02
 Non-SCF case, kpt   10 (  0.50000  0.25000  0.50000), residuals and eigenvalues=
  9.73E-23  5.85E-23  6.76E-23  6.74E-23
 -3.2621E-01 -1.9104E-01 -9.3313E-02 -5.1908E-02
 Non-SCF case, kpt   11 (  0.25000  0.50000  0.50000), residuals and eigenvalues=
  7.63E-23  2.79E-23  1.97E-23  6.32E-23
 -3.2621E-01 -1.9104E-01 -9.3313E-02 -5.1908E-02
 Non-SCF case, kpt   12 ( -0.50000 -0.50000 -0.25000), residuals and eigenvalues=
  4.00E-23  6.09E-23  2.79E-23  7.81E-23
 -3.2621E-01 -1.9104E-01 -9.3313E-02 -5.1908E-02
 Non-SCF case, kpt   13 ( -0.50000 -0.25000 -0.50000), residuals and eigenvalues=
  9.73E-23  5.85E-23  6.76E-23  6.74E-23
 -3.2621E-01 -1.9104E-01 -9.3313E-02 -5.1908E-02
 Non-SCF case, kpt   14 ( -0.25000 -0.50000 -0.50000), residuals and eigenvalues=
  7.63E-23  2.79E-23  1.97E-23  6.32E-23
 -3.2621E-01 -1.9104E-01 -9.3313E-02 -5.1908E-02
 Non-SCF case, kpt   15 (  0.50000  0.25000  0.00000), residuals and eigenvalues=
  7.46E-23  3.53E-23  6.07E-23  6.99E-23
 -3.2621E-01 -1.9104E-01 -9.3313E-02 -5.1908E-02
 Non-SCF case, kpt   16 (  0.25000  0.00000  0.50000), residuals and eigenvalues=
  2.65E-23  5.83E-23  5.20E-23  8.01E-23
 -3.2621E-01 -1.9104E-01 -9.3313E-02 -5.1908E-02
 Non-SCF case, kpt   17 (  0.00000  0.50000  0.25000), residuals and eigenvalues=
  3.39E-23  5.03E-23  9.22E-23  5.76E-23
 -3.2621E-01 -1.9104E-01 -9.3313E-02 -5.1908E-02
 Non-SCF case, kpt   18 (  0.00000  0.25000  0.50000), residuals and eigenvalues=
  2.67E-23  5.08E-23  5.84E-23  7.37E-23
 -3.2621E-01 -1.9104E-01 -9.3313E-02 -5.1908E-02
 Non-SCF case, kpt   19 (  0.25000  0.50000  0.00000), residuals and eigenvalues=
  8.71E-23  5.13E-23  5.77E-23  4.50E-23
 -3.2621E-01 -1.9104E-01 -9.3313E-02 -5.1908E-02
 Non-SCF case, kpt   20 (  0.50000  0.00000  0.25000), residuals and eigenvalues=
  8.37E-23  4.19E-23  8.89E-23  8.89E-23
 -3.2621E-01 -1.9104E-01 -9.3313E-02 -5.1908E-02
 Non-SCF case, kpt   21 ( -0.50000 -0.25000  0.00000), residuals and eigenvalues=
  7.46E-23  3.53E-23  6.07E-23  6.99E-23
 -3.2621E-01 -1.9104E-01 -9.3313E-02 -5.1908E-02
 Non-SCF case, kpt   22 ( -0.25000  0.00000 -0.50000), residuals and eigenvalues=
  2.65E-23  5.83E-23  5.20E-23  8.00E-23
 -3.2621E-01 -1.9104E-01 -9.3313E-02 -5.1908E-02
 Non-SCF case, kpt   23 (  0.00000 -0.50000 -0.25000), residuals and eigenvalues=
  3.39E-23  5.03E-23  9.22E-23  5.76E-23
 -3.2621E-01 -1.9104E-01 -9.3313E-02 -5.1908E-02
 Non-SCF case, kpt   24 (  0.00000 -0.25000 -0.50000), residuals and eigenvalues=
  2.67E-23  5.08E-23  5.84E-23  7.37E-23
 -3.2621E-01 -1.9104E-01 -9.3313E-02 -5.1908E-02
 Non-SCF case, kpt   25 ( -0.25000 -0.50000  0.00000), residuals and eigenvalues=
  8.71E-23  5.13E-23  5.77E-23  4.50E-23
 -3.2621E-01 -1.9104E-01 -9.3313E-02 -5.1908E-02
 Non-SCF case, kpt   26 ( -0.50000  0.00000 -0.25000), residuals and eigenvalues=
  8.37E-23  4.19E-23  8.89E-23  8.89E-23
 -3.2621E-01 -1.9104E-01 -9.3313E-02 -5.1908E-02
 Non-SCF case, kpt   27 (  0.25000  0.25000 -0.25000), residuals and eigenvalues=
  4.02E-23  8.18E-23  3.01E-23  5.36E-23
 -3.2621E-01 -1.9104E-01 -9.3313E-02 -5.1908E-02
 Non-SCF case, kpt   28 (  0.25000 -0.25000  0.25000), residuals and eigenvalues=
  8.86E-23  4.09E-23  6.00E-23  5.01E-23
 -3.2621E-01 -1.9104E-01 -9.3313E-02 -5.1908E-02
 Non-SCF case, kpt   29 ( -0.25000  0.25000  0.25000), residuals and eigenvalues=
  7.23E-23  3.24E-23  4.54E-23  4.76E-23
 -3.2621E-01 -1.9104E-01 -9.3313E-02 -5.1908E-02
 Non-SCF case, kpt   30 ( -0.25000 -0.25000  0.25000), residuals and eigenvalues=
  4.02E-23  8.18E-23  3.01E-23  5.36E-23
 -3.2621E-01 -1.9104E-01 -9.3313E-02 -5.1908E-02
 Non-SCF case, kpt   31 ( -0.25000  0.25000 -0.25000), residuals and eigenvalues=
  8.86E-23  4.09E-23  6.00E-23  5.01E-23
 -3.2621E-01 -1.9104E-01 -9.3313E-02 -5.1908E-02
 Non-SCF case, kpt   32 (  0.25000 -0.25000 -0.25000), residuals and eigenvalues=
  7.23E-23  3.24E-23  4.54E-23  4.76E-23
 -3.2621E-01 -1.9104E-01 -9.3313E-02 -5.1908E-02
================================================================================

 ----iterations are completed or convergence reached----

 Mean square residual over all n,k,spin=   5.5610E-23; max=  9.7320E-23
   0.2500  0.2500  0.2500    1  9.60732E-23 kpt; spin; max resid(k); each band:
  3.04E-23 3.39E-23 9.94E-24 9.61E-23
  -0.2500 -0.2500 -0.2500    1  9.60722E-23 kpt; spin; max resid(k); each band:
  3.04E-23 3.39E-23 9.94E-24 9.61E-23
   0.0000  0.0000  0.2500    1  5.84176E-23 kpt; spin; max resid(k); each band:
  3.63E-23 5.84E-23 2.84E-23 4.97E-23
   0.0000  0.2500  0.0000    1  6.27276E-23 kpt; spin; max resid(k); each band:
  4.48E-23 5.77E-23 2.32E-23 6.27E-23
   0.2500  0.0000  0.0000    1  8.89891E-23 kpt; spin; max resid(k); each band:
  4.24E-23 6.06E-23 6.21E-23 8.90E-23
   0.0000  0.0000 -0.2500    1  5.84189E-23 kpt; spin; max resid(k); each band:
  3.63E-23 5.84E-23 2.84E-23 4.97E-23
   0.0000 -0.2500  0.0000    1  6.27275E-23 kpt; spin; max resid(k); each band:
  4.48E-23 5.77E-23 2.32E-23 6.27E-23
  -0.2500  0.0000  0.0000    1  8.89872E-23 kpt; spin; max resid(k); each band:
  4.24E-23 6.06E-23 6.21E-23 8.90E-23
   0.5000  0.5000  0.2500    1  7.81484E-23 kpt; spin; max resid(k); each band:
  4.00E-23 6.09E-23 2.79E-23 7.81E-23
   0.5000  0.2500  0.5000    1  9.73192E-23 kpt; spin; max resid(k); each band:
  9.73E-23 5.85E-23 6.76E-23 6.74E-23
   0.2500  0.5000  0.5000    1  7.62924E-23 kpt; spin; max resid(k); each band:
  7.63E-23 2.79E-23 1.97E-23 6.32E-23
  -0.5000 -0.5000 -0.2500    1  7.81487E-23 kpt; spin; max resid(k); each band:
  4.00E-23 6.09E-23 2.79E-23 7.81E-23
  -0.5000 -0.2500 -0.5000    1  9.73200E-23 kpt; spin; max resid(k); each band:
  9.73E-23 5.85E-23 6.76E-23 6.74E-23
  -0.2500 -0.5000 -0.5000    1  7.62936E-23 kpt; spin; max resid(k); each band:
  7.63E-23 2.79E-23 1.97E-23 6.32E-23
   0.5000  0.2500  0.0000    1  7.45755E-23 kpt; spin; max resid(k); each band:
  7.46E-23 3.53E-23 6.07E-23 6.99E-23
   0.2500  0.0000  0.5000    1  8.00511E-23 kpt; spin; max resid(k); each band:
  2.65E-23 5.83E-23 5.20E-23 8.01E-23
   0.0000  0.5000  0.2500    1  9.22217E-23 kpt; spin; max resid(k); each band:
  3.39E-23 5.03E-23 9.22E-23 5.76E-23
   0.0000  0.2500  0.5000    1  7.37011E-23 kpt; spin; max resid(k); each band:
  2.67E-23 5.08E-23 5.84E-23 7.37E-23
   0.2500  0.5000  0.0000    1  8.71351E-23 kpt; spin; max resid(k); each band:
  8.71E-23 5.13E-23 5.77E-23 4.50E-23
   0.5000  0.0000  0.2500    1  8.89212E-23 kpt; spin; max resid(k); each band:
  8.37E-23 4.19E-23 8.89E-23 8.89E-23
  -0.5000 -0.2500  0.0000    1  7.45706E-23 kpt; spin; max resid(k); each band:
  7.46E-23 3.53E-23 6.07E-23 6.99E-23
  -0.2500  0.0000 -0.5000    1  8.00496E-23 kpt; spin; max resid(k); each band:
  2.65E-23 5.83E-23 5.20E-23 8.00E-23
   0.0000 -0.5000 -0.2500    1  9.22188E-23 kpt; spin; max resid(k); each band:
  3.39E-23 5.03E-23 9.22E-23 5.76E-23
   0.0000 -0.2500 -0.5000    1  7.37007E-23 kpt; spin; max resid(k); each band:
  2.67E-23 5.08E-23 5.84E-23 7.37E-23
  -0.2500 -0.5000  0.0000    1  8.71346E-23 kpt; spin; max resid(k); each band:
  8.71E-23 5.13E-23 5.77E-23 4.50E-23
  -0.5000  0.0000 -0.2500    1  8.89232E-23 kpt; spin; max resid(k); each band:
  8.37E-23 4.19E-23 8.89E-23 8.89E-23
   0.2500  0.2500 -0.2500    1  8.17817E-23 kpt; spin; max resid(k); each band:
  4.02E-23 8.18E-23 3.01E-23 5.36E-23
   0.2500 -0.2500  0.2500    1  8.85924E-23 kpt; spin; max resid(k); each band:
  8.86E-23 4.09E-23 6.00E-23 5.01E-23
  -0.2500  0.2500  0.2500    1  7.23337E-23 kpt; spin; max resid(k); each band:
  7.23E-23 3.24E-23 4.54E-23 4.76E-23
  -0.2500 -0.2500  0.2500    1  8.17804E-23 kpt; spin; max resid(k); each band:
  4.02E-23 8.18E-23 3.01E-23 5.36E-23
  -0.2500  0.2500 -0.2500    1  8.85864E-23 kpt; spin; max resid(k); each band:
  8.86E-23 4.09E-23 6.00E-23 5.01E-23
   0.2500 -0.2500 -0.2500    1  7.23332E-23 kpt; spin; max resid(k); each band:
  7.23E-23 3.24E-23 4.54E-23 4.76E-23
 reduced coordinates (array xred) for    2 atoms
       0.000000000000      0.000000000000      0.000000000000
       0.250000000000      0.250000000000      0.250000000000

 cartesian coordinates (angstrom) at end:
    1      0.00000000000000     0.00000000000000     0.00000000000000
    2      1.40231960276350     1.40231960276350     1.40231960276350
 length scales= 10.600000000000 10.600000000000 10.600000000000 bohr
              =  5.609278411054  5.609278411054  5.609278411054 angstroms
 prteigrs : about to open file t07o_DS2_EIG
 Eigenvalues (hartree) for nkpt=  32  k points:
 kpt#   1, nband=  4, wtk=  1.00000, kpt=  0.2500  0.2500  0.2500 (reduced coord)
  -0.37902  -0.10860  -0.00295  -0.00295
 kpt#   2, nband=  4, wtk=  1.00000, kpt= -0.2500 -0.2500 -0.2500 (reduced coord)
  -0.37902  -0.10860  -0.00295  -0.00295
 kpt#   3, nband=  4, wtk=  1.00000, kpt=  0.0000  0.0000  0.2500 (reduced coord)
  -0.37902  -0.10860  -0.00295  -0.00295
 kpt#   4, nband=  4, wtk=  1.00000, kpt=  0.0000  0.2500  0.0000 (reduced coord)
  -0.37902  -0.10860  -0.00295  -0.00295
 kpt#   5, nband=  4, wtk=  1.00000, kpt=  0.2500  0.0000  0.0000 (reduced coord)
  -0.37902  -0.10860  -0.00295  -0.00295
 kpt#   6, nband=  4, wtk=  1.00000, kpt=  0.0000  0.0000 -0.2500 (reduced coord)
  -0.37902  -0.10860  -0.00295  -0.00295
 kpt#   7, nband=  4, wtk=  1.00000, kpt=  0.0000 -0.2500  0.0000 (reduced coord)
  -0.37902  -0.10860  -0.00295  -0.00295
 kpt#   8, nband=  4, wtk=  1.00000, kpt= -0.2500  0.0000  0.0000 (reduced coord)
  -0.37902  -0.10860  -0.00295  -0.00295
 kpt#   9, nband=  4, wtk=  1.00000, kpt=  0.5000  0.5000  0.2500 (reduced coord)
  -0.32621  -0.19104  -0.09331  -0.05191
 kpt#  10, nband=  4, wtk=  1.00000, kpt=  0.5000  0.2500  0.5000 (reduced coord)
  -0.32621  -0.19104  -0.09331  -0.05191
 kpt#  11, nband=  4, wtk=  1.00000, kpt=  0.2500  0.5000  0.5000 (reduced coord)
  -0.32621  -0.19104  -0.09331  -0.05191
 kpt#  12, nband=  4, wtk=  1.00000, kpt= -0.5000 -0.5000 -0.2500 (reduced coord)
  -0.32621  -0.19104  -0.09331  -0.05191
 kpt#  13, nband=  4, wtk=  1.00000, kpt= -0.5000 -0.2500 -0.5000 (reduced coord)
  -0.32621  -0.19104  -0.09331  -0.05191
 kpt#  14, nband=  4, wtk=  1.00000, kpt= -0.2500 -0.5000 -0.5000 (reduced coord)
  -0.32621  -0.19104  -0.09331  -0.05191
 kpt#  15, nband=  4, wtk=  1.00000, kpt=  0.5000  0.2500  0.0000 (reduced coord)
  -0.32621  -0.19104  -0.09331  -0.05191
 kpt#  16, nband=  4, wtk=  1.00000, kpt=  0.2500  0.0000  0.5000 (reduced coord)
  -0.32621  -0.19104  -0.09331  -0.05191
 kpt#  17, nband=  4, wtk=  1.00000, kpt=  0.0000  0.5000  0.2500 (reduced coord)
  -0.32621  -0.19104  -0.09331  -0.05191
 kpt#  18, nband=  4, wtk=  1.00000, kpt=  0.0000  0.2500  0.5000 (reduced coord)
  -0.32621  -0.19104  -0.09331  -0.05191
 kpt#  19, nband=  4, wtk=  1.00000, kpt=  0.2500  0.5000  0.0000 (reduced coord)
  -0.32621  -0.19104  -0.09331  -0.05191
 kpt#  20, nband=  4, wtk=  1.00000, kpt=  0.5000  0.0000  0.2500 (reduced coord)
  -0.32621  -0.19104  -0.09331  -0.05191
 kpt#  21, nband=  4, wtk=  1.00000, kpt= -0.5000 -0.2500  0.0000 (reduced coord)
  -0.32621  -0.19104  -0.09331  -0.05191
 kpt#  22, nband=  4, wtk=  1.00000, kpt= -0.2500  0.0000 -0.5000 (reduced coord)
  -0.32621  -0.19104  -0.09331  -0.05191
 kpt#  23, nband=  4, wtk=  1.00000, kpt=  0.0000 -0.5000 -0.2500 (reduced coord)
  -0.32621  -0.19104  -0.09331  -0.05191
 kpt#  24, nband=  4, wtk=  1.00000, kpt=  0.0000 -0.2500 -0.5000 (reduced coord)
  -0.32621  -0.19104  -0.09331  -0.05191
 kpt#  25, nband=  4, wtk=  1.00000, kpt= -0.2500 -0.5000  0.0000 (reduced coord)
  -0.32621  -0.19104  -0.09331  -0.05191
 kpt#  26, nband=  4, wtk=  1.00000, kpt= -0.5000  0.0000 -0.2500 (reduced coord)
  -0.32621  -0.19104  -0.09331  -0.05191
 kpt#  27, nband=  4, wtk=  1.00000, kpt=  0.2500  0.2500 -0.2500 (reduced coord)
  -0.32621  -0.19104  -0.09331  -0.05191
 kpt#  28, nband=  4, wtk=  1.00000, kpt=  0.2500 -0.2500  0.2500 (reduced coord)
  -0.32621  -0.19104  -0.09331  -0.05191
 kpt#  29, nband=  4, wtk=  1.00000, kpt= -0.2500  0.2500  0.2500 (reduced coord)
  -0.32621  -0.19104  -0.09331  -0.05191
 kpt#  30, nband=  4, wtk=  1.00000, kpt= -0.2500 -0.2500  0.2500 (reduced coord)
  -0.32621  -0.19104  -0.09331  -0.05191
 kpt#  31, nband=  4, wtk=  1.00000, kpt= -0.2500  0.2500 -0.2500 (reduced coord)
  -0.32621  -0.19104  -0.09331  -0.05191
 kpt#  32, nband=  4, wtk=  1.00000, kpt=  0.2500 -0.2500 -0.2500 (reduced coord)
  -0.32621  -0.19104  -0.09331  -0.05191
 Total charge density [el/Bohr^3]
,     Maximum=    8.8162E-02  at reduced coord.    0.1667    0.1667    0.5000
,Next maximum=    8.8162E-02  at reduced coord.    0.1667    0.5000    0.1667
,     Minimum=    2.3676E-03  at reduced coord.    0.7500    0.7500    0.7500
,Next minimum=    2.7397E-03  at reduced coord.    0.7500    0.7500    0.6667
,  Integrated=    8.0000E+00

================================================================================
== DATASET  3 ==================================================================
-   nproc =    1

 mkfilename : getwfk/=0, take file _WFK from output of DATASET   2.

 mkfilename : getden/=0, take file _DEN from output of DATASET   1.

 Exchange-correlation functional for the present dataset will be:
  LDA: old Teter (4/91) fit to Ceperley-Alder data - ixc=3

 Real(R)+Recip(G) space primitive vectors, cartesian coordinates (Bohr,Bohr^-1):
 R(1)=  0.0000000  5.3000000  5.3000000  G(1)= -0.0943396  0.0943396  0.0943396
 R(2)=  5.3000000  0.0000000  5.3000000  G(2)=  0.0943396 -0.0943396  0.0943396
 R(3)=  5.3000000  5.3000000  0.0000000  G(3)=  0.0943396  0.0943396 -0.0943396
 Unit cell volume ucvol=  2.9775400E+02 bohr^3
 Angles (23,13,12)=  6.00000000E+01  6.00000000E+01  6.00000000E+01 degrees

 getcut: wavevector=  0.0000  0.0000  0.0000  ngfft=  12  12  12
         ecut(hartree)=      3.000   => boxcut(ratio)=   2.05336
--------------------------------------------------------------------------------

-inwffil : will read wavefunctions from disk file t07o_DS2_WFK
- newkpt: read input wf with ikpt,npw=  32      74, make ikpt,npw=   1      74
- newkpt: read input wf with ikpt,npw=  29      74, make ikpt,npw=   2      74
- newkpt: read input wf with ikpt,npw=  23      74, make ikpt,npw=   3      74
- newkpt: read input wf with ikpt,npw=  24      74, make ikpt,npw=   4      74
- newkpt: read input wf with ikpt,npw=  11      74, make ikpt,npw=   5      74
- newkpt: read input wf with ikpt,npw=  17      74, make ikpt,npw=   6      74
- newkpt: read input wf with ikpt,npw=  18      74, make ikpt,npw=   7      74
- newkpt: read input wf with ikpt,npw=  14      74, make ikpt,npw=   8      74
- newkpt: read input wf with ikpt,npw=  26      74, make ikpt,npw=   9      74
- newkpt: read input wf with ikpt,npw=  21      74, make ikpt,npw=  10      74
- newkpt: read input wf with ikpt,npw=   5      68, make ikpt,npw=  11      68
- newkpt: read input wf with ikpt,npw=  20      74, make ikpt,npw=  12      74
- newkpt: read input wf with ikpt,npw=  15      74, make ikpt,npw=  13      74
- newkpt: read input wf with ikpt,npw=   8      68, make ikpt,npw=  14      68
- newkpt: read input wf with ikpt,npw=  13      74, make ikpt,npw=  15      74
- newkpt: read input wf with ikpt,npw=  19      74, make ikpt,npw=  16      74
- newkpt: read input wf with ikpt,npw=   6      68, make ikpt,npw=  17      68
- newkpt: read input wf with ikpt,npw=   7      68, make ikpt,npw=  18      68
- newkpt: read input wf with ikpt,npw=  16      74, make ikpt,npw=  19      74
- newkpt: read input wf with ikpt,npw=  12      74, make ikpt,npw=  20      74
- newkpt: read input wf with ikpt,npw=  10      74, make ikpt,npw=  21      74
- newkpt: read input wf with ikpt,npw=  25      74, make ikpt,npw=  22      74
- newkpt: read input wf with ikpt,npw=   3      68, make ikpt,npw=  23      68
- newkpt: read input wf with ikpt,npw=   4      68, make ikpt,npw=  24      68
- newkpt: read input wf with ikpt,npw=  22      74, make ikpt,npw=  25      74
- newkpt: read input wf with ikpt,npw=   9      74, make ikpt,npw=  26      74
- newkpt: read input wf with ikpt,npw=  28      74, make ikpt,npw=  27      74
- newkpt: read input wf with ikpt,npw=  27      74, make ikpt,npw=  28      74
- newkpt: read input wf with ikpt,npw=   2      68, make ikpt,npw=  29      68
- newkpt: read input wf with ikpt,npw=  31      74, make ikpt,npw=  30      74
- newkpt: read input wf with ikpt,npw=  30      74, make ikpt,npw=  31      74
- newkpt: read input wf with ikpt,npw=   1      68, make ikpt,npw=  32      68


================================================================================
 prteigrs : about to open file t07o_DS3_EIG
 Non-SCF case, kpt    1 (  0.25000  0.75000  0.75000), residuals and eigenvalues=
  7.20E-23  3.14E-23  4.35E-23  4.64E-23
 -3.2621E-01 -1.9104E-01 -9.3313E-02 -5.1908E-02
 Non-SCF case, kpt    2 ( -0.25000  0.25000  0.25000), residuals and eigenvalues=
  7.20E-23  3.14E-23  4.35E-23  4.64E-23
 -3.2621E-01 -1.9104E-01 -9.3313E-02 -5.1908E-02
 Non-SCF case, kpt    3 (  0.00000  0.50000  0.75000), residuals and eigenvalues=
  3.18E-23  4.83E-23  9.07E-23  5.64E-23
 -3.2621E-01 -1.9104E-01 -9.3313E-02 -5.1908E-02
 Non-SCF case, kpt    4 (  0.00000  0.75000  0.50000), residuals and eigenvalues=
  2.45E-23  4.65E-23  5.53E-23  7.37E-23
 -3.2621E-01 -1.9104E-01 -9.3313E-02 -5.1908E-02
 Non-SCF case, kpt    5 (  0.25000  0.50000  0.50000), residuals and eigenvalues=
  7.62E-23  2.78E-23  1.97E-23  6.32E-23
 -3.2621E-01 -1.9104E-01 -9.3313E-02 -5.1908E-02
 Non-SCF case, kpt    6 (  0.00000  0.50000  0.25000), residuals and eigenvalues=
  3.18E-23  4.83E-23  9.07E-23  5.64E-23
 -3.2621E-01 -1.9104E-01 -9.3313E-02 -5.1908E-02
 Non-SCF case, kpt    7 (  0.00000  0.25000  0.50000), residuals and eigenvalues=
  2.45E-23  4.65E-23  5.53E-23  7.37E-23
 -3.2621E-01 -1.9104E-01 -9.3313E-02 -5.1908E-02
 Non-SCF case, kpt    8 ( -0.25000  0.50000  0.50000), residuals and eigenvalues=
  7.62E-23  2.78E-23  1.97E-23  6.32E-23
 -3.2621E-01 -1.9104E-01 -9.3313E-02 -5.1908E-02
 Non-SCF case, kpt    9 (  0.50000  1.00000  0.75000), residuals and eigenvalues=
  8.28E-23  4.02E-23  8.78E-23  8.78E-23
 -3.2621E-01 -1.9104E-01 -9.3313E-02 -5.1908E-02
 Non-SCF case, kpt   10 (  0.50000  0.75000  1.00000), residuals and eigenvalues=
  7.40E-23  3.33E-23  5.85E-23  6.99E-23
 -3.2621E-01 -1.9104E-01 -9.3313E-02 -5.1908E-02
 Non-SCF case, kpt   11 (  0.25000  1.00000  1.00000), residuals and eigenvalues=
  4.08E-23  5.94E-23  2.47E-23  3.58E-23
 -3.7902E-01 -1.0860E-01 -2.9519E-03 -2.9519E-03
 Non-SCF case, kpt   12 ( -0.50000  0.00000  0.25000), residuals and eigenvalues=
  8.28E-23  4.02E-23  8.78E-23  8.78E-23
 -3.2621E-01 -1.9104E-01 -9.3313E-02 -5.1908E-02
 Non-SCF case, kpt   13 ( -0.50000  0.25000  0.00000), residuals and eigenvalues=
  7.40E-23  3.33E-23  5.85E-23  6.99E-23
 -3.2621E-01 -1.9104E-01 -9.3313E-02 -5.1908E-02
 Non-SCF case, kpt   14 ( -0.25000  0.00000  0.00000), residuals and eigenvalues=
  4.08E-23  5.94E-23  2.47E-23  3.58E-23
 -3.7902E-01 -1.0860E-01 -2.9519E-03 -2.9519E-03
 Non-SCF case, kpt   15 (  0.50000  0.75000  0.50000), residuals and eigenvalues=
  9.64E-23  5.52E-23  6.51E-23  6.65E-23
 -3.2621E-01 -1.9104E-01 -9.3313E-02 -5.1908E-02
 Non-SCF case, kpt   16 (  0.25000  0.50000  1.00000), residuals and eigenvalues=
  8.60E-23  4.61E-23  5.10E-23  4.38E-23
 -3.2621E-01 -1.9104E-01 -9.3313E-02 -5.1908E-02
 Non-SCF case, kpt   17 (  0.00000  1.00000  0.75000), residuals and eigenvalues=
  3.51E-23  5.76E-23  4.21E-23  3.16E-23
 -3.7902E-01 -1.0860E-01 -2.9519E-03 -2.9519E-03
 Non-SCF case, kpt   18 (  0.00000  0.75000  1.00000), residuals and eigenvalues=
  4.21E-23  5.62E-23  6.08E-23  2.13E-23
 -3.7902E-01 -1.0860E-01 -2.9519E-03 -2.9519E-03
 Non-SCF case, kpt   19 (  0.25000  1.00000  0.50000), residuals and eigenvalues=
  2.48E-23  5.12E-23  4.50E-23  7.90E-23
 -3.2621E-01 -1.9104E-01 -9.3313E-02 -5.1908E-02
 Non-SCF case, kpt   20 (  0.50000  0.50000  0.75000), residuals and eigenvalues=
  3.65E-23  5.06E-23  2.00E-23  7.81E-23
 -3.2621E-01 -1.9104E-01 -9.3313E-02 -5.1908E-02
 Non-SCF case, kpt   21 ( -0.50000  0.25000  0.50000), residuals and eigenvalues=
  9.64E-23  5.52E-23  6.51E-23  6.65E-23
 -3.2621E-01 -1.9104E-01 -9.3313E-02 -5.1908E-02
 Non-SCF case, kpt   22 ( -0.25000  0.50000  0.00000), residuals and eigenvalues=
  8.60E-23  4.61E-23  5.10E-23  4.38E-23
 -3.2621E-01 -1.9104E-01 -9.3313E-02 -5.1908E-02
 Non-SCF case, kpt   23 (  0.00000  0.00000  0.25000), residuals and eigenvalues=
  3.51E-23  5.75E-23  4.21E-23  3.16E-23
 -3.7902E-01 -1.0860E-01 -2.9519E-03 -2.9519E-03
 Non-SCF case, kpt   24 (  0.00000  0.25000  0.00000), residuals and eigenvalues=
  4.21E-23  5.62E-23  6.08E-23  2.13E-23
 -3.7902E-01 -1.0860E-01 -2.9519E-03 -2.9519E-03
 Non-SCF case, kpt   25 ( -0.25000  0.00000  0.50000), residuals and eigenvalues=
  2.48E-23  5.12E-23  4.50E-23  7.90E-23
 -3.2621E-01 -1.9104E-01 -9.3313E-02 -5.1908E-02
 Non-SCF case, kpt   26 ( -0.50000  0.50000  0.25000), residuals and eigenvalues=
  3.65E-23  5.06E-23  2.00E-23  7.81E-23
 -3.2621E-01 -1.9104E-01 -9.3313E-02 -5.1908E-02
 Non-SCF case, kpt   27 (  0.25000  0.75000  0.25000), residuals and eigenvalues=
  8.72E-23  3.77E-23  5.52E-23  4.65E-23
 -3.2621E-01 -1.9104E-01 -9.3313E-02 -5.1908E-02
 Non-SCF case, kpt   28 (  0.25000  0.25000  0.75000), residuals and eigenvalues=
  3.56E-23  6.52E-23  1.44E-23  5.25E-23
 -3.2621E-01 -1.9104E-01 -9.3313E-02 -5.1908E-02
 Non-SCF case, kpt   29 ( -0.25000  0.75000  0.75000), residuals and eigenvalues=
  3.02E-23  3.38E-23  9.94E-24  9.61E-23
 -3.7902E-01 -1.0860E-01 -2.9519E-03 -2.9519E-03
 Non-SCF case, kpt   30 ( -0.25000  0.25000  0.75000), residuals and eigenvalues=
  8.72E-23  3.77E-23  5.52E-23  4.65E-23
 -3.2621E-01 -1.9104E-01 -9.3313E-02 -5.1908E-02
 Non-SCF case, kpt   31 ( -0.25000  0.75000  0.25000), residuals and eigenvalues=
  3.56E-23  6.52E-23  1.44E-23  5.25E-23
 -3.2621E-01 -1.9104E-01 -9.3313E-02 -5.1908E-02
 Non-SCF case, kpt   32 (  0.25000  0.25000  0.25000), residuals and eigenvalues=
  3.02E-23  3.38E-23  9.94E-24  9.61E-23
 -3.7902E-01 -1.0860E-01 -2.9519E-03 -2.9519E-03
================================================================================

 ----iterations are completed or convergence reached----

 Mean square residual over all n,k,spin=   5.1700E-23; max=  9.6396E-23
   0.2500  0.7500  0.7500    1  7.19531E-23 kpt; spin; max resid(k); each band:
  7.20E-23 3.14E-23 4.35E-23 4.64E-23
  -0.2500  0.2500  0.2500    1  7.19565E-23 kpt; spin; max resid(k); each band:
  7.20E-23 3.14E-23 4.35E-23 4.64E-23
   0.0000  0.5000  0.7500    1  9.06688E-23 kpt; spin; max resid(k); each band:
  3.18E-23 4.83E-23 9.07E-23 5.64E-23
   0.0000  0.7500  0.5000    1  7.37000E-23 kpt; spin; max resid(k); each band:
  2.45E-23 4.65E-23 5.53E-23 7.37E-23
   0.2500  0.5000  0.5000    1  7.61788E-23 kpt; spin; max resid(k); each band:
  7.62E-23 2.78E-23 1.97E-23 6.32E-23
   0.0000  0.5000  0.2500    1  9.06678E-23 kpt; spin; max resid(k); each band:
  3.18E-23 4.83E-23 9.07E-23 5.64E-23
   0.0000  0.2500  0.5000    1  7.36984E-23 kpt; spin; max resid(k); each band:
  2.45E-23 4.65E-23 5.53E-23 7.37E-23
  -0.2500  0.5000  0.5000    1  7.61793E-23 kpt; spin; max resid(k); each band:
  7.62E-23 2.78E-23 1.97E-23 6.32E-23
   0.5000  1.0000  0.7500    1  8.78350E-23 kpt; spin; max resid(k); each band:
  8.28E-23 4.02E-23 8.78E-23 8.78E-23
   0.5000  0.7500  1.0000    1  7.40360E-23 kpt; spin; max resid(k); each band:
  7.40E-23 3.33E-23 5.85E-23 6.99E-23
   0.2500  1.0000  1.0000    1  5.93721E-23 kpt; spin; max resid(k); each band:
  4.08E-23 5.94E-23 2.47E-23 3.58E-23
  -0.5000  0.0000  0.2500    1  8.78359E-23 kpt; spin; max resid(k); each band:
  8.28E-23 4.02E-23 8.78E-23 8.78E-23
  -0.5000  0.2500  0.0000    1  7.40356E-23 kpt; spin; max resid(k); each band:
  7.40E-23 3.33E-23 5.85E-23 6.99E-23
  -0.2500  0.0000  0.0000    1  5.93714E-23 kpt; spin; max resid(k); each band:
  4.08E-23 5.94E-23 2.47E-23 3.58E-23
   0.5000  0.7500  0.5000    1  9.63958E-23 kpt; spin; max resid(k); each band:
  9.64E-23 5.52E-23 6.51E-23 6.65E-23
   0.2500  0.5000  1.0000    1  8.59733E-23 kpt; spin; max resid(k); each band:
  8.60E-23 4.61E-23 5.10E-23 4.38E-23
   0.0000  1.0000  0.7500    1  5.75501E-23 kpt; spin; max resid(k); each band:
  3.51E-23 5.76E-23 4.21E-23 3.16E-23
   0.0000  0.7500  1.0000    1  6.08226E-23 kpt; spin; max resid(k); each band:
  4.21E-23 5.62E-23 6.08E-23 2.13E-23
   0.2500  1.0000  0.5000    1  7.89649E-23 kpt; spin; max resid(k); each band:
  2.48E-23 5.12E-23 4.50E-23 7.90E-23
   0.5000  0.5000  0.7500    1  7.81484E-23 kpt; spin; max resid(k); each band:
  3.65E-23 5.06E-23 2.00E-23 7.81E-23
  -0.5000  0.2500  0.5000    1  9.63945E-23 kpt; spin; max resid(k); each band:
  9.64E-23 5.52E-23 6.51E-23 6.65E-23
  -0.2500  0.5000  0.0000    1  8.59734E-23 kpt; spin; max resid(k); each band:
  8.60E-23 4.61E-23 5.10E-23 4.38E-23
   0.0000  0.0000  0.2500    1  5.75491E-23 kpt; spin; max resid(k); each band:
  3.51E-23 5.75E-23 4.21E-23 3.16E-23
   0.0000  0.2500  0.0000    1  6.08222E-23 kpt; spin; max resid(k); each band:
  4.21E-23 5.62E-23 6.08E-23 2.13E-23
  -0.2500  0.0000  0.5000    1  7.89637E-23 kpt; spin; max resid(k); each band:
  2.48E-23 5.12E-23 4.50E-23 7.90E-23
  -0.5000  0.5000  0.2500    1  7.81482E-23 kpt; spin; max resid(k); each band:
  3.65E-23 5.06E-23 2.00E-23 7.81E-23
   0.2500  0.7500  0.2500    1  8.72210E-23 kpt; spin; max resid(k); each band:
  8.72E-23 3.77E-23 5.52E-23 4.65E-23
   0.2500  0.2500  0.7500    1  6.51927E-23 kpt; spin; max resid(k); each band:
  3.56E-23 6.52E-23 1.44E-23 5.25E-23
  -0.2500  0.7500  0.7500    1  9.60734E-23 kpt; spin; max resid(k); each band:
  3.02E-23 3.38E-23 9.94E-24 9.61E-23
  -0.2500  0.2500  0.7500    1  8.72192E-23 kpt; spin; max resid(k); each band:
  8.72E-23 3.77E-23 5.52E-23 4.65E-23
  -0.2500  0.7500  0.2500    1  6.51919E-23 kpt; spin; max resid(k); each band:
  3.56E-23 6.52E-23 1.44E-23 5.25E-23
   0.2500  0.2500  0.2500    1  9.60714E-23 kpt; spin; max resid(k); each band:
  3.02E-23 3.38E-23 9.94E-24 9.61E-23
 reduced coordinates (array xred) for    2 atoms
       0.000000000000      0.000000000000      0.000000000000
       0.250000000000      0.250000000000      0.250000000000

 cartesian coordinates (angstrom) at end:
    1      0.00000000000000     0.00000000000000     0.00000000000000
    2      1.40231960276350     1.40231960276350     1.40231960276350
 length scales= 10.600000000000 10.600000000000 10.600000000000 bohr
              =  5.609278411054  5.609278411054  5.609278411054 angstroms
 prteigrs : about to open file t07o_DS3_EIG
 Eigenvalues (hartree) for nkpt=  32  k points:
 kpt#   1, nband=  4, wtk=  1.00000, kpt=  0.2500  0.7500  0.7500 (reduced coord)
  -0.32621  -0.19104  -0.09331  -0.05191
 kpt#   2, nband=  4, wtk=  1.00000, kpt= -0.2500  0.2500  0.2500 (reduced coord)
  -0.32621  -0.19104  -0.09331  -0.05191
 kpt#   3, nband=  4, wtk=  1.00000, kpt=  0.0000  0.5000  0.7500 (reduced coord)
  -0.32621  -0.19104  -0.09331  -0.05191
 kpt#   4, nband=  4, wtk=  1.00000, kpt=  0.0000  0.7500  0.5000 (reduced coord)
  -0.32621  -0.19104  -0.09331  -0.05191
 kpt#   5, nband=  4, wtk=  1.00000, kpt=  0.2500  0.5000  0.5000 (reduced coord)
  -0.32621  -0.19104  -0.09331  -0.05191
 kpt#   6, nband=  4, wtk=  1.00000, kpt=  0.0000  0.5000  0.2500 (reduced coord)
  -0.32621  -0.19104  -0.09331  -0.05191
 kpt#   7, nband=  4, wtk=  1.00000, kpt=  0.0000  0.2500  0.5000 (reduced coord)
  -0.32621  -0.19104  -0.09331  -0.05191
 kpt#   8, nband=  4, wtk=  1.00000, kpt= -0.2500  0.5000  0.5000 (reduced coord)
  -0.32621  -0.19104  -0.09331  -0.05191
 kpt#   9, nband=  4, wtk=  1.00000, kpt=  0.5000  1.0000  0.7500 (reduced coord)
  -0.32621  -0.19104  -0.09331  -0.05191
 kpt#  10, nband=  4, wtk=  1.00000, kpt=  0.5000  0.7500  1.0000 (reduced coord)
  -0.32621  -0.19104  -0.09331  -0.05191
 kpt#  11, nband=  4, wtk=  1.00000, kpt=  0.2500  1.0000  1.0000 (reduced coord)
  -0.37902  -0.10860  -0.00295  -0.00295
 kpt#  12, nband=  4, wtk=  1.00000, kpt= -0.5000  0.0000  0.2500 (reduced coord)
  -0.32621  -0.19104  -0.09331  -0.05191
 kpt#  13, nband=  4, wtk=  1.00000, kpt= -0.5000  0.2500  0.0000 (reduced coord)
  -0.32621  -0.19104  -0.09331  -0.05191
 kpt#  14, nband=  4, wtk=  1.00000, kpt= -0.2500  0.0000  0.0000 (reduced coord)
  -0.37902  -0.10860  -0.00295  -0.00295
 kpt#  15, nband=  4, wtk=  1.00000, kpt=  0.5000  0.7500  0.5000 (reduced coord)
  -0.32621  -0.19104  -0.09331  -0.05191
 kpt#  16, nband=  4, wtk=  1.00000, kpt=  0.2500  0.5000  1.0000 (reduced coord)
  -0.32621  -0.19104  -0.09331  -0.05191
 kpt#  17, nband=  4, wtk=  1.00000, kpt=  0.0000  1.0000  0.7500 (reduced coord)
  -0.37902  -0.10860  -0.00295  -0.00295
 kpt#  18, nband=  4, wtk=  1.00000, kpt=  0.0000  0.7500  1.0000 (reduced coord)
  -0.37902  -0.10860  -0.00295  -0.00295
 kpt#  19, nband=  4, wtk=  1.00000, kpt=  0.2500  1.0000  0.5000 (reduced coord)
  -0.32621  -0.19104  -0.09331  -0.05191
 kpt#  20, nband=  4, wtk=  1.00000, kpt=  0.5000  0.5000  0.7500 (reduced coord)
  -0.32621  -0.19104  -0.09331  -0.05191
 kpt#  21, nband=  4, wtk=  1.00000, kpt= -0.5000  0.2500  0.5000 (reduced coord)
  -0.32621  -0.19104  -0.09331  -0.05191
 kpt#  22, nband=  4, wtk=  1.00000, kpt= -0.2500  0.5000  0.0000 (reduced coord)
  -0.32621  -0.19104  -0.09331  -0.05191
 kpt#  23, nband=  4, wtk=  1.00000, kpt=  0.0000  0.0000  0.2500 (reduced coord)
  -0.37902  -0.10860  -0.00295  -0.00295
 kpt#  24, nband=  4, wtk=  1.00000, kpt=  0.0000  0.2500  0.0000 (reduced coord)
  -0.37902  -0.10860  -0.00295  -0.00295
 kpt#  25, nband=  4, wtk=  1.00000, kpt= -0.2500  0.0000  0.5000 (reduced coord)
  -0.32621  -0.19104  -0.09331  -0.05191
 kpt#  26, nband=  4, wtk=  1.00000, kpt= -0.5000  0.5000  0.2500 (reduced coord)
  -0.32621  -0.19104  -0.09331  -0.05191
 kpt#  27, nband=  4, wtk=  1.00000, kpt=  0.2500  0.7500  0.2500 (reduced coord)
  -0.32621  -0.19104  -0.09331  -0.05191
 kpt#  28, nband=  4, wtk=  1.00000, kpt=  0.2500  0.2500  0.7500 (reduced coord)
  -0.32621  -0.19104  -0.09331  -0.05191
 kpt#  29, nband=  4, wtk=  1.00000, kpt= -0.2500  0.7500  0.7500 (reduced coord)
  -0.37902  -0.10860  -0.00295  -0.00295
 kpt#  30, nband=  4, wtk=  1.00000, kpt= -0.2500  0.2500  0.7500 (reduced coord)
  -0.32621  -0.19104  -0.09331  -0.05191
 kpt#  31, nband=  4, wtk=  1.00000, kpt= -0.2500  0.7500  0.2500 (reduced coord)
  -0.32621  -0.19104  -0.09331  -0.05191
 kpt#  32, nband=  4, wtk=  1.00000, kpt=  0.2500  0.2500  0.2500 (reduced coord)
  -0.37902  -0.10860  -0.00295  -0.00295
 Total charge density [el/Bohr^3]
,     Maximum=    8.8162E-02  at reduced coord.    0.1667    0.1667    0.5000
,Next maximum=    8.8162E-02  at reduced coord.    0.1667    0.5000    0.1667
,     Minimum=    2.3676E-03  at reduced coord.    0.7500    0.7500    0.7500
,Next minimum=    2.7397E-03  at reduced coord.    0.7500    0.7500    0.6667
,  Integrated=    8.0000E+00

================================================================================
== DATASET  4 ==================================================================
-   nproc =    1

 mkfilename : getwfk/=0, take file _WFK from output of DATASET   2.

 mkfilename : getwfq/=0, take file _WFQ from output of DATASET   3.

 Exchange-correlation functional for the present dataset will be:
  LDA: old Teter (4/91) fit to Ceperley-Alder data - ixc=3

 Real(R)+Recip(G) space primitive vectors, cartesian coordinates (Bohr,Bohr^-1):
 R(1)=  0.0000000  5.3000000  5.3000000  G(1)= -0.0943396  0.0943396  0.0943396
 R(2)=  5.3000000  0.0000000  5.3000000  G(2)=  0.0943396 -0.0943396  0.0943396
 R(3)=  5.3000000  5.3000000  0.0000000  G(3)=  0.0943396  0.0943396 -0.0943396
 Unit cell volume ucvol=  2.9775400E+02 bohr^3
 Angles (23,13,12)=  6.00000000E+01  6.00000000E+01  6.00000000E+01 degrees
 setup1 : take into account q-point for computing boxcut.

 getcut: wavevector=  0.0000  0.5000  0.5000  ngfft=  12  12  12
         ecut(hartree)=      3.000   => boxcut(ratio)=   1.89001

--- Pseudopotential description ------------------------------------------------
- pspini: atom type   1  psp file is /home/gonze/ABINIT/ABINITv7.10.4/trunk/7.10.4-private/tests/Psps_for_tests/31ga.SGS_mod
- pspatm: opening atomic psp file    /home/gonze/ABINIT/ABINITv7.10.4/trunk/7.10.4-private/tests/Psps_for_tests/31ga.SGS_mod
-   pspot from prpsa - Bachelet or Stumpf table ( !! OLD, only for tests )
- 31.00000   3.00000    900101                znucl, zion, pspdat
    5    3    2    2       267   0.00000      pspcod,pspxc,lmax,lloc,mmax,r2well
    3.225807E-04    4.879035E-02              r1 and al (Hamman grid)
    0   0.000   0.000    1   1.2712000        l,e99.0,e99.9,nproj,rcpsp
   0.00000000   0.00000000   0.00000000   0.00000000     rms, ekb1, ekb2, epsatm
    1   0.000   0.000    1   1.4316000        l,e99.0,e99.9,nproj,rcpsp
   0.00000000   0.00000000   0.00000000   0.00000000     rms, ekb1, ekb2, epsatm
    2   0.000   0.000    0   1.4889000        l,e99.0,e99.9,nproj,rcpsp
   0.00000000   0.00000000   0.00000000   0.00000000     rms, ekb1, ekb2, epsatm
    0.00000000000000    0.00000000000000    0.00000000000000   rchrg,fchrg,qchrg
 pspatm: epsatm=   19.73612150
         --- l  ekb(1:nproj) -->
             0    9.397339
             1   -0.525725
 pspatm: atomic psp has been read  and splines computed

- pspini: atom type   2  psp file is /home/gonze/ABINIT/ABINITv7.10.4/trunk/7.10.4-private/tests/Psps_for_tests/33as.SGS_mod
- pspatm: opening atomic psp file    /home/gonze/ABINIT/ABINITv7.10.4/trunk/7.10.4-private/tests/Psps_for_tests/33as.SGS_mod
-   pspot from prpsa - Bachelet or Stumpf table ( !! OLD, for testing purposes only )
- 33.00000   5.00000    900101                znucl, zion, pspdat
    5    3    2    2       269   0.00000      pspcod,pspxc,lmax,lloc,mmax,r2well
    3.030304E-04    4.879035E-02              r1 and al (Hamman grid)
    0   0.000   0.000    1   1.0000000        l,e99.0,e99.9,nproj,rcpsp
   0.00000000   0.00000000   0.00000000   0.00000000     rms, ekb1, ekb2, epsatm
    1   0.000   0.000    1   1.0000000        l,e99.0,e99.9,nproj,rcpsp
   0.00000000   0.00000000   0.00000000   0.00000000     rms, ekb1, ekb2, epsatm
    2   0.000   0.000    0   1.0000000        l,e99.0,e99.9,nproj,rcpsp
   0.00000000   0.00000000   0.00000000   0.00000000     rms, ekb1, ekb2, epsatm
    0.00000000000000    0.00000000000000    0.00000000000000   rchrg,fchrg,qchrg
 pspatm: epsatm=   26.05495600
         --- l  ekb(1:nproj) -->
             0    9.019459
             1   -0.908274
 pspatm: atomic psp has been read  and splines computed

--------------------------------------------------------------------------------

-inwffil : will read wavefunctions from disk file t07o_DS2_WFK
- newkpt: read input wf with ikpt,npw=   1      68, make ikpt,npw=   1      68
- newkpt: read input wf with ikpt,npw=   2      68, make ikpt,npw=   2      68
- newkpt: read input wf with ikpt,npw=   3      68, make ikpt,npw=   3      68
- newkpt: read input wf with ikpt,npw=   4      68, make ikpt,npw=   4      68
- newkpt: read input wf with ikpt,npw=   5      68, make ikpt,npw=   5      68
- newkpt: read input wf with ikpt,npw=   6      68, make ikpt,npw=   6      68
- newkpt: read input wf with ikpt,npw=   7      68, make ikpt,npw=   7      68
- newkpt: read input wf with ikpt,npw=   8      68, make ikpt,npw=   8      68
- newkpt: read input wf with ikpt,npw=   9      74, make ikpt,npw=   9      74
- newkpt: read input wf with ikpt,npw=  10      74, make ikpt,npw=  10      74
- newkpt: read input wf with ikpt,npw=  11      74, make ikpt,npw=  11      74
- newkpt: read input wf with ikpt,npw=  12      74, make ikpt,npw=  12      74
- newkpt: read input wf with ikpt,npw=  13      74, make ikpt,npw=  13      74
- newkpt: read input wf with ikpt,npw=  14      74, make ikpt,npw=  14      74
- newkpt: read input wf with ikpt,npw=  15      74, make ikpt,npw=  15      74
- newkpt: read input wf with ikpt,npw=  16      74, make ikpt,npw=  16      74
- newkpt: read input wf with ikpt,npw=  17      74, make ikpt,npw=  17      74
- newkpt: read input wf with ikpt,npw=  18      74, make ikpt,npw=  18      74
- newkpt: read input wf with ikpt,npw=  19      74, make ikpt,npw=  19      74
- newkpt: read input wf with ikpt,npw=  20      74, make ikpt,npw=  20      74
- newkpt: read input wf with ikpt,npw=  21      74, make ikpt,npw=  21      74
- newkpt: read input wf with ikpt,npw=  22      74, make ikpt,npw=  22      74
- newkpt: read input wf with ikpt,npw=  23      74, make ikpt,npw=  23      74
- newkpt: read input wf with ikpt,npw=  24      74, make ikpt,npw=  24      74
- newkpt: read input wf with ikpt,npw=  25      74, make ikpt,npw=  25      74
- newkpt: read input wf with ikpt,npw=  26      74, make ikpt,npw=  26      74
- newkpt: read input wf with ikpt,npw=  27      74, make ikpt,npw=  27      74
- newkpt: read input wf with ikpt,npw=  28      74, make ikpt,npw=  28      74
- newkpt: read input wf with ikpt,npw=  29      74, make ikpt,npw=  29      74
- newkpt: read input wf with ikpt,npw=  30      74, make ikpt,npw=  30      74
- newkpt: read input wf with ikpt,npw=  31      74, make ikpt,npw=  31      74
- newkpt: read input wf with ikpt,npw=  32      74, make ikpt,npw=  32      74


 ==>  initialize data related to q vector <== 

 The list of irreducible perturbations for this q vector is:
    1)    idir= 1    ipert=   1
    2)    idir= 2    ipert=   1
    3)    idir= 1    ipert=   2
    4)    idir= 2    ipert=   2

================================================================================

 The perturbation idir=   3  ipert=   1 is
 symmetric of a previously calculated perturbation.
 So, its SCF calculation is not needed.


 The perturbation idir=   3  ipert=   2 is
 symmetric of a previously calculated perturbation.
 So, its SCF calculation is not needed.


--------------------------------------------------------------------------------
 Perturbation wavevector (in red.coord.)   0.000000  0.500000  0.500000
 Perturbation : displacement of atom   1   along direction   1
 Found     2 symmetries that leave the perturbation invariant.
 symkpt : the number of k-points, thanks to the symmetries,
 is reduced to    20 .

--------------------------------------------------------------------------------

-inwffil : will read wavefunctions from disk file t07o_DS2_WFK
- newkpt: read input wf with ikpt,npw=   1      68, make ikpt,npw=   1      68
- newkpt: read input wf with ikpt,npw=   2      68, make ikpt,npw=   2      68
- newkpt: read input wf with ikpt,npw=   3      68, make ikpt,npw=   3      68
- newkpt: read input wf with ikpt,npw=   5      68, make ikpt,npw=   4      68
- newkpt: read input wf with ikpt,npw=   6      68, make ikpt,npw=   5      68
- newkpt: read input wf with ikpt,npw=   8      68, make ikpt,npw=   6      68
- newkpt: read input wf with ikpt,npw=   9      74, make ikpt,npw=   7      74
- newkpt: read input wf with ikpt,npw=  11      74, make ikpt,npw=   8      74
- newkpt: read input wf with ikpt,npw=  12      74, make ikpt,npw=   9      74
- newkpt: read input wf with ikpt,npw=  14      74, make ikpt,npw=  10      74
- newkpt: read input wf with ikpt,npw=  15      74, make ikpt,npw=  11      74
- newkpt: read input wf with ikpt,npw=  16      74, make ikpt,npw=  12      74
- newkpt: read input wf with ikpt,npw=  17      74, make ikpt,npw=  13      74
- newkpt: read input wf with ikpt,npw=  21      74, make ikpt,npw=  14      74
- newkpt: read input wf with ikpt,npw=  22      74, make ikpt,npw=  15      74
- newkpt: read input wf with ikpt,npw=  23      74, make ikpt,npw=  16      74
- newkpt: read input wf with ikpt,npw=  27      74, make ikpt,npw=  17      74
- newkpt: read input wf with ikpt,npw=  29      74, make ikpt,npw=  18      74
- newkpt: read input wf with ikpt,npw=  30      74, make ikpt,npw=  19      74
- newkpt: read input wf with ikpt,npw=  32      74, make ikpt,npw=  20      74

--------------------------------------------------------------------------------

-inwffil : will read wavefunctions from disk file t07o_DS3_WFQ
- newkpt: read input wf with ikpt,npw=   1      74, make ikpt,npw=   1      74
- newkpt: read input wf with ikpt,npw=   2      74, make ikpt,npw=   2      74
- newkpt: read input wf with ikpt,npw=   3      74, make ikpt,npw=   3      74
- newkpt: read input wf with ikpt,npw=   5      74, make ikpt,npw=   4      74
- newkpt: read input wf with ikpt,npw=   6      74, make ikpt,npw=   5      74
- newkpt: read input wf with ikpt,npw=   8      74, make ikpt,npw=   6      74
- newkpt: read input wf with ikpt,npw=   9      74, make ikpt,npw=   7      74
- newkpt: read input wf with ikpt,npw=  11      68, make ikpt,npw=   8      68
- newkpt: read input wf with ikpt,npw=  12      74, make ikpt,npw=   9      74
- newkpt: read input wf with ikpt,npw=  14      68, make ikpt,npw=  10      68
- newkpt: read input wf with ikpt,npw=  15      74, make ikpt,npw=  11      74
- newkpt: read input wf with ikpt,npw=  16      74, make ikpt,npw=  12      74
- newkpt: read input wf with ikpt,npw=  17      68, make ikpt,npw=  13      68
- newkpt: read input wf with ikpt,npw=  21      74, make ikpt,npw=  14      74
- newkpt: read input wf with ikpt,npw=  22      74, make ikpt,npw=  15      74
- newkpt: read input wf with ikpt,npw=  23      68, make ikpt,npw=  16      68
- newkpt: read input wf with ikpt,npw=  27      74, make ikpt,npw=  17      74
- newkpt: read input wf with ikpt,npw=  29      68, make ikpt,npw=  18      68
- newkpt: read input wf with ikpt,npw=  30      74, make ikpt,npw=  19      74
- newkpt: read input wf with ikpt,npw=  32      68, make ikpt,npw=  20      68

 Initialisation of the first-order wave-functions :
  ireadwf=   0
P newkpt: treating      4 bands with npw=      74 for ikpt=   1 by node    0
P newkpt: treating      4 bands with npw=      74 for ikpt=   2 by node    0
P newkpt: treating      4 bands with npw=      74 for ikpt=   3 by node    0
P newkpt: treating      4 bands with npw=      74 for ikpt=   4 by node    0
P newkpt: treating      4 bands with npw=      74 for ikpt=   5 by node    0
P newkpt: treating      4 bands with npw=      74 for ikpt=   6 by node    0
P newkpt: treating      4 bands with npw=      74 for ikpt=   7 by node    0
P newkpt: treating      4 bands with npw=      68 for ikpt=   8 by node    0
P newkpt: treating      4 bands with npw=      74 for ikpt=   9 by node    0
P newkpt: treating      4 bands with npw=      68 for ikpt=  10 by node    0
P newkpt: treating      4 bands with npw=      74 for ikpt=  11 by node    0
P newkpt: treating      4 bands with npw=      74 for ikpt=  12 by node    0
P newkpt: treating      4 bands with npw=      68 for ikpt=  13 by node    0
P newkpt: treating      4 bands with npw=      74 for ikpt=  14 by node    0
P newkpt: treating      4 bands with npw=      74 for ikpt=  15 by node    0
P newkpt: treating      4 bands with npw=      68 for ikpt=  16 by node    0
P newkpt: treating      4 bands with npw=      74 for ikpt=  17 by node    0
P newkpt: treating      4 bands with npw=      68 for ikpt=  18 by node    0
P newkpt: treating      4 bands with npw=      74 for ikpt=  19 by node    0
P newkpt: treating      4 bands with npw=      68 for ikpt=  20 by node    0


     iter   2DEtotal(Ha)        deltaE(Ha) residm    vres2

-ETOT  1   15.465791421845     -2.387E+01 2.838E-01 1.704E+03

 ETOT  2   4.4669158491965     -1.100E+01 5.631E-02 7.571E+00

 ETOT  3   4.3804219032880     -8.649E-02 4.532E-04 6.879E-01

 ETOT  4   4.3774266056857     -2.995E-03 3.440E-05 3.603E-02

 ETOT  5   4.3773027955661     -1.238E-04 7.148E-07 1.263E-03

 ETOT  6   4.3772964406993     -6.355E-06 6.859E-08 2.573E-05

 ETOT  7   4.3772962301566     -2.105E-07 1.528E-09 7.651E-07

 ETOT  8   4.3772962271213     -3.035E-09 4.018E-11 5.798E-08

 ETOT  9   4.3772962269419     -1.795E-10 1.943E-12 8.158E-10

 ETOT 10   4.3772962269370     -4.832E-12 5.082E-14 1.073E-11

 ETOT 11   4.3772962269368     -2.629E-13 1.971E-15 4.755E-13

 At SCF step   11   max residual=  1.97E-15 < tolwfr=  2.00E-15 =>converged.
================================================================================

 ----iterations are completed or convergence reached----

 Mean square residual over all n,k,spin=   9.5348E-16; max=  1.9706E-15
   0.2500  0.2500  0.2500    1  1.94614E-15 kpt; spin; max resid(k); each band:
  1.94E-15 3.29E-16 1.95E-15 1.74E-15
  -0.2500 -0.2500 -0.2500    1  1.93342E-15 kpt; spin; max resid(k); each band:
  1.89E-15 3.31E-16 1.93E-15 1.70E-15
   0.0000  0.0000  0.2500    1  1.43060E-15 kpt; spin; max resid(k); each band:
  1.43E-15 2.70E-16 3.63E-16 1.18E-15
   0.2500  0.0000  0.0000    1  1.84813E-15 kpt; spin; max resid(k); each band:
  1.85E-15 1.38E-15 4.70E-16 1.24E-15
   0.0000  0.0000 -0.2500    1  1.17508E-15 kpt; spin; max resid(k); each band:
  9.16E-16 2.71E-16 3.65E-16 1.18E-15
  -0.2500  0.0000  0.0000    1  1.85324E-15 kpt; spin; max resid(k); each band:
  1.85E-15 1.38E-15 4.47E-16 1.23E-15
   0.5000  0.5000  0.2500    1  1.04762E-15 kpt; spin; max resid(k); each band:
  3.24E-16 2.22E-16 1.05E-15 6.22E-16
   0.2500  0.5000  0.5000    1  1.80048E-15 kpt; spin; max resid(k); each band:
  1.80E-15 9.30E-16 9.72E-16 2.62E-16
  -0.5000 -0.5000 -0.2500    1  1.06788E-15 kpt; spin; max resid(k); each band:
  3.25E-16 2.24E-16 1.07E-15 6.17E-16
  -0.2500 -0.5000 -0.5000    1  1.80530E-15 kpt; spin; max resid(k); each band:
  1.81E-15 8.75E-16 9.33E-16 2.55E-16
   0.5000  0.2500  0.0000    1  1.45772E-15 kpt; spin; max resid(k); each band:
  2.67E-16 1.46E-15 8.08E-16 6.28E-16
[...]
   2    1   3    2        -0.0520721830         0.0000001623
  
   3    1   1    1        -0.0000000000        -0.0000000000
   3    1   2    1        -0.0000000000        -0.0000000000
   3    1   3    1         0.0779154405         0.0000000397
   3    1   1    2        -0.0000000000         0.0000000000
   3    1   2    2        -0.0520721830         0.0000001623
   3    1   3    2         0.0000000000         0.0000000000
  
   1    2   1    1         0.0000000000        -0.0000000000
   1    2   2    1        -0.0000000000         0.0000000000
   1    2   3    1        -0.0000000000        -0.0000000000
   1    2   1    2         0.1363731714         0.0000000286
   1    2   2    2         0.0000000000        -0.0000000000
   1    2   3    2         0.0000000000        -0.0000000000
  
   2    2   1    1        -0.0000000000         0.0000000000
   2    2   2    1         0.0000000000        -0.0000000000
   2    2   3    1        -0.0520714331        -0.0000003294
   2    2   1    2         0.0000000000        -0.0000000000
   2    2   2    2         0.1031966661         0.0000000143
   2    2   3    2        -0.0000000000         0.0000000000
  
   3    2   1    1        -0.0000000000        -0.0000000000
   3    2   2    1        -0.0520714331        -0.0000003294
   3    2   3    1        -0.0000000000        -0.0000000000
   3    2   1    2        -0.0000000000         0.0000000000
   3    2   2    2        -0.0000000000        -0.0000000000
   3    2   3    2         0.1031966661         0.0000000143
 
  Phonon wavevector (reduced coordinates) :  0.00000  0.50000  0.50000
 Phonon energies in Hartree :
   5.317174E-04  5.317174E-04  9.992655E-04  1.042090E-03  1.042090E-03
   1.088905E-03
 Phonon frequencies in cm-1    :
-  1.166985E+02  1.166985E+02  2.193134E+02  2.287124E+02  2.287124E+02
-  2.389870E+02

== END DATASET(S) ==============================================================
================================================================================
  
 -outvars: echo values of variables after computation  --------
            acell      1.0600000000E+01  1.0600000000E+01  1.0600000000E+01 Bohr
              amu      6.97200000E+01  7.49216000E+01
           diemac      1.00000000E+01
             ecut      3.00000000E+00 Hartree
           etotal1    -8.4801676683E+00
           etotal4     6.7288013961E+00
            fcart1    -0.0000000000E+00 -0.0000000000E+00 -0.0000000000E+00
                      -0.0000000000E+00 -0.0000000000E+00 -0.0000000000E+00
            fcart4     0.0000000000E+00  0.0000000000E+00  0.0000000000E+00
                       0.0000000000E+00  0.0000000000E+00  0.0000000000E+00
-          fftalg         112
           getden1          0
           getden2          1
           getden3          1
           getden4          0
           getwfk1          0
           getwfk2          1
           getwfk3          2
           getwfk4          2
           getwfq1          0
           getwfq2          0
           getwfq3          0
           getwfq4          3
             iscf1          3
             iscf2         -2
             iscf3         -2
             iscf4          3
              ixc           3
           jdtset        1    2    3    4
              kpt1     2.50000000E-01  2.50000000E-01  2.50000000E-01
                       2.50000000E-01  5.00000000E-01  5.00000000E-01
              kpt2     2.50000000E-01  2.50000000E-01  2.50000000E-01
                      -2.50000000E-01 -2.50000000E-01 -2.50000000E-01
                       0.00000000E+00  0.00000000E+00  2.50000000E-01
                       0.00000000E+00  2.50000000E-01  0.00000000E+00
                       2.50000000E-01  0.00000000E+00  0.00000000E+00
                       0.00000000E+00  0.00000000E+00 -2.50000000E-01
                       0.00000000E+00 -2.50000000E-01  0.00000000E+00
                      -2.50000000E-01  0.00000000E+00  0.00000000E+00
                       5.00000000E-01  5.00000000E-01  2.50000000E-01
                       5.00000000E-01  2.50000000E-01  5.00000000E-01
                       2.50000000E-01  5.00000000E-01  5.00000000E-01
                      -5.00000000E-01 -5.00000000E-01 -2.50000000E-01
                      -5.00000000E-01 -2.50000000E-01 -5.00000000E-01
                      -2.50000000E-01 -5.00000000E-01 -5.00000000E-01
                       5.00000000E-01  2.50000000E-01  0.00000000E+00
                       2.50000000E-01  0.00000000E+00  5.00000000E-01
                       0.00000000E+00  5.00000000E-01  2.50000000E-01
                       0.00000000E+00  2.50000000E-01  5.00000000E-01
                       2.50000000E-01  5.00000000E-01  0.00000000E+00
                       5.00000000E-01  0.00000000E+00  2.50000000E-01
                      -5.00000000E-01 -2.50000000E-01  0.00000000E+00
                      -2.50000000E-01  0.00000000E+00 -5.00000000E-01
                       0.00000000E+00 -5.00000000E-01 -2.50000000E-01
                       0.00000000E+00 -2.50000000E-01 -5.00000000E-01
                      -2.50000000E-01 -5.00000000E-01  0.00000000E+00
                      -5.00000000E-01  0.00000000E+00 -2.50000000E-01
                       2.50000000E-01  2.50000000E-01 -2.50000000E-01
                       2.50000000E-01 -2.50000000E-01  2.50000000E-01
                      -2.50000000E-01  2.50000000E-01  2.50000000E-01
                      -2.50000000E-01 -2.50000000E-01  2.50000000E-01
                      -2.50000000E-01  2.50000000E-01 -2.50000000E-01
                       2.50000000E-01 -2.50000000E-01 -2.50000000E-01
              kpt3     2.50000000E-01  2.50000000E-01  2.50000000E-01
                      -2.50000000E-01 -2.50000000E-01 -2.50000000E-01
                       0.00000000E+00  0.00000000E+00  2.50000000E-01
                       0.00000000E+00  2.50000000E-01  0.00000000E+00
                       2.50000000E-01  0.00000000E+00  0.00000000E+00
                       0.00000000E+00  0.00000000E+00 -2.50000000E-01
                       0.00000000E+00 -2.50000000E-01  0.00000000E+00
                      -2.50000000E-01  0.00000000E+00  0.00000000E+00
                       5.00000000E-01  5.00000000E-01  2.50000000E-01
                       5.00000000E-01  2.50000000E-01  5.00000000E-01
                       2.50000000E-01  5.00000000E-01  5.00000000E-01
                      -5.00000000E-01 -5.00000000E-01 -2.50000000E-01
                      -5.00000000E-01 -2.50000000E-01 -5.00000000E-01
                      -2.50000000E-01 -5.00000000E-01 -5.00000000E-01
                       5.00000000E-01  2.50000000E-01  0.00000000E+00
                       2.50000000E-01  0.00000000E+00  5.00000000E-01
                       0.00000000E+00  5.00000000E-01  2.50000000E-01
                       0.00000000E+00  2.50000000E-01  5.00000000E-01
                       2.50000000E-01  5.00000000E-01  0.00000000E+00
                       5.00000000E-01  0.00000000E+00  2.50000000E-01
                      -5.00000000E-01 -2.50000000E-01  0.00000000E+00
                      -2.50000000E-01  0.00000000E+00 -5.00000000E-01
                       0.00000000E+00 -5.00000000E-01 -2.50000000E-01
                       0.00000000E+00 -2.50000000E-01 -5.00000000E-01
                      -2.50000000E-01 -5.00000000E-01  0.00000000E+00
                      -5.00000000E-01  0.00000000E+00 -2.50000000E-01
                       2.50000000E-01  2.50000000E-01 -2.50000000E-01
                       2.50000000E-01 -2.50000000E-01  2.50000000E-01
                      -2.50000000E-01  2.50000000E-01  2.50000000E-01
                      -2.50000000E-01 -2.50000000E-01  2.50000000E-01
                      -2.50000000E-01  2.50000000E-01 -2.50000000E-01
                       2.50000000E-01 -2.50000000E-01 -2.50000000E-01
              kpt4     2.50000000E-01  2.50000000E-01  2.50000000E-01
                      -2.50000000E-01 -2.50000000E-01 -2.50000000E-01
                       0.00000000E+00  0.00000000E+00  2.50000000E-01
                       0.00000000E+00  2.50000000E-01  0.00000000E+00
                       2.50000000E-01  0.00000000E+00  0.00000000E+00
                       0.00000000E+00  0.00000000E+00 -2.50000000E-01
                       0.00000000E+00 -2.50000000E-01  0.00000000E+00
                      -2.50000000E-01  0.00000000E+00  0.00000000E+00
                       5.00000000E-01  5.00000000E-01  2.50000000E-01
                       5.00000000E-01  2.50000000E-01  5.00000000E-01
                       2.50000000E-01  5.00000000E-01  5.00000000E-01
                      -5.00000000E-01 -5.00000000E-01 -2.50000000E-01
                      -5.00000000E-01 -2.50000000E-01 -5.00000000E-01
                      -2.50000000E-01 -5.00000000E-01 -5.00000000E-01
                       5.00000000E-01  2.50000000E-01  0.00000000E+00
                       2.50000000E-01  0.00000000E+00  5.00000000E-01
                       0.00000000E+00  5.00000000E-01  2.50000000E-01
                       0.00000000E+00  2.50000000E-01  5.00000000E-01
                       2.50000000E-01  5.00000000E-01  0.00000000E+00
                       5.00000000E-01  0.00000000E+00  2.50000000E-01
                      -5.00000000E-01 -2.50000000E-01  0.00000000E+00
                      -2.50000000E-01  0.00000000E+00 -5.00000000E-01
                       0.00000000E+00 -5.00000000E-01 -2.50000000E-01
                       0.00000000E+00 -2.50000000E-01 -5.00000000E-01
                      -2.50000000E-01 -5.00000000E-01  0.00000000E+00
                      -5.00000000E-01  0.00000000E+00 -2.50000000E-01
                       2.50000000E-01  2.50000000E-01 -2.50000000E-01
                       2.50000000E-01 -2.50000000E-01  2.50000000E-01
                      -2.50000000E-01  2.50000000E-01  2.50000000E-01
                      -2.50000000E-01 -2.50000000E-01  2.50000000E-01
                      -2.50000000E-01  2.50000000E-01 -2.50000000E-01
                       2.50000000E-01 -2.50000000E-01 -2.50000000E-01
           kptopt           0
P           mkmem1          2
P           mkmem2         32
P           mkmem3         32
P           mkmem4         32
P          mkqmem1          2
P          mkqmem2         32
P          mkqmem3         32
P          mkqmem4         32
P          mk1mem1          2
P          mk1mem2         32
P          mk1mem3         32
P          mk1mem4         32
            natom           2
            nband1          4
            nband2          4
            nband3          4
            nband4          4
           ndtset           4
            ngfft          12      12      12
             nkpt1          2
             nkpt2         32
             nkpt3         32
             nkpt4         32
             nqpt1          0
             nqpt2          0
             nqpt3          1
             nqpt4          1
             nsym          24
           ntypat           2
              occ1     2.000000  2.000000  2.000000  2.000000
              occ4     2.000000  2.000000  2.000000  2.000000
        optdriver1          0
        optdriver2          0
        optdriver3          0
        optdriver4          1
           prtvol1          0
           prtvol2          0
           prtvol3          0
           prtvol4         10
              qpt1     0.00000000E+00  0.00000000E+00  0.00000000E+00
              qpt2     0.00000000E+00  0.00000000E+00  0.00000000E+00
              qpt3     0.00000000E+00  5.00000000E-01  5.00000000E-01
              qpt4     0.00000000E+00  5.00000000E-01  5.00000000E-01
          rfatpol1          1       1
          rfatpol2          1       1
          rfatpol3          1       1
          rfatpol4          1       2
            rfdir1          0       0       0
            rfdir2          0       0       0
            rfdir3          0       0       0
            rfdir4          1       1       1
           rfphon1          0
           rfphon2          0
           rfphon3          0
           rfphon4          1
            rprim      0.0000000000E+00  5.0000000000E-01  5.0000000000E-01
                       5.0000000000E-01  0.0000000000E+00  5.0000000000E-01
                       5.0000000000E-01  5.0000000000E-01  0.0000000000E+00
          spgroup         216
           strten1     8.6180848365E-04  8.6180848365E-04  8.6180848365E-04
                       0.0000000000E+00  0.0000000000E+00  0.0000000000E+00
           strten4     0.0000000000E+00  0.0000000000E+00  0.0000000000E+00
                       0.0000000000E+00  0.0000000000E+00  0.0000000000E+00
           symrel      1  0  0   0  1  0   0  0  1       0  1 -1   1  0 -1   0  0 -1
                       0 -1  1   0 -1  0   1 -1  0      -1  0  0  -1  0  1  -1  1  0
                       0  1  0   0  0  1   1  0  0       1  0 -1   0  0 -1   0  1 -1
                       0 -1  0   1 -1  0   0 -1  1      -1  0  1  -1  1  0  -1  0  0
                       0  0  1   1  0  0   0  1  0       0  0 -1   0  1 -1   1  0 -1
                       1 -1  0   0 -1  1   0 -1  0      -1  1  0  -1  0  0  -1  0  1
                       1  0 -1   0  1 -1   0  0 -1       0  1  0   1  0  0   0  0  1
                      -1  0  1  -1  0  0  -1  1  0       0 -1  0   0 -1  1   1 -1  0
                      -1  1  0  -1  0  1  -1  0  0       1 -1  0   0 -1  0   0 -1  1
                       0  0 -1   1  0 -1   0  1 -1       0  0  1   0  1  0   1  0  0
                       0 -1  1   1 -1  0   0 -1  0      -1  0  0  -1  1  0  -1  0  1
                       1  0  0   0  0  1   0  1  0       0  1 -1   0  0 -1   1  0 -1
           tolwfr1     1.00000000E-22
           tolwfr2     1.00000000E-22
           tolwfr3     1.00000000E-22
           tolwfr4     2.00000000E-15
            typat      1  2
              wtk1       0.25000    0.75000
              wtk2       1.00000    1.00000    1.00000    1.00000    1.00000    1.00000
                         1.00000    1.00000    1.00000    1.00000    1.00000    1.00000
                         1.00000    1.00000    1.00000    1.00000    1.00000    1.00000
                         1.00000    1.00000    1.00000    1.00000    1.00000    1.00000
                         1.00000    1.00000    1.00000    1.00000    1.00000    1.00000
                         1.00000    1.00000
              wtk3       1.00000    1.00000    1.00000    1.00000    1.00000    1.00000
                         1.00000    1.00000    1.00000    1.00000    1.00000    1.00000
                         1.00000    1.00000    1.00000    1.00000    1.00000    1.00000
                         1.00000    1.00000    1.00000    1.00000    1.00000    1.00000
                         1.00000    1.00000    1.00000    1.00000    1.00000    1.00000
                         1.00000    1.00000
              wtk4       0.03125    0.03125    0.03125    0.03125    0.03125    0.03125
                         0.03125    0.03125    0.03125    0.03125    0.03125    0.03125
                         0.03125    0.03125    0.03125    0.03125    0.03125    0.03125
                         0.03125    0.03125    0.03125    0.03125    0.03125    0.03125
                         0.03125    0.03125    0.03125    0.03125    0.03125    0.03125
                         0.03125    0.03125
           xangst      0.0000000000E+00  0.0000000000E+00  0.0000000000E+00
                       1.4023196028E+00  1.4023196028E+00  1.4023196028E+00
            xcart      0.0000000000E+00  0.0000000000E+00  0.0000000000E+00
                       2.6500000000E+00  2.6500000000E+00  2.6500000000E+00
             xred      0.0000000000E+00  0.0000000000E+00  0.0000000000E+00
                       2.5000000000E-01  2.5000000000E-01  2.5000000000E-01
            znucl       31.00000   33.00000

================================================================================


- Timing analysis has been suppressed with timopt=0



================================================================================

 Suggested references for the acknowledgment of ABINIT usage.

 The users of ABINIT have little formal obligations with respect to the ABINIT group
 (those specified in the GNU General Public License, http://www.gnu.org/copyleft/gpl.txt).
 However, it is common practice in the scientific literature,
 to acknowledge the efforts of people that have made the research possible.
 In this spirit, please find below suggested citations of work written by ABINIT developers,
 corresponding to implementations inside of ABINIT that you have used in the present run.
 Note also that it will be of great value to readers of publications presenting these results,
 to read papers enabling them to understand the theoretical formalism and details
 of the ABINIT implementation.
 For information on why they are suggested, see also http://www.abinit.org/about/?text=acknowledgments.

 [1] First-principles responses of solids to atomic displacements and homogeneous electric fields:,
 implementation of a conjugate-gradient algorithm. X. Gonze, Phys. Rev. B55, 10337 (1997).
 Comment : Non-vanishing rfphon and/or rfelfd, in the norm-conserving case.

 [2] Dynamical matrices, Born effective charges, dielectric permittivity tensors, and ,
 interatomic force constants from density-functional perturbation theory,
 X. Gonze and C. Lee, Phys. Rev. B55, 10355 (1997).
 Comment : Non-vanishing rfphon and/or rfelfd, in the norm-conserving case.

 [3] ABINIT : First-principles approach of materials and nanosystem properties.
 X. Gonze, B. Amadon, P.-M. Anglade, J.-M. Beuken, F. Bottin, P. Boulanger, F. Bruneval,
 D. Caliste, R. Caracas, M. Cote, T. Deutsch, L. Genovese, Ph. Ghosez, M. Giantomassi
 S. Goedecker, D.R. Hamann, P. Hermet, F. Jollet, G. Jomard, S. Leroux, M. Mancini, S. Mazevet,
 M.J.T. Oliveira, G. Onida, Y. Pouillon, T. Rangel, G.-M. Rignanese, D. Sangalli, R. Shaltaf,
 M. Torrent, M.J. Verstraete, G. Zerah, J.W. Zwanziger
 Computer Phys. Comm. 180, 2582-2615 (2009).
 Comment : the third generic paper describing the ABINIT project.
 Note that a version of this paper, that is not formatted for Computer Phys. Comm. 
 is available at http://www.abinit.org/about/ABINIT_CPC_v10.pdf .
 The licence allows the authors to put it on the Web.

 [4] A brief introduction to the ABINIT software package.
 X. Gonze, G.-M. Rignanese, M. Verstraete, J.-M. Beuken, Y. Pouillon, R. Caracas, F. Jollet,
 M. Torrent, G. Zerah, M. Mikami, Ph. Ghosez, M. Veithen, J.-Y. Raty, V. Olevano, F. Bruneval,
 L. Reining, R. Godby, G. Onida, D.R. Hamann, and D.C. Allan.
 Z. Kristallogr. 220, 558-562 (2005).
 Comment : the second generic paper describing the ABINIT project. Note that this paper
 should be cited especially if you are using the GW part of ABINIT, as several authors
 of this part are not in the list of authors of the first or third paper.
 The .pdf of the latter paper is available at http://www.abinit.org/about/zfk_0505-06_558-562.pdf.
 Note that it should not redistributed (Copyright by Oldenburg Wissenshaftverlag,
 the licence allows the authors to put it on the Web).


 And optionally :

 [5] First-principles computation of material properties : the ABINIT software project. 
 X. Gonze, J.-M. Beuken, R. Caracas, F. Detraux, M. Fuchs, G.-M. Rignanese, L. Sindic,
 M. Verstraete, G. Zerah, F. Jollet, M. Torrent, A. Roy, M. Mikami, Ph. Ghosez, J.-Y. Raty, D.C. Allan.
 Computational Materials Science 25, 478-492 (2002). http://dx.doi.org/10.1016/S0927-0256(02)00325-7
 Comment : the original paper describing the ABINIT project.
-
- Proc.   0 individual time (sec): cpu=          3.5  wall=          3.5

================================================================================

 Calculation completed.
.Delivered   54 WARNINGs and   0 COMMENTs to log file.
+Overall time at end (sec) : cpu=          3.5  wall=          3.5
