
.Version 7.10.4 of ABINIT 
.(MPI version, prepared for a x86_64_linux_gnu4.7 computer) 

.Copyright (C) 1998-2014 ABINIT group . 
 ABINIT comes with ABSOLUTELY NO WARRANTY.
 It is free software, and you are welcome to redistribute it
 under certain conditions (GNU General Public License,
 see ~abinit/COPYING or http://www.gnu.org/copyleft/gpl.txt).

 ABINIT is a project of the Universite Catholique de Louvain,
 Corning Inc. and other collaborators, see ~abinit/doc/developers/contributors.txt .
 Please read ~abinit/doc/users/acknowledgments.html for suggested
 acknowledgments of the ABINIT effort.
 For more information, see http://www.abinit.org .

.Starting date : Wed 11 Mar 2015.
- ( at 10h24 )
  
- input  file    -> t37.in
- output file    -> t37.out
- root for input  files -> t37i
- root for output files -> t37o


 DATASET    1 : space group Fm -3 m (#225); Bravais cF (face-center cubic)
================================================================================
 Values of the parameters that define the memory need for DATASET  1.
   intxc =         0  ionmov =         0    iscf =         3 xclevel =         1
  lmnmax =         3   lnmax =         3   mband =         4  mffmem =         1
P  mgfft =         8   mkmem =         2 mpssoang=         2     mpw =        15
  mqgrid =      3001   natom =         2    nfft =       512    nkpt =         2
  nloalg =         3  nspden =         1 nspinor =         1  nsppol =         1
    nsym =        48  n1xccc =         0  ntypat =         2  occopt =         1
================================================================================
P This job should need less than                       0.800 Mbytes of memory.
  Rough estimation (10% accuracy) of disk space for files :
_ WF disk file :      0.004 Mbytes ; DEN or POT disk file :      0.006 Mbytes.
================================================================================


 DATASET    2 : space group Fm -3 m (#225); Bravais cF (face-center cubic)
================================================================================
 Values of the parameters that define the memory need for DATASET  2.
   intxc =         0  ionmov =         0    iscf =        -2 xclevel =         1
  lmnmax =         3   lnmax =         3   mband =         4  mffmem =         1
P  mgfft =         8   mkmem =        32 mpssoang=         2     mpw =        15
  mqgrid =      3001   natom =         2    nfft =       512    nkpt =        32
  nloalg =         3  nspden =         1 nspinor =         1  nsppol =         1
    nsym =        48  n1xccc =         0  ntypat =         2  occopt =         1
================================================================================
P This job should need less than                       0.835 Mbytes of memory.
  Rough estimation (10% accuracy) of disk space for files :
_ WF disk file :      0.031 Mbytes ; DEN or POT disk file :      0.006 Mbytes.
================================================================================


 DATASET    3 : space group Fm -3 m (#225); Bravais cF (face-center cubic)
================================================================================
 Values of the parameters that define the memory need for DATASET  3.
   intxc =         0  ionmov =         0    iscf =        -2 xclevel =         1
  lmnmax =         3   lnmax =         3   mband =         4  mffmem =         1
P  mgfft =         8   mkmem =        32 mpssoang=         2     mpw =        22
  mqgrid =      3001   natom =         2    nfft =       512    nkpt =        32
  nloalg =         3  nspden =         1 nspinor =         1  nsppol =         1
    nsym =        48  n1xccc =         0  ntypat =         2  occopt =         1
================================================================================
P This job should need less than                       0.854 Mbytes of memory.
  Rough estimation (10% accuracy) of disk space for files :
_ WF disk file :      0.045 Mbytes ; DEN or POT disk file :      0.006 Mbytes.
================================================================================


 DATASET    4 : space group Fm -3 m (#225); Bravais cF (face-center cubic)
================================================================================
 Values of the parameters that define the memory need for DATASET  4 (RF).
   intxc =         0    iscf =         3 xclevel =         1  lmnmax =         3
   lnmax =         3   mband =         4  mffmem =         1   mgfft =         8
P  mkmem =        32  mkqmem =        32  mk1mem =        32 mpssoang=         2
     mpw =        22  mqgrid =      3001   natom =         2    nfft =       512
    nkpt =        32  nloalg =         3  nspden =         1 nspinor =         1
  nsppol =         1    nsym =        48  n1xccc =         0  ntypat =         2
  occopt =         1
================================================================================
P This job should need less than                       1.015 Mbytes of memory.
P Max. in main chain + nonlop.f + opernl.f
P          198 blocks of mpw  integer numbers, for      0.017 Mbytes.
P          840 blocks of mpw  real(dp)  numbers, for      0.141 Mbytes.
P           34 blocks of nfft real(dp)  numbers, for      0.133 Mbytes.
P              Additional     integer numbers, for      0.003 Mbytes.
P              Additional     real(dp)  numbers, for      0.483 Mbytes.
P              With residue estimated to be             0.237 Mbytes.
P
P Comparison of the memory needs of different chains
P Main chain + fourwf.f                 0.967 Mbytes.
P Main chain + nonlop.f + opernl.f      1.015 Mbytes.
  Rough estimation (10% accuracy) of disk space for files :
_ WF disk file :      0.045 Mbytes ; DEN or POT disk file :      0.006 Mbytes.
================================================================================


 DATASET    5 : space group Fm -3 m (#225); Bravais cF (face-center cubic)
================================================================================
 Values of the parameters that define the memory need for DATASET  5.
   intxc =         0  ionmov =         0    iscf =        -2 xclevel =         1
  lmnmax =         3   lnmax =         3   mband =         4  mffmem =         1
P  mgfft =         8   mkmem =        32 mpssoang=         2     mpw =        22
  mqgrid =      3001   natom =         2    nfft =       512    nkpt =        32
  nloalg =         3  nspden =         1 nspinor =         1  nsppol =         1
    nsym =        48  n1xccc =         0  ntypat =         2  occopt =         1
================================================================================
P This job should need less than                       0.854 Mbytes of memory.
  Rough estimation (10% accuracy) of disk space for files :
_ WF disk file :      0.045 Mbytes ; DEN or POT disk file :      0.006 Mbytes.
================================================================================


 DATASET    6 : space group Fm -3 m (#225); Bravais cF (face-center cubic)
================================================================================
 Values of the parameters that define the memory need for DATASET  6 (RF).
   intxc =         0    iscf =         3 xclevel =         1  lmnmax =         3
   lnmax =         3   mband =         4  mffmem =         1   mgfft =         8
P  mkmem =        32  mkqmem =        32  mk1mem =        32 mpssoang=         2
     mpw =        22  mqgrid =      3001   natom =         2    nfft =       512
    nkpt =        32  nloalg =         3  nspden =         1 nspinor =         1
  nsppol =         1    nsym =        48  n1xccc =         0  ntypat =         2
  occopt =         1
================================================================================
P This job should need less than                       1.015 Mbytes of memory.
P Max. in main chain + nonlop.f + opernl.f
P          198 blocks of mpw  integer numbers, for      0.017 Mbytes.
P          840 blocks of mpw  real(dp)  numbers, for      0.141 Mbytes.
P           34 blocks of nfft real(dp)  numbers, for      0.133 Mbytes.
P              Additional     integer numbers, for      0.003 Mbytes.
P              Additional     real(dp)  numbers, for      0.483 Mbytes.
P              With residue estimated to be             0.237 Mbytes.
P
P Comparison of the memory needs of different chains
P Main chain + fourwf.f                 0.967 Mbytes.
P Main chain + nonlop.f + opernl.f      1.015 Mbytes.
  Rough estimation (10% accuracy) of disk space for files :
_ WF disk file :      0.045 Mbytes ; DEN or POT disk file :      0.006 Mbytes.
================================================================================

--------------------------------------------------------------------------------
------------- Echo of variables that govern the present computation ------------
--------------------------------------------------------------------------------
-
- outvars: echo of selected default values                                      
-   accesswff0 =  0 , fftalg0 =112 , wfoptalg0 =  0
-
- outvars: echo of global parameters not present in the input file              
-  max_nthreads =    0
-
 -outvars: echo values of preprocessed input variables --------
            acell      7.7427634300E+00  7.7427634300E+00  7.7427634300E+00 Bohr
              amu      2.43000000E+01  1.60000000E+01
           diemac1     1.00000000E+06
           diemac2     1.00000000E+06
           diemac3     1.00000000E+06
           diemac4     2.00000000E+00
           diemac5     1.00000000E+06
           diemac6     2.00000000E+00
           diemix1     1.00000000E+00
           diemix2     1.00000000E+00
           diemix3     1.00000000E+00
           diemix4     9.00000000E-01
           diemix5     1.00000000E+00
           diemix6     9.00000000E-01
             ecut      2.00000000E+00 Hartree
-          fftalg         112
           getden1          0
           getden2          1
           getden3          1
           getden4          0
           getden5          1
           getden6          0
           getwfk1          0
           getwfk2          1
           getwfk3          2
           getwfk4          2
           getwfk5          0
           getwfk6          2
           getwfq1          0
           getwfq2          0
           getwfq3          0
           getwfq4          3
           getwfq5          3
           getwfq6          5
             iscf1          3
             iscf2         -2
             iscf3         -2
             iscf4          3
             iscf5         -2
             iscf6          3
           istwfk5       0    0    1    1    0    0    0    0    0    0
                         0    1    0    0    0    0    0    0    0    1
                         0    0    0    0    0    0    0    1    0    0
                         0    0
           jdtset        1    2    3    4    5    6
              kpt1     2.50000000E-01  2.50000000E-01  2.50000000E-01
                       5.00000000E-01  5.00000000E-01  2.50000000E-01
              kpt2     2.50000000E-01  2.50000000E-01  2.50000000E-01
                      -2.50000000E-01 -2.50000000E-01 -2.50000000E-01
                       2.50000000E-01  0.00000000E+00  0.00000000E+00
                      -2.50000000E-01  0.00000000E+00  0.00000000E+00
                       0.00000000E+00  2.50000000E-01  0.00000000E+00
                       0.00000000E+00 -2.50000000E-01  0.00000000E+00
                       0.00000000E+00  0.00000000E+00  2.50000000E-01
                       0.00000000E+00  0.00000000E+00 -2.50000000E-01
                       2.50000000E-01  2.50000000E-01 -2.50000000E-01
                      -2.50000000E-01 -2.50000000E-01  2.50000000E-01
                       2.50000000E-01  5.00000000E-01  0.00000000E+00
                      -2.50000000E-01 -5.00000000E-01  0.00000000E+00
                       5.00000000E-01  2.50000000E-01  0.00000000E+00
                      -5.00000000E-01 -2.50000000E-01  0.00000000E+00
                       5.00000000E-01  5.00000000E-01  2.50000000E-01
                      -5.00000000E-01 -5.00000000E-01 -2.50000000E-01
                       2.50000000E-01 -2.50000000E-01  2.50000000E-01
                      -2.50000000E-01  2.50000000E-01 -2.50000000E-01
                       2.50000000E-01  0.00000000E+00  5.00000000E-01
                      -2.50000000E-01  0.00000000E+00 -5.00000000E-01
                       5.00000000E-01  2.50000000E-01  5.00000000E-01
                      -5.00000000E-01 -2.50000000E-01 -5.00000000E-01
                       5.00000000E-01  0.00000000E+00  2.50000000E-01
                      -5.00000000E-01  0.00000000E+00 -2.50000000E-01
                      -2.50000000E-01  2.50000000E-01  2.50000000E-01
                       2.50000000E-01 -2.50000000E-01 -2.50000000E-01
                       2.50000000E-01  5.00000000E-01  5.00000000E-01
                      -2.50000000E-01 -5.00000000E-01 -5.00000000E-01
                       0.00000000E+00  2.50000000E-01  5.00000000E-01
                       0.00000000E+00 -2.50000000E-01 -5.00000000E-01
                       0.00000000E+00  5.00000000E-01  2.50000000E-01
                       0.00000000E+00 -5.00000000E-01 -2.50000000E-01
              kpt3     2.50000000E-01  2.50000000E-01  2.50000000E-01
                      -2.50000000E-01 -2.50000000E-01 -2.50000000E-01
                       2.50000000E-01  0.00000000E+00  0.00000000E+00
                      -2.50000000E-01  0.00000000E+00  0.00000000E+00
                       0.00000000E+00  2.50000000E-01  0.00000000E+00
                       0.00000000E+00 -2.50000000E-01  0.00000000E+00
                       0.00000000E+00  0.00000000E+00  2.50000000E-01
                       0.00000000E+00  0.00000000E+00 -2.50000000E-01
                       2.50000000E-01  2.50000000E-01 -2.50000000E-01
                      -2.50000000E-01 -2.50000000E-01  2.50000000E-01
                       2.50000000E-01  5.00000000E-01  0.00000000E+00
                      -2.50000000E-01 -5.00000000E-01  0.00000000E+00
                       5.00000000E-01  2.50000000E-01  0.00000000E+00
                      -5.00000000E-01 -2.50000000E-01  0.00000000E+00
                       5.00000000E-01  5.00000000E-01  2.50000000E-01
                      -5.00000000E-01 -5.00000000E-01 -2.50000000E-01
                       2.50000000E-01 -2.50000000E-01  2.50000000E-01
                      -2.50000000E-01  2.50000000E-01 -2.50000000E-01
                       2.50000000E-01  0.00000000E+00  5.00000000E-01
                      -2.50000000E-01  0.00000000E+00 -5.00000000E-01
                       5.00000000E-01  2.50000000E-01  5.00000000E-01
                      -5.00000000E-01 -2.50000000E-01 -5.00000000E-01
                       5.00000000E-01  0.00000000E+00  2.50000000E-01
                      -5.00000000E-01  0.00000000E+00 -2.50000000E-01
                      -2.50000000E-01  2.50000000E-01  2.50000000E-01
                       2.50000000E-01 -2.50000000E-01 -2.50000000E-01
                       2.50000000E-01  5.00000000E-01  5.00000000E-01
                      -2.50000000E-01 -5.00000000E-01 -5.00000000E-01
                       0.00000000E+00  2.50000000E-01  5.00000000E-01
                       0.00000000E+00 -2.50000000E-01 -5.00000000E-01
                       0.00000000E+00  5.00000000E-01  2.50000000E-01
                       0.00000000E+00 -5.00000000E-01 -2.50000000E-01
              kpt4     2.50000000E-01  2.50000000E-01  2.50000000E-01
                      -2.50000000E-01 -2.50000000E-01 -2.50000000E-01
                       2.50000000E-01  0.00000000E+00  0.00000000E+00
                      -2.50000000E-01  0.00000000E+00  0.00000000E+00
                       0.00000000E+00  2.50000000E-01  0.00000000E+00
                       0.00000000E+00 -2.50000000E-01  0.00000000E+00
                       0.00000000E+00  0.00000000E+00  2.50000000E-01
                       0.00000000E+00  0.00000000E+00 -2.50000000E-01
                       2.50000000E-01  2.50000000E-01 -2.50000000E-01
                      -2.50000000E-01 -2.50000000E-01  2.50000000E-01
                       2.50000000E-01  5.00000000E-01  0.00000000E+00
                      -2.50000000E-01 -5.00000000E-01  0.00000000E+00
                       5.00000000E-01  2.50000000E-01  0.00000000E+00
                      -5.00000000E-01 -2.50000000E-01  0.00000000E+00
                       5.00000000E-01  5.00000000E-01  2.50000000E-01
                      -5.00000000E-01 -5.00000000E-01 -2.50000000E-01
                       2.50000000E-01 -2.50000000E-01  2.50000000E-01
                      -2.50000000E-01  2.50000000E-01 -2.50000000E-01
                       2.50000000E-01  0.00000000E+00  5.00000000E-01
                      -2.50000000E-01  0.00000000E+00 -5.00000000E-01
                       5.00000000E-01  2.50000000E-01  5.00000000E-01
                      -5.00000000E-01 -2.50000000E-01 -5.00000000E-01
                       5.00000000E-01  0.00000000E+00  2.50000000E-01
                      -5.00000000E-01  0.00000000E+00 -2.50000000E-01
                      -2.50000000E-01  2.50000000E-01  2.50000000E-01
                       2.50000000E-01 -2.50000000E-01 -2.50000000E-01
                       2.50000000E-01  5.00000000E-01  5.00000000E-01
                      -2.50000000E-01 -5.00000000E-01 -5.00000000E-01
                       0.00000000E+00  2.50000000E-01  5.00000000E-01
                       0.00000000E+00 -2.50000000E-01 -5.00000000E-01
                       0.00000000E+00  5.00000000E-01  2.50000000E-01
                       0.00000000E+00 -5.00000000E-01 -2.50000000E-01
              kpt5     2.50000000E-01  2.50000000E-01  2.50000000E-01
                      -2.50000000E-01 -2.50000000E-01 -2.50000000E-01
                       2.50000000E-01  0.00000000E+00  0.00000000E+00
                      -2.50000000E-01  0.00000000E+00  0.00000000E+00
                       0.00000000E+00  2.50000000E-01  0.00000000E+00
                       0.00000000E+00 -2.50000000E-01  0.00000000E+00
                       0.00000000E+00  0.00000000E+00  2.50000000E-01
                       0.00000000E+00  0.00000000E+00 -2.50000000E-01
                       2.50000000E-01  2.50000000E-01 -2.50000000E-01
                      -2.50000000E-01 -2.50000000E-01  2.50000000E-01
                       2.50000000E-01  5.00000000E-01  0.00000000E+00
                      -2.50000000E-01 -5.00000000E-01  0.00000000E+00
                       5.00000000E-01  2.50000000E-01  0.00000000E+00
                      -5.00000000E-01 -2.50000000E-01  0.00000000E+00
                       5.00000000E-01  5.00000000E-01  2.50000000E-01
                      -5.00000000E-01 -5.00000000E-01 -2.50000000E-01
                       2.50000000E-01 -2.50000000E-01  2.50000000E-01
                      -2.50000000E-01  2.50000000E-01 -2.50000000E-01
                       2.50000000E-01  0.00000000E+00  5.00000000E-01
                      -2.50000000E-01  0.00000000E+00 -5.00000000E-01
                       5.00000000E-01  2.50000000E-01  5.00000000E-01
                      -5.00000000E-01 -2.50000000E-01 -5.00000000E-01
                       5.00000000E-01  0.00000000E+00  2.50000000E-01
                      -5.00000000E-01  0.00000000E+00 -2.50000000E-01
                      -2.50000000E-01  2.50000000E-01  2.50000000E-01
                       2.50000000E-01 -2.50000000E-01 -2.50000000E-01
                       2.50000000E-01  5.00000000E-01  5.00000000E-01
                      -2.50000000E-01 -5.00000000E-01 -5.00000000E-01
                       0.00000000E+00  2.50000000E-01  5.00000000E-01
                       0.00000000E+00 -2.50000000E-01 -5.00000000E-01
                       0.00000000E+00  5.00000000E-01  2.50000000E-01
                       0.00000000E+00 -5.00000000E-01 -2.50000000E-01
              kpt6     2.50000000E-01  2.50000000E-01  2.50000000E-01
                      -2.50000000E-01 -2.50000000E-01 -2.50000000E-01
                       2.50000000E-01  0.00000000E+00  0.00000000E+00
                      -2.50000000E-01  0.00000000E+00  0.00000000E+00
                       0.00000000E+00  2.50000000E-01  0.00000000E+00
                       0.00000000E+00 -2.50000000E-01  0.00000000E+00
                       0.00000000E+00  0.00000000E+00  2.50000000E-01
                       0.00000000E+00  0.00000000E+00 -2.50000000E-01
                       2.50000000E-01  2.50000000E-01 -2.50000000E-01
                      -2.50000000E-01 -2.50000000E-01  2.50000000E-01
                       2.50000000E-01  5.00000000E-01  0.00000000E+00
                      -2.50000000E-01 -5.00000000E-01  0.00000000E+00
                       5.00000000E-01  2.50000000E-01  0.00000000E+00
                      -5.00000000E-01 -2.50000000E-01  0.00000000E+00
                       5.00000000E-01  5.00000000E-01  2.50000000E-01
                      -5.00000000E-01 -5.00000000E-01 -2.50000000E-01
                       2.50000000E-01 -2.50000000E-01  2.50000000E-01
                      -2.50000000E-01  2.50000000E-01 -2.50000000E-01
                       2.50000000E-01  0.00000000E+00  5.00000000E-01
                      -2.50000000E-01  0.00000000E+00 -5.00000000E-01
                       5.00000000E-01  2.50000000E-01  5.00000000E-01
                      -5.00000000E-01 -2.50000000E-01 -5.00000000E-01
                       5.00000000E-01  0.00000000E+00  2.50000000E-01
                      -5.00000000E-01  0.00000000E+00 -2.50000000E-01
                      -2.50000000E-01  2.50000000E-01  2.50000000E-01
                       2.50000000E-01 -2.50000000E-01 -2.50000000E-01
                       2.50000000E-01  5.00000000E-01  5.00000000E-01
                      -2.50000000E-01 -5.00000000E-01 -5.00000000E-01
                       0.00000000E+00  2.50000000E-01  5.00000000E-01
                       0.00000000E+00 -2.50000000E-01 -5.00000000E-01
                       0.00000000E+00  5.00000000E-01  2.50000000E-01
                       0.00000000E+00 -5.00000000E-01 -2.50000000E-01
           kptopt           0
P           mkmem1          2
P           mkmem2         32
P           mkmem3         32
P           mkmem4         32
P           mkmem5         32
P           mkmem6         32
P          mkqmem1          2
P          mkqmem2         32
P          mkqmem3         32
P          mkqmem4         32
P          mkqmem5         32
P          mkqmem6         32
P          mk1mem1          2
P          mk1mem2         32
P          mk1mem3         32
P          mk1mem4         32
P          mk1mem5         32
P          mk1mem6         32
            natom           2
            nband1          4
            nband2          4
            nband3          4
            nband4          4
            nband5          4
            nband6          4
           ndtset           6
            ngfft           8       8       8
             nkpt1          2
             nkpt2         32
             nkpt3         32
             nkpt4         32
             nkpt5         32
             nkpt6         32
           nloalg           3
             nqpt1          0
             nqpt2          0
             nqpt3          1
             nqpt4          1
             nqpt5          1
             nqpt6          1
            nstep          40
             nsym          48
           ntypat           2
              occ1     2.000000  2.000000  2.000000  2.000000
              occ4     2.000000  2.000000  2.000000  2.000000
              occ6     2.000000  2.000000  2.000000  2.000000
        optdriver1          0
        optdriver2          0
        optdriver3          0
        optdriver4          1
        optdriver5          0
        optdriver6          1
           prtvol1          0
           prtvol2          0
           prtvol3          0
           prtvol4         10
           prtvol5          0
           prtvol6         10
              qpt1     0.00000000E+00  0.00000000E+00  0.00000000E+00
              qpt2     0.00000000E+00  0.00000000E+00  0.00000000E+00
              qpt3     2.50000000E-01  5.00000000E-01  4.98000000E-01
              qpt4     2.50000000E-01  5.00000000E-01  4.98000000E-01
              qpt5     2.50000000E-01  5.00000000E-01  5.00000000E-01
              qpt6     2.50000000E-01  5.00000000E-01  5.00000000E-01
          rfatpol1          1       1
          rfatpol2          1       1
          rfatpol3          1       1
          rfatpol4          1       2
          rfatpol5          1       1
          rfatpol6          1       2
            rfdir1          0       0       0
            rfdir2          0       0       0
            rfdir3          0       0       0
            rfdir4          1       1       1
            rfdir5          0       0       0
            rfdir6          1       1       1
           rfphon1          0
           rfphon2          0
           rfphon3          0
           rfphon4          1
           rfphon5          0
           rfphon6          1
            rprim      0.0000000000E+00  5.0000000000E-01  5.0000000000E-01
                       5.0000000000E-01  0.0000000000E+00  5.0000000000E-01
                       5.0000000000E-01  5.0000000000E-01  0.0000000000E+00
          spgroup         225
           symrel      1  0  0   0  1  0   0  0  1      -1  0  0  -1  0  1  -1  1  0
                       0 -1  1   0 -1  0   1 -1  0       0  1 -1   1  0 -1   0  0 -1
                       0  0  1   1  0  0   0  1  0      -1  1  0  -1  0  0  -1  0  1
                       1 -1  0   0 -1  1   0 -1  0       0  0 -1   0  1 -1   1  0 -1
                       0  1  0   0  0  1   1  0  0      -1  0  1  -1  1  0  -1  0  0
                       0 -1  0   1 -1  0   0 -1  1       1  0 -1   0  0 -1   0  1 -1
                       0 -1  0  -1  0  0   0  0 -1       1  0 -1   1  0  0   1 -1  0
                       0  1  0   0  1 -1  -1  1  0      -1  0  1   0 -1  1   0  0  1
                      -1  0  0   0  0 -1   0 -1  0       1  0  0   1 -1  0   1  0 -1
                       0  1 -1  -1  1  0   0  1  0       0 -1  1   0  0  1  -1  0  1
                       0  0 -1   0 -1  0  -1  0  0       1 -1  0   1  0 -1   1  0  0
                      -1  1  0   0  1  0   0  1 -1       0  0  1  -1  0  1   0 -1  1
                      -1  0  0   0 -1  0   0  0 -1       1  0  0   1  0 -1   1 -1  0
                       0  1 -1   0  1  0  -1  1  0       0 -1  1  -1  0  1   0  0  1
                       0  0 -1  -1  0  0   0 -1  0       1 -1  0   1  0  0   1  0 -1
                      -1  1  0   0  1 -1   0  1  0       0  0  1   0 -1  1  -1  0  1
                       0 -1  0   0  0 -1  -1  0  0       1  0 -1   1 -1  0   1  0  0
                       0  1  0  -1  1  0   0  1 -1      -1  0  1   0  0  1   0 -1  1
                       0  1  0   1  0  0   0  0  1      -1  0  1  -1  0  0  -1  1  0
                       0 -1  0   0 -1  1   1 -1  0       1  0 -1   0  1 -1   0  0 -1
                       1  0  0   0  0  1   0  1  0      -1  0  0  -1  1  0  -1  0  1
                       0 -1  1   1 -1  0   0 -1  0       0  1 -1   0  0 -1   1  0 -1
                       0  0  1   0  1  0   1  0  0      -1  1  0  -1  0  1  -1  0  0
                       1 -1  0   0 -1  0   0 -1  1       0  0 -1   1  0 -1   0  1 -1
           tolwfr1     1.00000000E-22
           tolwfr2     1.00000000E-22
           tolwfr3     1.00000000E-22
           tolwfr4     1.00000000E-08
           tolwfr5     1.00000000E-22
           tolwfr6     1.00000000E-08
            typat      1  2
              wtk1       0.25000    0.75000
              wtk2       1.00000    1.00000    1.00000    1.00000    1.00000    1.00000
                         1.00000    1.00000    1.00000    1.00000    1.00000    1.00000
                         1.00000    1.00000    1.00000    1.00000    1.00000    1.00000
                         1.00000    1.00000    1.00000    1.00000    1.00000    1.00000
                         1.00000    1.00000    1.00000    1.00000    1.00000    1.00000
                         1.00000    1.00000
              wtk3       1.00000    1.00000    1.00000    1.00000    1.00000    1.00000
                         1.00000    1.00000    1.00000    1.00000    1.00000    1.00000
                         1.00000    1.00000    1.00000    1.00000    1.00000    1.00000
                         1.00000    1.00000    1.00000    1.00000    1.00000    1.00000
                         1.00000    1.00000    1.00000    1.00000    1.00000    1.00000
                         1.00000    1.00000
              wtk4       0.03125    0.03125    0.03125    0.03125    0.03125    0.03125
                         0.03125    0.03125    0.03125    0.03125    0.03125    0.03125
                         0.03125    0.03125    0.03125    0.03125    0.03125    0.03125
                         0.03125    0.03125    0.03125    0.03125    0.03125    0.03125
                         0.03125    0.03125    0.03125    0.03125    0.03125    0.03125
                         0.03125    0.03125
              wtk5       1.00000    1.00000    1.00000    1.00000    1.00000    1.00000
                         1.00000    1.00000    1.00000    1.00000    1.00000    1.00000
                         1.00000    1.00000    1.00000    1.00000    1.00000    1.00000
                         1.00000    1.00000    1.00000    1.00000    1.00000    1.00000
                         1.00000    1.00000    1.00000    1.00000    1.00000    1.00000
                         1.00000    1.00000
              wtk6       0.03125    0.03125    0.03125    0.03125    0.03125    0.03125
                         0.03125    0.03125    0.03125    0.03125    0.03125    0.03125
                         0.03125    0.03125    0.03125    0.03125    0.03125    0.03125
                         0.03125    0.03125    0.03125    0.03125    0.03125    0.03125
                         0.03125    0.03125    0.03125    0.03125    0.03125    0.03125
                         0.03125    0.03125
           xangst      0.0000000000E+00  0.0000000000E+00  0.0000000000E+00
                       2.0486469693E+00  2.0486469693E+00  2.0486469693E+00
            xcart      0.0000000000E+00  0.0000000000E+00  0.0000000000E+00
                       3.8713817150E+00  3.8713817150E+00  3.8713817150E+00
             xred      0.0000000000E+00  0.0000000000E+00  0.0000000000E+00
                       5.0000000000E-01  5.0000000000E-01  5.0000000000E-01
            znucl       12.00000    8.00000

================================================================================

 chkinp: Checking input parameters for consistency, jdtset=   1.

 chkinp: Checking input parameters for consistency, jdtset=   2.

 chkinp: Checking input parameters for consistency, jdtset=   3.

 chkinp: Checking input parameters for consistency, jdtset=   4.

 chkinp: Checking input parameters for consistency, jdtset=   5.

 chkinp: Checking input parameters for consistency, jdtset=   6.

================================================================================
== DATASET  1 ==================================================================
-   nproc =    1

 Exchange-correlation functional for the present dataset will be:
  LDA: new Teter (4/93) with spin-polarized option - ixc=1
 Citation for XC functional:
  S. Goedecker, M. Teter, J. Huetter, PRB 54, 1703 (1996)

 Real(R)+Recip(G) space primitive vectors, cartesian coordinates (Bohr,Bohr^-1):
 R(1)=  0.0000000  3.8713817  3.8713817  G(1)= -0.1291529  0.1291529  0.1291529
 R(2)=  3.8713817  0.0000000  3.8713817  G(2)=  0.1291529 -0.1291529  0.1291529
 R(3)=  3.8713817  3.8713817  0.0000000  G(3)=  0.1291529  0.1291529 -0.1291529
 Unit cell volume ucvol=  1.1604541E+02 bohr^3
 Angles (23,13,12)=  6.00000000E+01  6.00000000E+01  6.00000000E+01 degrees

 getcut: wavevector=  0.0000  0.0000  0.0000  ngfft=   8   8   8
         ecut(hartree)=      2.000   => boxcut(ratio)=   2.29524

 getcut : COMMENT -
  Note that boxcut > 2.2 ; recall that boxcut=Gcut(box)/Gcut(sphere) = 2
  is sufficient for exact treatment of convolution.
  Such a large boxcut is a waste : you could raise ecut
  e.g. ecut=    2.634073 Hartrees makes boxcut=2


--- Pseudopotential description ------------------------------------------------
- pspini: atom type   1  psp file is /home/gonze/ABINIT/ABINITv7.10.4/trunk/7.10.4-private/tests/Psps_for_tests/12mg.psphgh
- pspatm: opening atomic psp file    /home/gonze/ABINIT/ABINITv7.10.4/trunk/7.10.4-private/tests/Psps_for_tests/12mg.psphgh
- Hartwigsen-Goedecker-Hutter psp for Magnesium,  from PRB58, 3641 (1998) paper
- 12.00000   2.00000    980509                znucl, zion, pspdat
    3    1    1    0      2001   0.00000      pspcod,pspxc,lmax,lloc,mmax,r2well
 rloc=   0.6518120
 cc1 =  -2.8642970; cc2 =   0.0000000; cc3 =   0.0000000; cc4 =   0.0000000
 rrs =   0.5564780; h11s=   2.9709570; h22s=   1.3299410; h33s=   0.0000000
 rrp =   0.6775690; h11p=   1.0498810; h22p=   0.0000000; h33p=   0.0000000
                    k11p=   0.0051520; k22p=   0.0000000; k33p=   0.0000000
-  Local part computed in reciprocal space.

 pspatm : COMMENT -
  the projectors are not normalized,
  so that the KB energies are not consistent with 
  definition in PRB44, 8503 (1991). 
  However, this does not influence the results obtained hereafter.
 pspatm: epsatm=   -7.15372539
         --- l  ekb(1:nproj) -->
             0    0.721843    1.905447
             1    1.063023
 pspatm: atomic psp has been read  and splines computed

- pspini: atom type   2  psp file is /home/gonze/ABINIT/ABINITv7.10.4/trunk/7.10.4-private/tests/Psps_for_tests/8o.psphgh
- pspatm: opening atomic psp file    /home/gonze/ABINIT/ABINITv7.10.4/trunk/7.10.4-private/tests/Psps_for_tests/8o.psphgh
- Hartwigsen-Goedecker-Hutter psp for Oxygen,  from PRB58, 3641 (1998) paper
-  8.00000   6.00000    980509                znucl, zion, pspdat
    3    1    1    0      2001   0.00000      pspcod,pspxc,lmax,lloc,mmax,r2well
 rloc=   0.2476210
 cc1 = -16.5803180; cc2 =   2.3957010; cc3 =   0.0000000; cc4 =   0.0000000
 rrs =   0.2217860; h11s=  18.2669170; h22s=   0.0000000; h33s=   0.0000000
 rrp =   0.2568290; h11p=   0.0000000; h22p=   0.0000000; h33p=   0.0000000
                    k11p=   0.0044760; k22p=   0.0000000; k33p=   0.0000000
-  Local part computed in reciprocal space.

 pspatm : COMMENT -
  the projectors are not normalized,
  so that the KB energies are not consistent with 
  definition in PRB44, 8503 (1991). 
  However, this does not influence the results obtained hereafter.
 pspatm: epsatm=    0.06537478
         --- l  ekb(1:nproj) -->
             0    0.706436
 pspatm: atomic psp has been read  and splines computed

  -5.67068048E+01                                ecore*ucvol(ha*bohr**3)
--------------------------------------------------------------------------------

P newkpt: treating      4 bands with npw=      15 for ikpt=   1 by node    0
P newkpt: treating      4 bands with npw=      15 for ikpt=   2 by node    0

_setup2: Arith. and geom. avg. npw (full set) are      15.000      15.000

================================================================================

     iter   Etot(hartree)      deltaE(h)  residm     vres2
 ETOT  1  -12.616960494789    -1.262E+01 1.005E-04 7.519E+01
 ETOT  2  -12.953451070219    -3.365E-01 9.125E-06 1.545E+00
 ETOT  3  -12.958961590855    -5.511E-03 1.469E-04 1.028E-02
 ETOT  4  -12.958987277282    -2.569E-05 8.565E-08 2.501E-04
 ETOT  5  -12.958987633318    -3.560E-07 1.248E-09 4.114E-06
 ETOT  6  -12.958987644065    -1.075E-08 8.473E-11 4.436E-08
 ETOT  7  -12.958987644265    -1.996E-10 6.564E-13 1.226E-09
 ETOT  8  -12.958987644268    -3.411E-12 3.405E-15 5.384E-11
 ETOT  9  -12.958987644268    -6.217E-14 6.490E-17 1.459E-12
 ETOT 10  -12.958987644268    -3.375E-14 8.272E-18 1.081E-14
 ETOT 11  -12.958987644268     2.132E-14 3.403E-20 1.856E-16
 ETOT 12  -12.958987644268     1.776E-15 2.344E-22 8.802E-18
 ETOT 13  -12.958987644268    -3.020E-14 9.802E-23 3.758E-19

 At SCF step   13   max residual=  9.80E-23 < tolwfr=  1.00E-22 =>converged.

 Cartesian components of stress tensor (hartree/bohr^3)
  sigma(1 1)=  1.06300677E-02  sigma(3 2)=  0.00000000E+00
  sigma(2 2)=  1.06300677E-02  sigma(3 1)=  0.00000000E+00
  sigma(3 3)=  1.06300677E-02  sigma(2 1)=  0.00000000E+00

================================================================================

 ----iterations are completed or convergence reached----

 Mean square residual over all n,k,spin=   2.4848E-23; max=  9.8019E-23
   0.2500  0.2500  0.2500    1  2.52570E-23 kpt; spin; max resid(k); each band:
  7.36E-24 2.48E-23 1.52E-23 2.53E-23
   0.5000  0.5000  0.2500    1  9.80189E-23 kpt; spin; max resid(k); each band:
  9.80E-23 2.94E-24 1.52E-23 1.01E-23
 reduced coordinates (array xred) for    2 atoms
       0.000000000000      0.000000000000      0.000000000000
       0.500000000000      0.500000000000      0.500000000000
 rms dE/dt=  0.0000E+00; max dE/dt=  0.0000E+00; dE/dt below (all hartree)
    1       0.000000000000      0.000000000000      0.000000000000
    2       0.000000000000      0.000000000000      0.000000000000

 cartesian coordinates (angstrom) at end:
    1      0.00000000000000     0.00000000000000     0.00000000000000
    2      2.04864696933007     2.04864696933007     2.04864696933007

 cartesian forces (hartree/bohr) at end:
    1     -0.00000000000000    -0.00000000000000    -0.00000000000000
    2     -0.00000000000000    -0.00000000000000    -0.00000000000000
 frms,max,avg= 0.0000000E+00 0.0000000E+00   0.000E+00  0.000E+00  0.000E+00 h/b

 cartesian forces (eV/Angstrom) at end:
    1     -0.00000000000000    -0.00000000000000    -0.00000000000000
    2     -0.00000000000000    -0.00000000000000    -0.00000000000000
 frms,max,avg= 0.0000000E+00 0.0000000E+00   0.000E+00  0.000E+00  0.000E+00 e/A
 length scales=  7.742763430000  7.742763430000  7.742763430000 bohr
              =  4.097293938660  4.097293938660  4.097293938660 angstroms
 prteigrs : about to open file t37o_DS1_EIG
 Fermi (or HOMO) energy (hartree) =   0.52225   Average Vxc (hartree)=  -0.43765
 Eigenvalues (hartree) for nkpt=   2  k points:
 kpt#   1, nband=  4, wtk=  0.25000, kpt=  0.2500  0.2500  0.2500 (reduced coord)
  -0.75956   0.36417   0.52225   0.52225
 kpt#   2, nband=  4, wtk=  0.75000, kpt=  0.5000  0.5000  0.2500 (reduced coord)
  -0.70938   0.26639   0.39951   0.43494
 Total charge density [el/Bohr^3]
,     Maximum=    1.9651E-01  at reduced coord.    0.5000    0.5000    0.5000
,Next maximum=    1.8956E-01  at reduced coord.    0.5000    0.5000    0.6250
,     Minimum=    1.4605E-03  at reduced coord.    0.0000    0.0000    0.0000
,Next minimum=    5.5982E-03  at reduced coord.    0.1250    0.0000    0.0000
,  Integrated=    8.0000E+00

--------------------------------------------------------------------------------
 Components of total free energy (in Hartree) :

    Kinetic energy  =  5.52238511972779E+00
    Hartree energy  =  7.95672307606273E-01
    XC energy       = -3.08072171021772E+00
    Ewald energy    = -1.35318658574133E+01
    PspCore energy  = -4.88660458759354E-01
    Loc. psp. energy= -4.12148169794014E+00
    NL   psp  energy=  1.94568465272796E+00
    >>>>>>>>> Etotal= -1.29589876442685E+01

 Other information on the energy :
    Total energy(eV)= -3.52631987225186E+02 ; Band energy (Ha)=   9.1173276712E-01
--------------------------------------------------------------------------------

 Cartesian components of stress tensor (hartree/bohr^3)
  sigma(1 1)=  1.06300677E-02  sigma(3 2)=  0.00000000E+00
  sigma(2 2)=  1.06300677E-02  sigma(3 1)=  0.00000000E+00
  sigma(3 3)=  1.06300677E-02  sigma(2 1)=  0.00000000E+00

-Cartesian components of stress tensor (GPa)         [Pressure= -3.1275E+02 GPa]
- sigma(1 1)=  3.12747338E+02  sigma(3 2)=  0.00000000E+00
- sigma(2 2)=  3.12747338E+02  sigma(3 1)=  0.00000000E+00
- sigma(3 3)=  3.12747338E+02  sigma(2 1)=  0.00000000E+00

================================================================================
== DATASET  2 ==================================================================
-   nproc =    1

 mkfilename : getwfk/=0, take file _WFK from output of DATASET   1.

 mkfilename : getden/=0, take file _DEN from output of DATASET   1.

 Exchange-correlation functional for the present dataset will be:
  LDA: new Teter (4/93) with spin-polarized option - ixc=1
 Citation for XC functional:
  S. Goedecker, M. Teter, J. Huetter, PRB 54, 1703 (1996)

 Real(R)+Recip(G) space primitive vectors, cartesian coordinates (Bohr,Bohr^-1):
 R(1)=  0.0000000  3.8713817  3.8713817  G(1)= -0.1291529  0.1291529  0.1291529
 R(2)=  3.8713817  0.0000000  3.8713817  G(2)=  0.1291529 -0.1291529  0.1291529
 R(3)=  3.8713817  3.8713817  0.0000000  G(3)=  0.1291529  0.1291529 -0.1291529
 Unit cell volume ucvol=  1.1604541E+02 bohr^3
 Angles (23,13,12)=  6.00000000E+01  6.00000000E+01  6.00000000E+01 degrees

 getcut: wavevector=  0.0000  0.0000  0.0000  ngfft=   8   8   8
         ecut(hartree)=      2.000   => boxcut(ratio)=   2.29524

 getcut : COMMENT -
  Note that boxcut > 2.2 ; recall that boxcut=Gcut(box)/Gcut(sphere) = 2
  is sufficient for exact treatment of convolution.
  Such a large boxcut is a waste : you could raise ecut
  e.g. ecut=    2.634073 Hartrees makes boxcut=2

--------------------------------------------------------------------------------

-inwffil : will read wavefunctions from disk file t37o_DS1_WFK
- newkpt: read input wf with ikpt,npw=   1      15, make ikpt,npw=   1      15
- newkpt: read input wf with ikpt,npw=   1      15, make ikpt,npw=   2      15
- newkpt: read input wf with ikpt,npw=   1      15, make ikpt,npw=   3      15
- newkpt: read input wf with ikpt,npw=   1      15, make ikpt,npw=   4      15
- newkpt: read input wf with ikpt,npw=   1      15, make ikpt,npw=   5      15
- newkpt: read input wf with ikpt,npw=   1      15, make ikpt,npw=   6      15
- newkpt: read input wf with ikpt,npw=   1      15, make ikpt,npw=   7      15
- newkpt: read input wf with ikpt,npw=   1      15, make ikpt,npw=   8      15
- newkpt: read input wf with ikpt,npw=   2      15, make ikpt,npw=   9      15
- newkpt: read input wf with ikpt,npw=   2      15, make ikpt,npw=  10      15
- newkpt: read input wf with ikpt,npw=   2      15, make ikpt,npw=  11      15
- newkpt: read input wf with ikpt,npw=   2      15, make ikpt,npw=  12      15
- newkpt: read input wf with ikpt,npw=   2      15, make ikpt,npw=  13      15
- newkpt: read input wf with ikpt,npw=   2      15, make ikpt,npw=  14      15
- newkpt: read input wf with ikpt,npw=   2      15, make ikpt,npw=  15      15
- newkpt: read input wf with ikpt,npw=   2      15, make ikpt,npw=  16      15
- newkpt: read input wf with ikpt,npw=   2      15, make ikpt,npw=  17      15
- newkpt: read input wf with ikpt,npw=   2      15, make ikpt,npw=  18      15
- newkpt: read input wf with ikpt,npw=   2      15, make ikpt,npw=  19      15
- newkpt: read input wf with ikpt,npw=   2      15, make ikpt,npw=  20      15
- newkpt: read input wf with ikpt,npw=   2      15, make ikpt,npw=  21      15
- newkpt: read input wf with ikpt,npw=   2      15, make ikpt,npw=  22      15
- newkpt: read input wf with ikpt,npw=   2      15, make ikpt,npw=  23      15
- newkpt: read input wf with ikpt,npw=   2      15, make ikpt,npw=  24      15
- newkpt: read input wf with ikpt,npw=   2      15, make ikpt,npw=  25      15
- newkpt: read input wf with ikpt,npw=   2      15, make ikpt,npw=  26      15
- newkpt: read input wf with ikpt,npw=   2      15, make ikpt,npw=  27      15
- newkpt: read input wf with ikpt,npw=   2      15, make ikpt,npw=  28      15
- newkpt: read input wf with ikpt,npw=   2      15, make ikpt,npw=  29      15
- newkpt: read input wf with ikpt,npw=   2      15, make ikpt,npw=  30      15
- newkpt: read input wf with ikpt,npw=   2      15, make ikpt,npw=  31      15
- newkpt: read input wf with ikpt,npw=   2      15, make ikpt,npw=  32      15


================================================================================
 prteigrs : about to open file t37o_DS2_EIG
 Non-SCF case, kpt    1 (  0.25000  0.25000  0.25000), residuals and eigenvalues=
  2.42E-23  4.79E-24  6.51E-23  4.56E-23
 -7.5956E-01  3.6417E-01  5.2225E-01  5.2225E-01
 Non-SCF case, kpt    2 ( -0.25000 -0.25000 -0.25000), residuals and eigenvalues=
  4.81E-23  1.25E-23  9.88E-23  7.69E-23
 -7.5956E-01  3.6417E-01  5.2225E-01  5.2225E-01
 Non-SCF case, kpt    3 (  0.25000  0.00000  0.00000), residuals and eigenvalues=
  8.04E-23  1.65E-23  6.70E-24  7.55E-23
 -7.5956E-01  3.6417E-01  5.2225E-01  5.2225E-01
 Non-SCF case, kpt    4 ( -0.25000  0.00000  0.00000), residuals and eigenvalues=
  5.65E-23  8.78E-24  1.08E-23  3.33E-23
 -7.5956E-01  3.6417E-01  5.2225E-01  5.2225E-01
 Non-SCF case, kpt    5 (  0.00000  0.25000  0.00000), residuals and eigenvalues=
  8.23E-23  1.51E-23  3.52E-23  6.78E-23
 -7.5956E-01  3.6417E-01  5.2225E-01  5.2225E-01
 Non-SCF case, kpt    6 (  0.00000 -0.25000  0.00000), residuals and eigenvalues=
  9.17E-23  1.16E-23  1.01E-23  8.91E-23
 -7.5956E-01  3.6417E-01  5.2225E-01  5.2225E-01
 Non-SCF case, kpt    7 (  0.00000  0.00000  0.25000), residuals and eigenvalues=
  5.28E-23  1.68E-23  1.40E-23  7.06E-23
 -7.5956E-01  3.6417E-01  5.2225E-01  5.2225E-01
 Non-SCF case, kpt    8 (  0.00000  0.00000 -0.25000), residuals and eigenvalues=
  6.22E-23  1.33E-23  8.88E-24  9.24E-23
 -7.5956E-01  3.6417E-01  5.2225E-01  5.2225E-01
 Non-SCF case, kpt    9 (  0.25000  0.25000 -0.25000), residuals and eigenvalues=
  1.38E-23  1.68E-23  1.92E-23  5.58E-24
 -7.0938E-01  2.6639E-01  3.9951E-01  4.3494E-01
 Non-SCF case, kpt   10 ( -0.25000 -0.25000  0.25000), residuals and eigenvalues=
  1.20E-23  1.19E-23  2.04E-23  9.05E-23
 -7.0938E-01  2.6639E-01  3.9951E-01  4.3494E-01
 Non-SCF case, kpt   11 (  0.25000  0.50000  0.00000), residuals and eigenvalues=
  1.95E-23  1.51E-23  2.32E-23  6.56E-23
 -7.0938E-01  2.6639E-01  3.9951E-01  4.3494E-01
 Non-SCF case, kpt   12 ( -0.25000 -0.50000  0.00000), residuals and eigenvalues=
  2.13E-23  1.96E-23  2.19E-23  8.27E-23
 -7.0938E-01  2.6639E-01  3.9951E-01  4.3494E-01
 Non-SCF case, kpt   13 (  0.50000  0.25000  0.00000), residuals and eigenvalues=
  2.49E-23  2.82E-23  2.13E-23  7.61E-23
 -7.0938E-01  2.6639E-01  3.9951E-01  4.3494E-01
 Non-SCF case, kpt   14 ( -0.50000 -0.25000  0.00000), residuals and eigenvalues=
  1.93E-23  1.55E-23  2.07E-23  3.69E-23
 -7.0938E-01  2.6639E-01  3.9951E-01  4.3494E-01
 Non-SCF case, kpt   15 (  0.50000  0.50000  0.25000), residuals and eigenvalues=
  1.12E-23  1.21E-23  8.51E-23  5.84E-23
 -7.0938E-01  2.6639E-01  3.9951E-01  4.3494E-01
 Non-SCF case, kpt   16 ( -0.50000 -0.50000 -0.25000), residuals and eigenvalues=
  1.67E-23  2.53E-23  9.10E-23  9.76E-23
 -7.0938E-01  2.6639E-01  3.9951E-01  4.3494E-01
 Non-SCF case, kpt   17 (  0.25000 -0.25000  0.25000), residuals and eigenvalues=
  1.71E-23  1.87E-23  2.62E-23  9.42E-23
 -7.0938E-01  2.6639E-01  3.9951E-01  4.3494E-01
 Non-SCF case, kpt   18 ( -0.25000  0.25000 -0.25000), residuals and eigenvalues=
  2.00E-23  2.78E-23  2.37E-23  1.69E-23
 -7.0938E-01  2.6639E-01  3.9951E-01  4.3494E-01
 Non-SCF case, kpt   19 (  0.25000  0.00000  0.50000), residuals and eigenvalues=
  1.63E-23  1.48E-23  1.58E-23  9.56E-23
 -7.0938E-01  2.6639E-01  3.9951E-01  4.3494E-01
 Non-SCF case, kpt   20 ( -0.25000  0.00000 -0.50000), residuals and eigenvalues=
  2.01E-23  2.28E-23  1.75E-23  9.79E-24
 -7.0938E-01  2.6639E-01  3.9951E-01  4.3494E-01
 Non-SCF case, kpt   21 (  0.50000  0.25000  0.50000), residuals and eigenvalues=
  2.58E-23  4.44E-23  1.48E-23  1.18E-23
 -7.0938E-01  2.6639E-01  3.9951E-01  4.3494E-01
 Non-SCF case, kpt   22 ( -0.50000 -0.25000 -0.50000), residuals and eigenvalues=
  1.62E-23  1.98E-23  1.38E-23  5.96E-23
 -7.0938E-01  2.6639E-01  3.9951E-01  4.3494E-01
 Non-SCF case, kpt   23 (  0.50000  0.00000  0.25000), residuals and eigenvalues=
  1.82E-23  2.74E-23  2.44E-23  5.56E-23
 -7.0938E-01  2.6639E-01  3.9951E-01  4.3494E-01
 Non-SCF case, kpt   24 ( -0.50000  0.00000 -0.25000), residuals and eigenvalues=
  2.14E-23  3.56E-23  2.62E-23  7.77E-23
 -7.0938E-01  2.6639E-01  3.9951E-01  4.3494E-01
 Non-SCF case, kpt   25 ( -0.25000  0.25000  0.25000), residuals and eigenvalues=
  2.57E-23  5.06E-23  3.88E-23  6.51E-23
 -7.0938E-01  2.6639E-01  3.9951E-01  4.3494E-01
 Non-SCF case, kpt   26 (  0.25000 -0.25000 -0.25000), residuals and eigenvalues=
  2.46E-23  4.62E-23  4.01E-23  4.79E-23
 -7.0938E-01  2.6639E-01  3.9951E-01  4.3494E-01
 Non-SCF case, kpt   27 (  0.25000  0.50000  0.50000), residuals and eigenvalues=
  2.25E-23  3.37E-23  2.43E-23  5.58E-23
 -7.0938E-01  2.6639E-01  3.9951E-01  4.3494E-01
 Non-SCF case, kpt   28 ( -0.25000 -0.50000 -0.50000), residuals and eigenvalues=
  2.69E-23  4.58E-23  2.47E-23  9.50E-23
 -7.0938E-01  2.6639E-01  3.9951E-01  4.3494E-01
 Non-SCF case, kpt   29 (  0.00000  0.25000  0.50000), residuals and eigenvalues=
  1.74E-23  3.13E-23  1.18E-23  5.78E-24
 -7.0938E-01  2.6639E-01  3.9951E-01  4.3494E-01
 Non-SCF case, kpt   30 (  0.00000 -0.25000 -0.50000), residuals and eigenvalues=
  1.30E-23  1.85E-23  1.14E-23  7.94E-23
 -7.0938E-01  2.6639E-01  3.9951E-01  4.3494E-01
 Non-SCF case, kpt   31 (  0.00000  0.50000  0.25000), residuals and eigenvalues=
  1.43E-23  3.08E-23  9.86E-23  6.81E-23
 -7.0938E-01  2.6639E-01  3.9951E-01  4.3494E-01
 Non-SCF case, kpt   32 (  0.00000 -0.50000 -0.25000), residuals and eigenvalues=
  1.53E-23  3.55E-23  9.92E-23  8.52E-23
 -7.0938E-01  2.6639E-01  3.9951E-01  4.3494E-01
================================================================================

 ----iterations are completed or convergence reached----

 Mean square residual over all n,k,spin=   3.7112E-23; max=  9.9248E-23
   0.2500  0.2500  0.2500    1  6.50957E-23 kpt; spin; max resid(k); each band:
  2.42E-23 4.79E-24 6.51E-23 4.56E-23
  -0.2500 -0.2500 -0.2500    1  9.87943E-23 kpt; spin; max resid(k); each band:
  4.81E-23 1.25E-23 9.88E-23 7.69E-23
   0.2500  0.0000  0.0000    1  8.04073E-23 kpt; spin; max resid(k); each band:
  8.04E-23 1.65E-23 6.70E-24 7.55E-23
  -0.2500  0.0000  0.0000    1  5.65200E-23 kpt; spin; max resid(k); each band:
  5.65E-23 8.78E-24 1.08E-23 3.33E-23
   0.0000  0.2500  0.0000    1  8.23286E-23 kpt; spin; max resid(k); each band:
  8.23E-23 1.51E-23 3.52E-23 6.78E-23
   0.0000 -0.2500  0.0000    1  9.17385E-23 kpt; spin; max resid(k); each band:
  9.17E-23 1.16E-23 1.01E-23 8.91E-23
   0.0000  0.0000  0.2500    1  7.05556E-23 kpt; spin; max resid(k); each band:
  5.28E-23 1.68E-23 1.40E-23 7.06E-23
   0.0000  0.0000 -0.2500    1  9.23570E-23 kpt; spin; max resid(k); each band:
  6.22E-23 1.33E-23 8.88E-24 9.24E-23
   0.2500  0.2500 -0.2500    1  1.91652E-23 kpt; spin; max resid(k); each band:
  1.38E-23 1.68E-23 1.92E-23 5.58E-24
  -0.2500 -0.2500  0.2500    1  9.04894E-23 kpt; spin; max resid(k); each band:
  1.20E-23 1.19E-23 2.04E-23 9.05E-23
   0.2500  0.5000  0.0000    1  6.55700E-23 kpt; spin; max resid(k); each band:
  1.95E-23 1.51E-23 2.32E-23 6.56E-23
  -0.2500 -0.5000  0.0000    1  8.27146E-23 kpt; spin; max resid(k); each band:
  2.13E-23 1.96E-23 2.19E-23 8.27E-23
   0.5000  0.2500  0.0000    1  7.61027E-23 kpt; spin; max resid(k); each band:
  2.49E-23 2.82E-23 2.13E-23 7.61E-23
  -0.5000 -0.2500  0.0000    1  3.68979E-23 kpt; spin; max resid(k); each band:
  1.93E-23 1.55E-23 2.07E-23 3.69E-23
   0.5000  0.5000  0.2500    1  8.50906E-23 kpt; spin; max resid(k); each band:
  1.12E-23 1.21E-23 8.51E-23 5.84E-23
  -0.5000 -0.5000 -0.2500    1  9.75502E-23 kpt; spin; max resid(k); each band:
  1.67E-23 2.53E-23 9.10E-23 9.76E-23
   0.2500 -0.2500  0.2500    1  9.41564E-23 kpt; spin; max resid(k); each band:
  1.71E-23 1.87E-23 2.62E-23 9.42E-23
  -0.2500  0.2500 -0.2500    1  2.77576E-23 kpt; spin; max resid(k); each band:
  2.00E-23 2.78E-23 2.37E-23 1.69E-23
   0.2500  0.0000  0.5000    1  9.56259E-23 kpt; spin; max resid(k); each band:
  1.63E-23 1.48E-23 1.58E-23 9.56E-23
  -0.2500  0.0000 -0.5000    1  2.28259E-23 kpt; spin; max resid(k); each band:
  2.01E-23 2.28E-23 1.75E-23 9.79E-24
   0.5000  0.2500  0.5000    1  4.43548E-23 kpt; spin; max resid(k); each band:
  2.58E-23 4.44E-23 1.48E-23 1.18E-23
  -0.5000 -0.2500 -0.5000    1  5.96150E-23 kpt; spin; max resid(k); each band:
  1.62E-23 1.98E-23 1.38E-23 5.96E-23
   0.5000  0.0000  0.2500    1  5.56254E-23 kpt; spin; max resid(k); each band:
  1.82E-23 2.74E-23 2.44E-23 5.56E-23
  -0.5000  0.0000 -0.2500    1  7.76956E-23 kpt; spin; max resid(k); each band:
  2.14E-23 3.56E-23 2.62E-23 7.77E-23
  -0.2500  0.2500  0.2500    1  6.50527E-23 kpt; spin; max resid(k); each band:
  2.57E-23 5.06E-23 3.88E-23 6.51E-23
   0.2500 -0.2500 -0.2500    1  4.79177E-23 kpt; spin; max resid(k); each band:
  2.46E-23 4.62E-23 4.01E-23 4.79E-23
   0.2500  0.5000  0.5000    1  5.57631E-23 kpt; spin; max resid(k); each band:
  2.25E-23 3.37E-23 2.43E-23 5.58E-23
  -0.2500 -0.5000 -0.5000    1  9.49640E-23 kpt; spin; max resid(k); each band:
  2.69E-23 4.58E-23 2.47E-23 9.50E-23
   0.0000  0.2500  0.5000    1  3.13067E-23 kpt; spin; max resid(k); each band:
  1.74E-23 3.13E-23 1.18E-23 5.78E-24
   0.0000 -0.2500 -0.5000    1  7.94153E-23 kpt; spin; max resid(k); each band:
  1.30E-23 1.85E-23 1.14E-23 7.94E-23
   0.0000  0.5000  0.2500    1  9.86438E-23 kpt; spin; max resid(k); each band:
  1.43E-23 3.08E-23 9.86E-23 6.81E-23
   0.0000 -0.5000 -0.2500    1  9.92478E-23 kpt; spin; max resid(k); each band:
  1.53E-23 3.55E-23 9.92E-23 8.52E-23
 reduced coordinates (array xred) for    2 atoms
       0.000000000000      0.000000000000      0.000000000000
       0.500000000000      0.500000000000      0.500000000000

 cartesian coordinates (angstrom) at end:
    1      0.00000000000000     0.00000000000000     0.00000000000000
    2      2.04864696933007     2.04864696933007     2.04864696933007
 length scales=  7.742763430000  7.742763430000  7.742763430000 bohr
              =  4.097293938660  4.097293938660  4.097293938660 angstroms
 prteigrs : about to open file t37o_DS2_EIG
 Eigenvalues (hartree) for nkpt=  32  k points:
 kpt#   1, nband=  4, wtk=  1.00000, kpt=  0.2500  0.2500  0.2500 (reduced coord)
  -0.75956   0.36417   0.52225   0.52225
 kpt#   2, nband=  4, wtk=  1.00000, kpt= -0.2500 -0.2500 -0.2500 (reduced coord)
  -0.75956   0.36417   0.52225   0.52225
 kpt#   3, nband=  4, wtk=  1.00000, kpt=  0.2500  0.0000  0.0000 (reduced coord)
  -0.75956   0.36417   0.52225   0.52225
 kpt#   4, nband=  4, wtk=  1.00000, kpt= -0.2500  0.0000  0.0000 (reduced coord)
  -0.75956   0.36417   0.52225   0.52225
 kpt#   5, nband=  4, wtk=  1.00000, kpt=  0.0000  0.2500  0.0000 (reduced coord)
  -0.75956   0.36417   0.52225   0.52225
 kpt#   6, nband=  4, wtk=  1.00000, kpt=  0.0000 -0.2500  0.0000 (reduced coord)
  -0.75956   0.36417   0.52225   0.52225
 kpt#   7, nband=  4, wtk=  1.00000, kpt=  0.0000  0.0000  0.2500 (reduced coord)
  -0.75956   0.36417   0.52225   0.52225
 kpt#   8, nband=  4, wtk=  1.00000, kpt=  0.0000  0.0000 -0.2500 (reduced coord)
  -0.75956   0.36417   0.52225   0.52225
 kpt#   9, nband=  4, wtk=  1.00000, kpt=  0.2500  0.2500 -0.2500 (reduced coord)
  -0.70938   0.26639   0.39951   0.43494
 kpt#  10, nband=  4, wtk=  1.00000, kpt= -0.2500 -0.2500  0.2500 (reduced coord)
  -0.70938   0.26639   0.39951   0.43494
 kpt#  11, nband=  4, wtk=  1.00000, kpt=  0.2500  0.5000  0.0000 (reduced coord)
  -0.70938   0.26639   0.39951   0.43494
 kpt#  12, nband=  4, wtk=  1.00000, kpt= -0.2500 -0.5000  0.0000 (reduced coord)
  -0.70938   0.26639   0.39951   0.43494
 kpt#  13, nband=  4, wtk=  1.00000, kpt=  0.5000  0.2500  0.0000 (reduced coord)
  -0.70938   0.26639   0.39951   0.43494
 kpt#  14, nband=  4, wtk=  1.00000, kpt= -0.5000 -0.2500  0.0000 (reduced coord)
  -0.70938   0.26639   0.39951   0.43494
 kpt#  15, nband=  4, wtk=  1.00000, kpt=  0.5000  0.5000  0.2500 (reduced coord)
  -0.70938   0.26639   0.39951   0.43494
 kpt#  16, nband=  4, wtk=  1.00000, kpt= -0.5000 -0.5000 -0.2500 (reduced coord)
  -0.70938   0.26639   0.39951   0.43494
 kpt#  17, nband=  4, wtk=  1.00000, kpt=  0.2500 -0.2500  0.2500 (reduced coord)
  -0.70938   0.26639   0.39951   0.43494
 kpt#  18, nband=  4, wtk=  1.00000, kpt= -0.2500  0.2500 -0.2500 (reduced coord)
  -0.70938   0.26639   0.39951   0.43494
 kpt#  19, nband=  4, wtk=  1.00000, kpt=  0.2500  0.0000  0.5000 (reduced coord)
  -0.70938   0.26639   0.39951   0.43494
 kpt#  20, nband=  4, wtk=  1.00000, kpt= -0.2500  0.0000 -0.5000 (reduced coord)
  -0.70938   0.26639   0.39951   0.43494
 kpt#  21, nband=  4, wtk=  1.00000, kpt=  0.5000  0.2500  0.5000 (reduced coord)
  -0.70938   0.26639   0.39951   0.43494
 kpt#  22, nband=  4, wtk=  1.00000, kpt= -0.5000 -0.2500 -0.5000 (reduced coord)
  -0.70938   0.26639   0.39951   0.43494
 kpt#  23, nband=  4, wtk=  1.00000, kpt=  0.5000  0.0000  0.2500 (reduced coord)
  -0.70938   0.26639   0.39951   0.43494
 kpt#  24, nband=  4, wtk=  1.00000, kpt= -0.5000  0.0000 -0.2500 (reduced coord)
  -0.70938   0.26639   0.39951   0.43494
 kpt#  25, nband=  4, wtk=  1.00000, kpt= -0.2500  0.2500  0.2500 (reduced coord)
  -0.70938   0.26639   0.39951   0.43494
 kpt#  26, nband=  4, wtk=  1.00000, kpt=  0.2500 -0.2500 -0.2500 (reduced coord)
  -0.70938   0.26639   0.39951   0.43494
 kpt#  27, nband=  4, wtk=  1.00000, kpt=  0.2500  0.5000  0.5000 (reduced coord)
  -0.70938   0.26639   0.39951   0.43494
 kpt#  28, nband=  4, wtk=  1.00000, kpt= -0.2500 -0.5000 -0.5000 (reduced coord)
  -0.70938   0.26639   0.39951   0.43494
 kpt#  29, nband=  4, wtk=  1.00000, kpt=  0.0000  0.2500  0.5000 (reduced coord)
  -0.70938   0.26639   0.39951   0.43494
 kpt#  30, nband=  4, wtk=  1.00000, kpt=  0.0000 -0.2500 -0.5000 (reduced coord)
  -0.70938   0.26639   0.39951   0.43494
 kpt#  31, nband=  4, wtk=  1.00000, kpt=  0.0000  0.5000  0.2500 (reduced coord)
  -0.70938   0.26639   0.39951   0.43494
 kpt#  32, nband=  4, wtk=  1.00000, kpt=  0.0000 -0.5000 -0.2500 (reduced coord)
  -0.70938   0.26639   0.39951   0.43494
 Total charge density [el/Bohr^3]
,     Maximum=    1.9651E-01  at reduced coord.    0.5000    0.5000    0.5000
,Next maximum=    1.8956E-01  at reduced coord.    0.5000    0.5000    0.6250
,     Minimum=    1.4605E-03  at reduced coord.    0.0000    0.0000    0.0000
,Next minimum=    5.5982E-03  at reduced coord.    0.1250    0.0000    0.0000
,  Integrated=    8.0000E+00

================================================================================
== DATASET  3 ==================================================================
-   nproc =    1

 mkfilename : getwfk/=0, take file _WFK from output of DATASET   2.

 mkfilename : getden/=0, take file _DEN from output of DATASET   1.

 Exchange-correlation functional for the present dataset will be:
  LDA: new Teter (4/93) with spin-polarized option - ixc=1
 Citation for XC functional:
  S. Goedecker, M. Teter, J. Huetter, PRB 54, 1703 (1996)

 Real(R)+Recip(G) space primitive vectors, cartesian coordinates (Bohr,Bohr^-1):
 R(1)=  0.0000000  3.8713817  3.8713817  G(1)= -0.1291529  0.1291529  0.1291529
 R(2)=  3.8713817  0.0000000  3.8713817  G(2)=  0.1291529 -0.1291529  0.1291529
 R(3)=  3.8713817  3.8713817  0.0000000  G(3)=  0.1291529  0.1291529 -0.1291529
 Unit cell volume ucvol=  1.1604541E+02 bohr^3
 Angles (23,13,12)=  6.00000000E+01  6.00000000E+01  6.00000000E+01 degrees

 getcut: wavevector=  0.0000  0.0000  0.0000  ngfft=   8   8   8
         ecut(hartree)=      2.000   => boxcut(ratio)=   2.29524

 getcut : COMMENT -
  Note that boxcut > 2.2 ; recall that boxcut=Gcut(box)/Gcut(sphere) = 2
  is sufficient for exact treatment of convolution.
  Such a large boxcut is a waste : you could raise ecut
  e.g. ecut=    2.634073 Hartrees makes boxcut=2

--------------------------------------------------------------------------------

-inwffil : will read wavefunctions from disk file t37o_DS2_WFK
- newkpt: read input wf with ikpt,npw=   1      14, make ikpt,npw=   1      14
- newkpt: read input wf with ikpt,npw=   2      14, make ikpt,npw=   2      14
- newkpt: read input wf with ikpt,npw=   3      14, make ikpt,npw=   3      14
- newkpt: read input wf with ikpt,npw=   4      22, make ikpt,npw=   4      22
- newkpt: read input wf with ikpt,npw=   5      16, make ikpt,npw=   5      16
- newkpt: read input wf with ikpt,npw=   6      14, make ikpt,npw=   6      14
- newkpt: read input wf with ikpt,npw=   7      16, make ikpt,npw=   7      16
- newkpt: read input wf with ikpt,npw=   8      14, make ikpt,npw=   8      14
- newkpt: read input wf with ikpt,npw=   9      16, make ikpt,npw=   9      16
- newkpt: read input wf with ikpt,npw=  10      14, make ikpt,npw=  10      14
- newkpt: read input wf with ikpt,npw=  11      22, make ikpt,npw=  11      22
- newkpt: read input wf with ikpt,npw=  12      14, make ikpt,npw=  12      14
- newkpt: read input wf with ikpt,npw=  13      14, make ikpt,npw=  13      14
- newkpt: read input wf with ikpt,npw=  14      16, make ikpt,npw=  14      16
- newkpt: read input wf with ikpt,npw=  15      14, make ikpt,npw=  15      14
- newkpt: read input wf with ikpt,npw=  16      14, make ikpt,npw=  16      14
- newkpt: read input wf with ikpt,npw=  17      16, make ikpt,npw=  17      16
- newkpt: read input wf with ikpt,npw=  18      14, make ikpt,npw=  18      14
- newkpt: read input wf with ikpt,npw=  19      22, make ikpt,npw=  19      22
- newkpt: read input wf with ikpt,npw=  20      14, make ikpt,npw=  20      14
- newkpt: read input wf with ikpt,npw=  21      14, make ikpt,npw=  21      14
- newkpt: read input wf with ikpt,npw=  22      14, make ikpt,npw=  22      14
- newkpt: read input wf with ikpt,npw=  23      14, make ikpt,npw=  23      14
- newkpt: read input wf with ikpt,npw=  24      16, make ikpt,npw=  24      16
- newkpt: read input wf with ikpt,npw=  25      14, make ikpt,npw=  25      14
- newkpt: read input wf with ikpt,npw=  26      14, make ikpt,npw=  26      14
- newkpt: read input wf with ikpt,npw=  27      14, make ikpt,npw=  27      14
- newkpt: read input wf with ikpt,npw=  28      15, make ikpt,npw=  28      15
- newkpt: read input wf with ikpt,npw=  29      14, make ikpt,npw=  29      14
- newkpt: read input wf with ikpt,npw=  30      14, make ikpt,npw=  30      14
- newkpt: read input wf with ikpt,npw=  31      14, make ikpt,npw=  31      14
- newkpt: read input wf with ikpt,npw=  32      14, make ikpt,npw=  32      14


================================================================================
 prteigrs : about to open file t37o_DS3_EIG
 Non-SCF case, kpt    1 (  0.50000  0.75000  0.74800), residuals and eigenvalues=
  3.28E-23  9.08E-23  5.51E-23  3.61E-23
 -7.0075E-01  2.7928E-01  3.8977E-01  5.0792E-01
 Non-SCF case, kpt    2 (  0.00000  0.25000  0.24800), residuals and eigenvalues=
  8.42E-23  3.75E-23  2.35E-23  1.94E-24
 -7.2503E-01  3.6585E-01  4.8960E-01  4.8961E-01
 Non-SCF case, kpt    3 (  0.50000  0.50000  0.49800), residuals and eigenvalues=
  3.86E-23  7.38E-23  6.03E-23  2.94E-25
 -6.9962E-01  2.2993E-01  4.7319E-01  4.7320E-01
 Non-SCF case, kpt    4 (  0.00000  0.50000  0.49800), residuals and eigenvalues=
  6.09E-24  3.15E-24  1.43E-23  2.11E-23
 -8.3890E-01  1.6139E-01  3.6971E-01  3.6972E-01
 Non-SCF case, kpt    5 (  0.25000  0.75000  0.49800), residuals and eigenvalues=
  1.50E-23  4.69E-24  3.34E-24  1.51E-24
 -7.2236E-01  2.8903E-01  2.8985E-01  4.2260E-01
 Non-SCF case, kpt    6 (  0.25000  0.25000  0.49800), residuals and eigenvalues=
  9.22E-23  2.59E-23  6.05E-23  3.36E-23
 -7.0098E-01  2.7946E-01  3.9060E-01  5.0833E-01
 Non-SCF case, kpt    7 (  0.25000  0.50000  0.74800), residuals and eigenvalues=
  1.50E-23  4.69E-24  3.34E-24  1.50E-24
 -7.2236E-01  2.8903E-01  2.8985E-01  4.2260E-01
 Non-SCF case, kpt    8 (  0.25000  0.50000  0.24800), residuals and eigenvalues=
  3.28E-23  9.08E-23  5.51E-23  3.61E-23
 -7.0075E-01  2.7928E-01  3.8977E-01  5.0792E-01
 Non-SCF case, kpt    9 (  0.50000  0.75000  0.24800), residuals and eigenvalues=
  1.50E-23  4.69E-24  3.34E-24  1.51E-24
 -7.2236E-01  2.8903E-01  2.8985E-01  4.2260E-01
 Non-SCF case, kpt   10 (  0.00000  0.25000  0.74800), residuals and eigenvalues=
  8.50E-23  1.59E-25  1.17E-23  1.39E-24
 -7.0053E-01  2.7911E-01  3.8894E-01  5.0754E-01
 Non-SCF case, kpt   11 (  0.50000  1.00000  0.49800), residuals and eigenvalues=
  6.09E-24  3.15E-24  1.43E-23  1.45E-23
 -8.3890E-01  1.6139E-01  3.6971E-01  3.6972E-01
 Non-SCF case, kpt   12 (  0.00000  0.00000  0.49800), residuals and eigenvalues=
  6.81E-23  2.96E-25  4.27E-27  6.03E-25
 -6.9962E-01  2.2993E-01  4.7320E-01  4.7320E-01
 Non-SCF case, kpt   13 (  0.75000  0.75000  0.49800), residuals and eigenvalues=
  8.50E-23  1.59E-25  1.17E-23  1.03E-23
 -7.0053E-01  2.7911E-01  3.8894E-01  5.0754E-01
 Non-SCF case, kpt   14 ( -0.25000  0.25000  0.49800), residuals and eigenvalues=
  1.50E-23  4.69E-24  3.34E-24  1.50E-24
 -7.2236E-01  2.8903E-01  2.8985E-01  4.2260E-01
 Non-SCF case, kpt   15 (  0.75000  1.00000  0.74800), residuals and eigenvalues=
  2.32E-23  3.22E-23  6.26E-24  1.65E-23
 -7.2460E-01  3.6462E-01  4.8906E-01  4.8907E-01
 Non-SCF case, kpt   16 ( -0.25000  0.00000  0.24800), residuals and eigenvalues=
  7.47E-23  1.52E-23  4.03E-23  2.90E-23
 -7.0098E-01  2.7946E-01  3.9060E-01  5.0833E-01
 Non-SCF case, kpt   17 (  0.50000  0.25000  0.74800), residuals and eigenvalues=
  1.50E-23  4.69E-24  3.34E-24  1.50E-24
 -7.2236E-01  2.8903E-01  2.8985E-01  4.2260E-01
 Non-SCF case, kpt   18 (  0.00000  0.75000  0.24800), residuals and eigenvalues=
  9.22E-23  2.59E-23  6.06E-23  3.36E-23
 -7.0098E-01  2.7946E-01  3.9060E-01  5.0833E-01
 Non-SCF case, kpt   19 (  0.50000  0.50000  0.99800), residuals and eigenvalues=
  6.08E-24  3.15E-24  1.43E-23  2.11E-23
 -8.3890E-01  1.6139E-01  3.6971E-01  3.6972E-01
 Non-SCF case, kpt   20 (  0.00000  0.50000 -0.00200), residuals and eigenvalues=
  3.86E-23  7.38E-23  6.03E-23  3.54E-24
 -6.9962E-01  2.2993E-01  4.7319E-01  4.7320E-01
 Non-SCF case, kpt   21 (  0.75000  0.75000  0.99800), residuals and eigenvalues=
  8.40E-23  3.75E-23  2.36E-23  2.00E-24
 -7.2503E-01  3.6585E-01  4.8960E-01  4.8961E-01
 Non-SCF case, kpt   22 ( -0.25000  0.25000 -0.00200), residuals and eigenvalues=
  3.28E-23  9.08E-23  5.51E-23  3.61E-23
 -7.0075E-01  2.7928E-01  3.8977E-01  5.0792E-01
 Non-SCF case, kpt   23 (  0.75000  0.50000  0.74800), residuals and eigenvalues=
  3.28E-23  9.08E-23  5.51E-23  3.61E-23
 -7.0075E-01  2.7928E-01  3.8977E-01  5.0792E-01
 Non-SCF case, kpt   24 ( -0.25000  0.50000  0.24800), residuals and eigenvalues=
  1.50E-23  4.69E-24  3.34E-24  1.50E-24
 -7.2236E-01  2.8903E-01  2.8985E-01  4.2260E-01
 Non-SCF case, kpt   25 (  0.00000  0.75000  0.74800), residuals and eigenvalues=
  2.32E-23  3.22E-23  6.25E-24  9.56E-24
 -7.2460E-01  3.6462E-01  4.8906E-01  4.8907E-01
 Non-SCF case, kpt   26 (  0.50000  0.25000  0.24800), residuals and eigenvalues=
  3.28E-23  9.08E-23  5.51E-23  3.61E-23
 -7.0075E-01  2.7928E-01  3.8977E-01  5.0792E-01
 Non-SCF case, kpt   27 (  0.50000  1.00000  0.99800), residuals and eigenvalues=
  3.86E-23  7.38E-23  6.03E-23  3.03E-24
 -6.9962E-01  2.2993E-01  4.7319E-01  4.7320E-01
 Non-SCF case, kpt   28 (  0.00000  0.00000 -0.00200), residuals and eigenvalues=
  1.42E-23  3.44E-23  2.22E-23  3.70E-23
 -7.8643E-01  5.4973E-01  5.4993E-01  5.4993E-01
 Non-SCF case, kpt   29 (  0.25000  0.75000  0.99800), residuals and eigenvalues=
  3.28E-23  9.08E-23  5.51E-23  3.61E-23
 -7.0075E-01  2.7928E-01  3.8977E-01  5.0792E-01
 Non-SCF case, kpt   30 (  0.25000  0.25000 -0.00200), residuals and eigenvalues=
  2.32E-23  3.22E-23  6.26E-24  5.45E-23
 -7.2460E-01  3.6462E-01  4.8906E-01  4.8907E-01
 Non-SCF case, kpt   31 (  0.25000  1.00000  0.74800), residuals and eigenvalues=
  8.50E-23  1.59E-25  1.17E-23  1.81E-23
 -7.0053E-01  2.7911E-01  3.8894E-01  5.0754E-01
 Non-SCF case, kpt   32 (  0.25000  0.00000  0.24800), residuals and eigenvalues=
  1.09E-23  3.63E-23  5.87E-23  8.74E-23
 -7.2503E-01  3.6585E-01  4.8960E-01  4.8961E-01
================================================================================

 ----iterations are completed or convergence reached----

 Mean square residual over all n,k,spin=   3.0637E-23; max=  9.2212E-23
   0.5000  0.7500  0.7480    1  9.07923E-23 kpt; spin; max resid(k); each band:
  3.28E-23 9.08E-23 5.51E-23 3.61E-23
   0.0000  0.2500  0.2480    1  8.41584E-23 kpt; spin; max resid(k); each band:
  8.42E-23 3.75E-23 2.35E-23 1.94E-24
   0.5000  0.5000  0.4980    1  7.37889E-23 kpt; spin; max resid(k); each band:
  3.86E-23 7.38E-23 6.03E-23 2.94E-25
   0.0000  0.5000  0.4980    1  2.11120E-23 kpt; spin; max resid(k); each band:
  6.09E-24 3.15E-24 1.43E-23 2.11E-23
   0.2500  0.7500  0.4980    1  1.49613E-23 kpt; spin; max resid(k); each band:
  1.50E-23 4.69E-24 3.34E-24 1.51E-24
   0.2500  0.2500  0.4980    1  9.22117E-23 kpt; spin; max resid(k); each band:
  9.22E-23 2.59E-23 6.05E-23 3.36E-23
   0.2500  0.5000  0.7480    1  1.49617E-23 kpt; spin; max resid(k); each band:
  1.50E-23 4.69E-24 3.34E-24 1.50E-24
   0.2500  0.5000  0.2480    1  9.07932E-23 kpt; spin; max resid(k); each band:
  3.28E-23 9.08E-23 5.51E-23 3.61E-23
   0.5000  0.7500  0.2480    1  1.49615E-23 kpt; spin; max resid(k); each band:
  1.50E-23 4.69E-24 3.34E-24 1.51E-24
   0.0000  0.2500  0.7480    1  8.50092E-23 kpt; spin; max resid(k); each band:
  8.50E-23 1.59E-25 1.17E-23 1.39E-24
   0.5000  1.0000  0.4980    1  1.44804E-23 kpt; spin; max resid(k); each band:
  6.09E-24 3.15E-24 1.43E-23 1.45E-23
   0.0000  0.0000  0.4980    1  6.80553E-23 kpt; spin; max resid(k); each band:
  6.81E-23 2.96E-25 4.27E-27 6.03E-25
   0.7500  0.7500  0.4980    1  8.50127E-23 kpt; spin; max resid(k); each band:
  8.50E-23 1.59E-25 1.17E-23 1.03E-23
  -0.2500  0.2500  0.4980    1  1.49613E-23 kpt; spin; max resid(k); each band:
  1.50E-23 4.69E-24 3.34E-24 1.50E-24
   0.7500  1.0000  0.7480    1  3.22127E-23 kpt; spin; max resid(k); each band:
  2.32E-23 3.22E-23 6.26E-24 1.65E-23
  -0.2500  0.0000  0.2480    1  7.46994E-23 kpt; spin; max resid(k); each band:
  7.47E-23 1.52E-23 4.03E-23 2.90E-23
   0.5000  0.2500  0.7480    1  1.49623E-23 kpt; spin; max resid(k); each band:
  1.50E-23 4.69E-24 3.34E-24 1.50E-24
   0.0000  0.7500  0.2480    1  9.21861E-23 kpt; spin; max resid(k); each band:
  9.22E-23 2.59E-23 6.06E-23 3.36E-23
   0.5000  0.5000  0.9980    1  2.10660E-23 kpt; spin; max resid(k); each band:
  6.08E-24 3.15E-24 1.43E-23 2.11E-23
   0.0000  0.5000 -0.0020    1  7.37882E-23 kpt; spin; max resid(k); each band:
  3.86E-23 7.38E-23 6.03E-23 3.54E-24
   0.7500  0.7500  0.9980    1  8.40465E-23 kpt; spin; max resid(k); each band:
  8.40E-23 3.75E-23 2.36E-23 2.00E-24
  -0.2500  0.2500 -0.0020    1  9.07933E-23 kpt; spin; max resid(k); each band:
  3.28E-23 9.08E-23 5.51E-23 3.61E-23
   0.7500  0.5000  0.7480    1  9.07929E-23 kpt; spin; max resid(k); each band:
  3.28E-23 9.08E-23 5.51E-23 3.61E-23
  -0.2500  0.5000  0.2480    1  1.49615E-23 kpt; spin; max resid(k); each band:
  1.50E-23 4.69E-24 3.34E-24 1.50E-24
   0.0000  0.7500  0.7480    1  3.22083E-23 kpt; spin; max resid(k); each band:
  2.32E-23 3.22E-23 6.25E-24 9.56E-24
   0.5000  0.2500  0.2480    1  9.07916E-23 kpt; spin; max resid(k); each band:
  3.28E-23 9.08E-23 5.51E-23 3.61E-23
   0.5000  1.0000  0.9980    1  7.37887E-23 kpt; spin; max resid(k); each band:
  3.86E-23 7.38E-23 6.03E-23 3.03E-24
   0.0000  0.0000 -0.0020    1  3.69644E-23 kpt; spin; max resid(k); each band:
  1.42E-23 3.44E-23 2.22E-23 3.70E-23
   0.2500  0.7500  0.9980    1  9.07940E-23 kpt; spin; max resid(k); each band:
  3.28E-23 9.08E-23 5.51E-23 3.61E-23
   0.2500  0.2500 -0.0020    1  5.45469E-23 kpt; spin; max resid(k); each band:
  2.32E-23 3.22E-23 6.26E-24 5.45E-23
   0.2500  1.0000  0.7480    1  8.50141E-23 kpt; spin; max resid(k); each band:
  8.50E-23 1.59E-25 1.17E-23 1.81E-23
   0.2500  0.0000  0.2480    1  8.73717E-23 kpt; spin; max resid(k); each band:
  1.09E-23 3.63E-23 5.87E-23 8.74E-23
 reduced coordinates (array xred) for    2 atoms
       0.000000000000      0.000000000000      0.000000000000
       0.500000000000      0.500000000000      0.500000000000

 cartesian coordinates (angstrom) at end:
    1      0.00000000000000     0.00000000000000     0.00000000000000
    2      2.04864696933007     2.04864696933007     2.04864696933007
 length scales=  7.742763430000  7.742763430000  7.742763430000 bohr
              =  4.097293938660  4.097293938660  4.097293938660 angstroms
 prteigrs : about to open file t37o_DS3_EIG
 Eigenvalues (hartree) for nkpt=  32  k points:
 kpt#   1, nband=  4, wtk=  1.00000, kpt=  0.5000  0.7500  0.7480 (reduced coord)
  -0.70075   0.27928   0.38977   0.50792
 kpt#   2, nband=  4, wtk=  1.00000, kpt=  0.0000  0.2500  0.2480 (reduced coord)
  -0.72503   0.36585   0.48960   0.48961
 kpt#   3, nband=  4, wtk=  1.00000, kpt=  0.5000  0.5000  0.4980 (reduced coord)
  -0.69962   0.22993   0.47319   0.47320
 kpt#   4, nband=  4, wtk=  1.00000, kpt=  0.0000  0.5000  0.4980 (reduced coord)
  -0.83890   0.16139   0.36971   0.36972
 kpt#   5, nband=  4, wtk=  1.00000, kpt=  0.2500  0.7500  0.4980 (reduced coord)
  -0.72236   0.28903   0.28985   0.42260
 kpt#   6, nband=  4, wtk=  1.00000, kpt=  0.2500  0.2500  0.4980 (reduced coord)
  -0.70098   0.27946   0.39060   0.50833
 kpt#   7, nband=  4, wtk=  1.00000, kpt=  0.2500  0.5000  0.7480 (reduced coord)
  -0.72236   0.28903   0.28985   0.42260
 kpt#   8, nband=  4, wtk=  1.00000, kpt=  0.2500  0.5000  0.2480 (reduced coord)
  -0.70075   0.27928   0.38977   0.50792
 kpt#   9, nband=  4, wtk=  1.00000, kpt=  0.5000  0.7500  0.2480 (reduced coord)
  -0.72236   0.28903   0.28985   0.42260
 kpt#  10, nband=  4, wtk=  1.00000, kpt=  0.0000  0.2500  0.7480 (reduced coord)
  -0.70053   0.27911   0.38894   0.50754
 kpt#  11, nband=  4, wtk=  1.00000, kpt=  0.5000  1.0000  0.4980 (reduced coord)
  -0.83890   0.16139   0.36971   0.36972
 kpt#  12, nband=  4, wtk=  1.00000, kpt=  0.0000  0.0000  0.4980 (reduced coord)
  -0.69962   0.22993   0.47320   0.47320
 kpt#  13, nband=  4, wtk=  1.00000, kpt=  0.7500  0.7500  0.4980 (reduced coord)
  -0.70053   0.27911   0.38894   0.50754
 kpt#  14, nband=  4, wtk=  1.00000, kpt= -0.2500  0.2500  0.4980 (reduced coord)
  -0.72236   0.28903   0.28985   0.42260
 kpt#  15, nband=  4, wtk=  1.00000, kpt=  0.7500  1.0000  0.7480 (reduced coord)
  -0.72460   0.36462   0.48906   0.48907
 kpt#  16, nband=  4, wtk=  1.00000, kpt= -0.2500  0.0000  0.2480 (reduced coord)
  -0.70098   0.27946   0.39060   0.50833
 kpt#  17, nband=  4, wtk=  1.00000, kpt=  0.5000  0.2500  0.7480 (reduced coord)
  -0.72236   0.28903   0.28985   0.42260
 kpt#  18, nband=  4, wtk=  1.00000, kpt=  0.0000  0.7500  0.2480 (reduced coord)
  -0.70098   0.27946   0.39060   0.50833
 kpt#  19, nband=  4, wtk=  1.00000, kpt=  0.5000  0.5000  0.9980 (reduced coord)
  -0.83890   0.16139   0.36971   0.36972
 kpt#  20, nband=  4, wtk=  1.00000, kpt=  0.0000  0.5000 -0.0020 (reduced coord)
  -0.69962   0.22993   0.47319   0.47320
 kpt#  21, nband=  4, wtk=  1.00000, kpt=  0.7500  0.7500  0.9980 (reduced coord)
  -0.72503   0.36585   0.48960   0.48961
 kpt#  22, nband=  4, wtk=  1.00000, kpt= -0.2500  0.2500 -0.0020 (reduced coord)
  -0.70075   0.27928   0.38977   0.50792
 kpt#  23, nband=  4, wtk=  1.00000, kpt=  0.7500  0.5000  0.7480 (reduced coord)
  -0.70075   0.27928   0.38977   0.50792
 kpt#  24, nband=  4, wtk=  1.00000, kpt= -0.2500  0.5000  0.2480 (reduced coord)
  -0.72236   0.28903   0.28985   0.42260
 kpt#  25, nband=  4, wtk=  1.00000, kpt=  0.0000  0.7500  0.7480 (reduced coord)
  -0.72460   0.36462   0.48906   0.48907
 kpt#  26, nband=  4, wtk=  1.00000, kpt=  0.5000  0.2500  0.2480 (reduced coord)
  -0.70075   0.27928   0.38977   0.50792
 kpt#  27, nband=  4, wtk=  1.00000, kpt=  0.5000  1.0000  0.9980 (reduced coord)
  -0.69962   0.22993   0.47319   0.47320
 kpt#  28, nband=  4, wtk=  1.00000, kpt=  0.0000  0.0000 -0.0020 (reduced coord)
  -0.78643   0.54973   0.54993   0.54993
 kpt#  29, nband=  4, wtk=  1.00000, kpt=  0.2500  0.7500  0.9980 (reduced coord)
  -0.70075   0.27928   0.38977   0.50792
 kpt#  30, nband=  4, wtk=  1.00000, kpt=  0.2500  0.2500 -0.0020 (reduced coord)
  -0.72460   0.36462   0.48906   0.48907
 kpt#  31, nband=  4, wtk=  1.00000, kpt=  0.2500  1.0000  0.7480 (reduced coord)
  -0.70053   0.27911   0.38894   0.50754
 kpt#  32, nband=  4, wtk=  1.00000, kpt=  0.2500  0.0000  0.2480 (reduced coord)
  -0.72503   0.36585   0.48960   0.48961
 Total charge density [el/Bohr^3]
,     Maximum=    1.9651E-01  at reduced coord.    0.5000    0.5000    0.5000
,Next maximum=    1.8956E-01  at reduced coord.    0.5000    0.5000    0.6250
,     Minimum=    1.4605E-03  at reduced coord.    0.0000    0.0000    0.0000
,Next minimum=    5.5982E-03  at reduced coord.    0.1250    0.0000    0.0000
,  Integrated=    8.0000E+00

================================================================================
== DATASET  4 ==================================================================
-   nproc =    1

 mkfilename : getwfk/=0, take file _WFK from output of DATASET   2.

 mkfilename : getwfq/=0, take file _WFQ from output of DATASET   3.

 Exchange-correlation functional for the present dataset will be:
  LDA: new Teter (4/93) with spin-polarized option - ixc=1
 Citation for XC functional:
  S. Goedecker, M. Teter, J. Huetter, PRB 54, 1703 (1996)

 Real(R)+Recip(G) space primitive vectors, cartesian coordinates (Bohr,Bohr^-1):
 R(1)=  0.0000000  3.8713817  3.8713817  G(1)= -0.1291529  0.1291529  0.1291529
 R(2)=  3.8713817  0.0000000  3.8713817  G(2)=  0.1291529 -0.1291529  0.1291529
 R(3)=  3.8713817  3.8713817  0.0000000  G(3)=  0.1291529  0.1291529 -0.1291529
 Unit cell volume ucvol=  1.1604541E+02 bohr^3
 Angles (23,13,12)=  6.00000000E+01  6.00000000E+01  6.00000000E+01 degrees
 setup1 : take into account q-point for computing boxcut.

 getcut: wavevector=  0.2500  0.5000  0.4980  ngfft=   8   8   8
         ecut(hartree)=      2.000   => boxcut(ratio)=   2.01589
--------------------------------------------------------------------------------

-inwffil : will read wavefunctions from disk file t37o_DS2_WFK
- newkpt: read input wf with ikpt,npw=   1      15, make ikpt,npw=   1      15
- newkpt: read input wf with ikpt,npw=   2      15, make ikpt,npw=   2      15
- newkpt: read input wf with ikpt,npw=   3      15, make ikpt,npw=   3      15
- newkpt: read input wf with ikpt,npw=   4      15, make ikpt,npw=   4      15
- newkpt: read input wf with ikpt,npw=   5      15, make ikpt,npw=   5      15
- newkpt: read input wf with ikpt,npw=   6      15, make ikpt,npw=   6      15
- newkpt: read input wf with ikpt,npw=   7      15, make ikpt,npw=   7      15
- newkpt: read input wf with ikpt,npw=   8      15, make ikpt,npw=   8      15
- newkpt: read input wf with ikpt,npw=   9      15, make ikpt,npw=   9      15
- newkpt: read input wf with ikpt,npw=  10      15, make ikpt,npw=  10      15
- newkpt: read input wf with ikpt,npw=  11      15, make ikpt,npw=  11      15
- newkpt: read input wf with ikpt,npw=  12      15, make ikpt,npw=  12      15
- newkpt: read input wf with ikpt,npw=  13      15, make ikpt,npw=  13      15
- newkpt: read input wf with ikpt,npw=  14      15, make ikpt,npw=  14      15
- newkpt: read input wf with ikpt,npw=  15      15, make ikpt,npw=  15      15
- newkpt: read input wf with ikpt,npw=  16      15, make ikpt,npw=  16      15
[...]
                       0.00000000E+00 -2.50000000E-01 -5.00000000E-01
                       0.00000000E+00  5.00000000E-01  2.50000000E-01
                       0.00000000E+00 -5.00000000E-01 -2.50000000E-01
              kpt4     2.50000000E-01  2.50000000E-01  2.50000000E-01
                      -2.50000000E-01 -2.50000000E-01 -2.50000000E-01
                       2.50000000E-01  0.00000000E+00  0.00000000E+00
                      -2.50000000E-01  0.00000000E+00  0.00000000E+00
                       0.00000000E+00  2.50000000E-01  0.00000000E+00
                       0.00000000E+00 -2.50000000E-01  0.00000000E+00
                       0.00000000E+00  0.00000000E+00  2.50000000E-01
                       0.00000000E+00  0.00000000E+00 -2.50000000E-01
                       2.50000000E-01  2.50000000E-01 -2.50000000E-01
                      -2.50000000E-01 -2.50000000E-01  2.50000000E-01
                       2.50000000E-01  5.00000000E-01  0.00000000E+00
                      -2.50000000E-01 -5.00000000E-01  0.00000000E+00
                       5.00000000E-01  2.50000000E-01  0.00000000E+00
                      -5.00000000E-01 -2.50000000E-01  0.00000000E+00
                       5.00000000E-01  5.00000000E-01  2.50000000E-01
                      -5.00000000E-01 -5.00000000E-01 -2.50000000E-01
                       2.50000000E-01 -2.50000000E-01  2.50000000E-01
                      -2.50000000E-01  2.50000000E-01 -2.50000000E-01
                       2.50000000E-01  0.00000000E+00  5.00000000E-01
                      -2.50000000E-01  0.00000000E+00 -5.00000000E-01
                       5.00000000E-01  2.50000000E-01  5.00000000E-01
                      -5.00000000E-01 -2.50000000E-01 -5.00000000E-01
                       5.00000000E-01  0.00000000E+00  2.50000000E-01
                      -5.00000000E-01  0.00000000E+00 -2.50000000E-01
                      -2.50000000E-01  2.50000000E-01  2.50000000E-01
                       2.50000000E-01 -2.50000000E-01 -2.50000000E-01
                       2.50000000E-01  5.00000000E-01  5.00000000E-01
                      -2.50000000E-01 -5.00000000E-01 -5.00000000E-01
                       0.00000000E+00  2.50000000E-01  5.00000000E-01
                       0.00000000E+00 -2.50000000E-01 -5.00000000E-01
                       0.00000000E+00  5.00000000E-01  2.50000000E-01
                       0.00000000E+00 -5.00000000E-01 -2.50000000E-01
              kpt5     2.50000000E-01  2.50000000E-01  2.50000000E-01
                      -2.50000000E-01 -2.50000000E-01 -2.50000000E-01
                       2.50000000E-01  0.00000000E+00  0.00000000E+00
                      -2.50000000E-01  0.00000000E+00  0.00000000E+00
                       0.00000000E+00  2.50000000E-01  0.00000000E+00
                       0.00000000E+00 -2.50000000E-01  0.00000000E+00
                       0.00000000E+00  0.00000000E+00  2.50000000E-01
                       0.00000000E+00  0.00000000E+00 -2.50000000E-01
                       2.50000000E-01  2.50000000E-01 -2.50000000E-01
                      -2.50000000E-01 -2.50000000E-01  2.50000000E-01
                       2.50000000E-01  5.00000000E-01  0.00000000E+00
                      -2.50000000E-01 -5.00000000E-01  0.00000000E+00
                       5.00000000E-01  2.50000000E-01  0.00000000E+00
                      -5.00000000E-01 -2.50000000E-01  0.00000000E+00
                       5.00000000E-01  5.00000000E-01  2.50000000E-01
                      -5.00000000E-01 -5.00000000E-01 -2.50000000E-01
                       2.50000000E-01 -2.50000000E-01  2.50000000E-01
                      -2.50000000E-01  2.50000000E-01 -2.50000000E-01
                       2.50000000E-01  0.00000000E+00  5.00000000E-01
                      -2.50000000E-01  0.00000000E+00 -5.00000000E-01
                       5.00000000E-01  2.50000000E-01  5.00000000E-01
                      -5.00000000E-01 -2.50000000E-01 -5.00000000E-01
                       5.00000000E-01  0.00000000E+00  2.50000000E-01
                      -5.00000000E-01  0.00000000E+00 -2.50000000E-01
                      -2.50000000E-01  2.50000000E-01  2.50000000E-01
                       2.50000000E-01 -2.50000000E-01 -2.50000000E-01
                       2.50000000E-01  5.00000000E-01  5.00000000E-01
                      -2.50000000E-01 -5.00000000E-01 -5.00000000E-01
                       0.00000000E+00  2.50000000E-01  5.00000000E-01
                       0.00000000E+00 -2.50000000E-01 -5.00000000E-01
                       0.00000000E+00  5.00000000E-01  2.50000000E-01
                       0.00000000E+00 -5.00000000E-01 -2.50000000E-01
              kpt6     2.50000000E-01  2.50000000E-01  2.50000000E-01
                      -2.50000000E-01 -2.50000000E-01 -2.50000000E-01
                       2.50000000E-01  0.00000000E+00  0.00000000E+00
                      -2.50000000E-01  0.00000000E+00  0.00000000E+00
                       0.00000000E+00  2.50000000E-01  0.00000000E+00
                       0.00000000E+00 -2.50000000E-01  0.00000000E+00
                       0.00000000E+00  0.00000000E+00  2.50000000E-01
                       0.00000000E+00  0.00000000E+00 -2.50000000E-01
                       2.50000000E-01  2.50000000E-01 -2.50000000E-01
                      -2.50000000E-01 -2.50000000E-01  2.50000000E-01
                       2.50000000E-01  5.00000000E-01  0.00000000E+00
                      -2.50000000E-01 -5.00000000E-01  0.00000000E+00
                       5.00000000E-01  2.50000000E-01  0.00000000E+00
                      -5.00000000E-01 -2.50000000E-01  0.00000000E+00
                       5.00000000E-01  5.00000000E-01  2.50000000E-01
                      -5.00000000E-01 -5.00000000E-01 -2.50000000E-01
                       2.50000000E-01 -2.50000000E-01  2.50000000E-01
                      -2.50000000E-01  2.50000000E-01 -2.50000000E-01
                       2.50000000E-01  0.00000000E+00  5.00000000E-01
                      -2.50000000E-01  0.00000000E+00 -5.00000000E-01
                       5.00000000E-01  2.50000000E-01  5.00000000E-01
                      -5.00000000E-01 -2.50000000E-01 -5.00000000E-01
                       5.00000000E-01  0.00000000E+00  2.50000000E-01
                      -5.00000000E-01  0.00000000E+00 -2.50000000E-01
                      -2.50000000E-01  2.50000000E-01  2.50000000E-01
                       2.50000000E-01 -2.50000000E-01 -2.50000000E-01
                       2.50000000E-01  5.00000000E-01  5.00000000E-01
                      -2.50000000E-01 -5.00000000E-01 -5.00000000E-01
                       0.00000000E+00  2.50000000E-01  5.00000000E-01
                       0.00000000E+00 -2.50000000E-01 -5.00000000E-01
                       0.00000000E+00  5.00000000E-01  2.50000000E-01
                       0.00000000E+00 -5.00000000E-01 -2.50000000E-01
           kptopt           0
P           mkmem1          2
P           mkmem2         32
P           mkmem3         32
P           mkmem4         32
P           mkmem5         32
P           mkmem6         32
P          mkqmem1          2
P          mkqmem2         32
P          mkqmem3         32
P          mkqmem4         32
P          mkqmem5         32
P          mkqmem6         32
P          mk1mem1          2
P          mk1mem2         32
P          mk1mem3         32
P          mk1mem4         32
P          mk1mem5         32
P          mk1mem6         32
            natom           2
            nband1          4
            nband2          4
            nband3          4
            nband4          4
            nband5          4
            nband6          4
           ndtset           6
            ngfft           8       8       8
             nkpt1          2
             nkpt2         32
             nkpt3         32
             nkpt4         32
             nkpt5         32
             nkpt6         32
           nloalg           3
             nqpt1          0
             nqpt2          0
             nqpt3          1
             nqpt4          1
             nqpt5          1
             nqpt6          1
            nstep          40
             nsym          48
           ntypat           2
              occ1     2.000000  2.000000  2.000000  2.000000
              occ4     2.000000  2.000000  2.000000  2.000000
              occ6     2.000000  2.000000  2.000000  2.000000
        optdriver1          0
        optdriver2          0
        optdriver3          0
        optdriver4          1
        optdriver5          0
        optdriver6          1
           prtvol1          0
           prtvol2          0
           prtvol3          0
           prtvol4         10
           prtvol5          0
           prtvol6         10
              qpt1     0.00000000E+00  0.00000000E+00  0.00000000E+00
              qpt2     0.00000000E+00  0.00000000E+00  0.00000000E+00
              qpt3     2.50000000E-01  5.00000000E-01  4.98000000E-01
              qpt4     2.50000000E-01  5.00000000E-01  4.98000000E-01
              qpt5     2.50000000E-01  5.00000000E-01  5.00000000E-01
              qpt6     2.50000000E-01  5.00000000E-01  5.00000000E-01
          rfatpol1          1       1
          rfatpol2          1       1
          rfatpol3          1       1
          rfatpol4          1       2
          rfatpol5          1       1
          rfatpol6          1       2
            rfdir1          0       0       0
            rfdir2          0       0       0
            rfdir3          0       0       0
            rfdir4          1       1       1
            rfdir5          0       0       0
            rfdir6          1       1       1
           rfphon1          0
           rfphon2          0
           rfphon3          0
           rfphon4          1
           rfphon5          0
           rfphon6          1
            rprim      0.0000000000E+00  5.0000000000E-01  5.0000000000E-01
                       5.0000000000E-01  0.0000000000E+00  5.0000000000E-01
                       5.0000000000E-01  5.0000000000E-01  0.0000000000E+00
          spgroup         225
           strten1     1.0630067738E-02  1.0630067738E-02  1.0630067738E-02
                       0.0000000000E+00  0.0000000000E+00  0.0000000000E+00
           strten4     0.0000000000E+00  0.0000000000E+00  0.0000000000E+00
                       0.0000000000E+00  0.0000000000E+00  0.0000000000E+00
           strten6     0.0000000000E+00  0.0000000000E+00  0.0000000000E+00
                       0.0000000000E+00  0.0000000000E+00  0.0000000000E+00
           symrel      1  0  0   0  1  0   0  0  1      -1  0  0  -1  0  1  -1  1  0
                       0 -1  1   0 -1  0   1 -1  0       0  1 -1   1  0 -1   0  0 -1
                       0  0  1   1  0  0   0  1  0      -1  1  0  -1  0  0  -1  0  1
                       1 -1  0   0 -1  1   0 -1  0       0  0 -1   0  1 -1   1  0 -1
                       0  1  0   0  0  1   1  0  0      -1  0  1  -1  1  0  -1  0  0
                       0 -1  0   1 -1  0   0 -1  1       1  0 -1   0  0 -1   0  1 -1
                       0 -1  0  -1  0  0   0  0 -1       1  0 -1   1  0  0   1 -1  0
                       0  1  0   0  1 -1  -1  1  0      -1  0  1   0 -1  1   0  0  1
                      -1  0  0   0  0 -1   0 -1  0       1  0  0   1 -1  0   1  0 -1
                       0  1 -1  -1  1  0   0  1  0       0 -1  1   0  0  1  -1  0  1
                       0  0 -1   0 -1  0  -1  0  0       1 -1  0   1  0 -1   1  0  0
                      -1  1  0   0  1  0   0  1 -1       0  0  1  -1  0  1   0 -1  1
                      -1  0  0   0 -1  0   0  0 -1       1  0  0   1  0 -1   1 -1  0
                       0  1 -1   0  1  0  -1  1  0       0 -1  1  -1  0  1   0  0  1
                       0  0 -1  -1  0  0   0 -1  0       1 -1  0   1  0  0   1  0 -1
                      -1  1  0   0  1 -1   0  1  0       0  0  1   0 -1  1  -1  0  1
                       0 -1  0   0  0 -1  -1  0  0       1  0 -1   1 -1  0   1  0  0
                       0  1  0  -1  1  0   0  1 -1      -1  0  1   0  0  1   0 -1  1
                       0  1  0   1  0  0   0  0  1      -1  0  1  -1  0  0  -1  1  0
                       0 -1  0   0 -1  1   1 -1  0       1  0 -1   0  1 -1   0  0 -1
                       1  0  0   0  0  1   0  1  0      -1  0  0  -1  1  0  -1  0  1
                       0 -1  1   1 -1  0   0 -1  0       0  1 -1   0  0 -1   1  0 -1
                       0  0  1   0  1  0   1  0  0      -1  1  0  -1  0  1  -1  0  0
                       1 -1  0   0 -1  0   0 -1  1       0  0 -1   1  0 -1   0  1 -1
           tolwfr1     1.00000000E-22
           tolwfr2     1.00000000E-22
           tolwfr3     1.00000000E-22
           tolwfr4     1.00000000E-08
           tolwfr5     1.00000000E-22
           tolwfr6     1.00000000E-08
            typat      1  2
              wtk1       0.25000    0.75000
              wtk2       1.00000    1.00000    1.00000    1.00000    1.00000    1.00000
                         1.00000    1.00000    1.00000    1.00000    1.00000    1.00000
                         1.00000    1.00000    1.00000    1.00000    1.00000    1.00000
                         1.00000    1.00000    1.00000    1.00000    1.00000    1.00000
                         1.00000    1.00000    1.00000    1.00000    1.00000    1.00000
                         1.00000    1.00000
              wtk3       1.00000    1.00000    1.00000    1.00000    1.00000    1.00000
                         1.00000    1.00000    1.00000    1.00000    1.00000    1.00000
                         1.00000    1.00000    1.00000    1.00000    1.00000    1.00000
                         1.00000    1.00000    1.00000    1.00000    1.00000    1.00000
                         1.00000    1.00000    1.00000    1.00000    1.00000    1.00000
                         1.00000    1.00000
              wtk4       0.03125    0.03125    0.03125    0.03125    0.03125    0.03125
                         0.03125    0.03125    0.03125    0.03125    0.03125    0.03125
                         0.03125    0.03125    0.03125    0.03125    0.03125    0.03125
                         0.03125    0.03125    0.03125    0.03125    0.03125    0.03125
                         0.03125    0.03125    0.03125    0.03125    0.03125    0.03125
                         0.03125    0.03125
              wtk5       1.00000    1.00000    1.00000    1.00000    1.00000    1.00000
                         1.00000    1.00000    1.00000    1.00000    1.00000    1.00000
                         1.00000    1.00000    1.00000    1.00000    1.00000    1.00000
                         1.00000    1.00000    1.00000    1.00000    1.00000    1.00000
                         1.00000    1.00000    1.00000    1.00000    1.00000    1.00000
                         1.00000    1.00000
              wtk6       0.03125    0.03125    0.03125    0.03125    0.03125    0.03125
                         0.03125    0.03125    0.03125    0.03125    0.03125    0.03125
                         0.03125    0.03125    0.03125    0.03125    0.03125    0.03125
                         0.03125    0.03125    0.03125    0.03125    0.03125    0.03125
                         0.03125    0.03125    0.03125    0.03125    0.03125    0.03125
                         0.03125    0.03125
           xangst      0.0000000000E+00  0.0000000000E+00  0.0000000000E+00
                       2.0486469693E+00  2.0486469693E+00  2.0486469693E+00
            xcart      0.0000000000E+00  0.0000000000E+00  0.0000000000E+00
                       3.8713817150E+00  3.8713817150E+00  3.8713817150E+00
             xred      0.0000000000E+00  0.0000000000E+00  0.0000000000E+00
                       5.0000000000E-01  5.0000000000E-01  5.0000000000E-01
            znucl       12.00000    8.00000

================================================================================


- Timing analysis has been suppressed with timopt=0



================================================================================

 Suggested references for the acknowledgment of ABINIT usage.

 The users of ABINIT have little formal obligations with respect to the ABINIT group
 (those specified in the GNU General Public License, http://www.gnu.org/copyleft/gpl.txt).
 However, it is common practice in the scientific literature,
 to acknowledge the efforts of people that have made the research possible.
 In this spirit, please find below suggested citations of work written by ABINIT developers,
 corresponding to implementations inside of ABINIT that you have used in the present run.
 Note also that it will be of great value to readers of publications presenting these results,
 to read papers enabling them to understand the theoretical formalism and details
 of the ABINIT implementation.
 For information on why they are suggested, see also http://www.abinit.org/about/?text=acknowledgments.

 [1] First-principles responses of solids to atomic displacements and homogeneous electric fields:,
 implementation of a conjugate-gradient algorithm. X. Gonze, Phys. Rev. B55, 10337 (1997).
 Comment : Non-vanishing rfphon and/or rfelfd, in the norm-conserving case.

 [2] Dynamical matrices, Born effective charges, dielectric permittivity tensors, and ,
 interatomic force constants from density-functional perturbation theory,
 X. Gonze and C. Lee, Phys. Rev. B55, 10355 (1997).
 Comment : Non-vanishing rfphon and/or rfelfd, in the norm-conserving case.

 [3] ABINIT : First-principles approach of materials and nanosystem properties.
 X. Gonze, B. Amadon, P.-M. Anglade, J.-M. Beuken, F. Bottin, P. Boulanger, F. Bruneval,
 D. Caliste, R. Caracas, M. Cote, T. Deutsch, L. Genovese, Ph. Ghosez, M. Giantomassi
 S. Goedecker, D.R. Hamann, P. Hermet, F. Jollet, G. Jomard, S. Leroux, M. Mancini, S. Mazevet,
 M.J.T. Oliveira, G. Onida, Y. Pouillon, T. Rangel, G.-M. Rignanese, D. Sangalli, R. Shaltaf,
 M. Torrent, M.J. Verstraete, G. Zerah, J.W. Zwanziger
 Computer Phys. Comm. 180, 2582-2615 (2009).
 Comment : the third generic paper describing the ABINIT project.
 Note that a version of this paper, that is not formatted for Computer Phys. Comm. 
 is available at http://www.abinit.org/about/ABINIT_CPC_v10.pdf .
 The licence allows the authors to put it on the Web.

 [4] A brief introduction to the ABINIT software package.
 X. Gonze, G.-M. Rignanese, M. Verstraete, J.-M. Beuken, Y. Pouillon, R. Caracas, F. Jollet,
 M. Torrent, G. Zerah, M. Mikami, Ph. Ghosez, M. Veithen, J.-Y. Raty, V. Olevano, F. Bruneval,
 L. Reining, R. Godby, G. Onida, D.R. Hamann, and D.C. Allan.
 Z. Kristallogr. 220, 558-562 (2005).
 Comment : the second generic paper describing the ABINIT project. Note that this paper
 should be cited especially if you are using the GW part of ABINIT, as several authors
 of this part are not in the list of authors of the first or third paper.
 The .pdf of the latter paper is available at http://www.abinit.org/about/zfk_0505-06_558-562.pdf.
 Note that it should not redistributed (Copyright by Oldenburg Wissenshaftverlag,
 the licence allows the authors to put it on the Web).


 And optionally :

 [5] First-principles computation of material properties : the ABINIT software project. 
 X. Gonze, J.-M. Beuken, R. Caracas, F. Detraux, M. Fuchs, G.-M. Rignanese, L. Sindic,
 M. Verstraete, G. Zerah, F. Jollet, M. Torrent, A. Roy, M. Mikami, Ph. Ghosez, J.-Y. Raty, D.C. Allan.
 Computational Materials Science 25, 478-492 (2002). http://dx.doi.org/10.1016/S0927-0256(02)00325-7
 Comment : the original paper describing the ABINIT project.
-
- Proc.   0 individual time (sec): cpu=          3.6  wall=          3.7

================================================================================

 Calculation completed.
.Delivered  130 WARNINGs and  22 COMMENTs to log file.
+Overall time at end (sec) : cpu=          3.6  wall=          3.7
