
.Version 7.9.3 of ABINIT 
.(MPI version, prepared for a x86_64_linux_gnu4.7 computer) 

.Copyright (C) 1998-2014 ABINIT group . 
 ABINIT comes with ABSOLUTELY NO WARRANTY.
 It is free software, and you are welcome to redistribute it
 under certain conditions (GNU General Public License,
 see ~abinit/COPYING or http://www.gnu.org/copyleft/gpl.txt).

 ABINIT is a project of the Universite Catholique de Louvain,
 Corning Inc. and other collaborators, see ~abinit/doc/developers/contributors.txt .
 Please read ~abinit/doc/users/acknowledgments.html for suggested
 acknowledgments of the ABINIT effort.
 For more information, see http://www.abinit.org .

.Starting date : Sat 30 Aug 2014.
- ( at 22h31 )
  
- input  file    -> t48.in
- output file    -> t48.out
- root for input  files -> t48i
- root for output files -> t48o


 DATASET   11 : space group P1 (#  1); Bravais aP (primitive triclinic)
================================================================================
 Values of the parameters that define the memory need for DATASET 11.
   intxc =         1  ionmov =         2    iscf =         3 xclevel =         1
  lmnmax =         1   lnmax =         1   mband =         1  mffmem =         1
P  mgfft =        18   mkmem =         1 mpssoang=         1     mpw =        63
  mqgrid =      3001   natom =         2    nfft =      2592    nkpt =         1
  nloalg =         4  nspden =         1 nspinor =         1  nsppol =         1
    nsym =         1  n1xccc =         0  ntypat =         1  occopt =         1
================================================================================
P This job should need less than                       0.806 Mbytes of memory.
  Rough estimation (10% accuracy) of disk space for files :
_ WF disk file :      0.003 Mbytes ; DEN or POT disk file :      0.022 Mbytes.
================================================================================


 DATASET   12 : space group P1 (#  1); Bravais aP (primitive triclinic)
================================================================================
 Values of the parameters that define the memory need for DATASET 12.
   intxc =         1  ionmov =         3    iscf =         3 xclevel =         1
  lmnmax =         1   lnmax =         1   mband =         1  mffmem =         1
P  mgfft =        18   mkmem =         1 mpssoang=         1     mpw =        63
  mqgrid =      3001   natom =         2    nfft =      2592    nkpt =         1
  nloalg =         4  nspden =         1 nspinor =         1  nsppol =         1
    nsym =         1  n1xccc =         0  ntypat =         1  occopt =         1
================================================================================
P This job should need less than                       0.805 Mbytes of memory.
  Rough estimation (10% accuracy) of disk space for files :
_ WF disk file :      0.003 Mbytes ; DEN or POT disk file :      0.022 Mbytes.
================================================================================


 DATASET   21 : space group P1 (#  1); Bravais aP (primitive triclinic)
================================================================================
 Values of the parameters that define the memory need for DATASET 21.
   intxc =         1  ionmov =         2    iscf =         3 xclevel =         1
  lmnmax =         1   lnmax =         1   mband =         1  mffmem =         1
P  mgfft =        18   mkmem =         1 mpssoang=         1     mpw =        63
  mqgrid =      3001   natom =         2    nfft =      2592    nkpt =         1
  nloalg =         4  nspden =         1 nspinor =         1  nsppol =         1
    nsym =         1  n1xccc =         0  ntypat =         1  occopt =         1
================================================================================
P This job should need less than                       0.806 Mbytes of memory.
  Rough estimation (10% accuracy) of disk space for files :
_ WF disk file :      0.003 Mbytes ; DEN or POT disk file :      0.022 Mbytes.
================================================================================


 DATASET   22 : space group P1 (#  1); Bravais aP (primitive triclinic)
================================================================================
 Values of the parameters that define the memory need for DATASET 22.
   intxc =         1  ionmov =         3    iscf =         3 xclevel =         1
  lmnmax =         1   lnmax =         1   mband =         1  mffmem =         1
P  mgfft =        18   mkmem =         1 mpssoang=         1     mpw =        63
  mqgrid =      3001   natom =         2    nfft =      2592    nkpt =         1
  nloalg =         4  nspden =         1 nspinor =         1  nsppol =         1
    nsym =         1  n1xccc =         0  ntypat =         1  occopt =         1
================================================================================
P This job should need less than                       0.805 Mbytes of memory.
  Rough estimation (10% accuracy) of disk space for files :
_ WF disk file :      0.003 Mbytes ; DEN or POT disk file :      0.022 Mbytes.
================================================================================


 DATASET   31 : space group P1 (#  1); Bravais aP (primitive triclinic)
================================================================================
 Values of the parameters that define the memory need for DATASET 31.
   intxc =         1  ionmov =         2    iscf =         3 xclevel =         1
  lmnmax =         1   lnmax =         1   mband =         1  mffmem =         1
P  mgfft =        18   mkmem =         1 mpssoang=         1     mpw =        63
  mqgrid =      3001   natom =         2    nfft =      2592    nkpt =         1
  nloalg =         4  nspden =         1 nspinor =         1  nsppol =         1
    nsym =         1  n1xccc =         0  ntypat =         1  occopt =         1
================================================================================
P This job should need less than                       0.806 Mbytes of memory.
  Rough estimation (10% accuracy) of disk space for files :
_ WF disk file :      0.003 Mbytes ; DEN or POT disk file :      0.022 Mbytes.
================================================================================


 DATASET   32 : space group P1 (#  1); Bravais aP (primitive triclinic)
================================================================================
 Values of the parameters that define the memory need for DATASET 32.
   intxc =         1  ionmov =         3    iscf =         3 xclevel =         1
  lmnmax =         1   lnmax =         1   mband =         1  mffmem =         1
P  mgfft =        18   mkmem =         1 mpssoang=         1     mpw =        63
  mqgrid =      3001   natom =         2    nfft =      2592    nkpt =         1
  nloalg =         4  nspden =         1 nspinor =         1  nsppol =         1
    nsym =         1  n1xccc =         0  ntypat =         1  occopt =         1
================================================================================
P This job should need less than                       0.805 Mbytes of memory.
  Rough estimation (10% accuracy) of disk space for files :
_ WF disk file :      0.003 Mbytes ; DEN or POT disk file :      0.022 Mbytes.
================================================================================


 DATASET   41 : space group P1 (#  1); Bravais aP (primitive triclinic)
================================================================================
 Values of the parameters that define the memory need for DATASET 41.
   intxc =         1  ionmov =         2    iscf =         3 xclevel =         1
  lmnmax =         1   lnmax =         1   mband =         1  mffmem =         1
P  mgfft =        18   mkmem =         1 mpssoang=         1     mpw =        63
  mqgrid =      3001   natom =         2    nfft =      2592    nkpt =         1
  nloalg =         4  nspden =         1 nspinor =         1  nsppol =         1
    nsym =         1  n1xccc =         0  ntypat =         1  occopt =         1
================================================================================
P This job should need less than                       0.806 Mbytes of memory.
  Rough estimation (10% accuracy) of disk space for files :
_ WF disk file :      0.003 Mbytes ; DEN or POT disk file :      0.022 Mbytes.
================================================================================


 DATASET   42 : space group P1 (#  1); Bravais aP (primitive triclinic)
================================================================================
 Values of the parameters that define the memory need for DATASET 42.
   intxc =         1  ionmov =         3    iscf =         3 xclevel =         1
  lmnmax =         1   lnmax =         1   mband =         1  mffmem =         1
P  mgfft =        18   mkmem =         1 mpssoang=         1     mpw =        63
  mqgrid =      3001   natom =         2    nfft =      2592    nkpt =         1
  nloalg =         4  nspden =         1 nspinor =         1  nsppol =         1
    nsym =         1  n1xccc =         0  ntypat =         1  occopt =         1
================================================================================
P This job should need less than                       0.805 Mbytes of memory.
  Rough estimation (10% accuracy) of disk space for files :
_ WF disk file :      0.003 Mbytes ; DEN or POT disk file :      0.022 Mbytes.
================================================================================


 DATASET   51 : space group P1 (#  1); Bravais aP (primitive triclinic)
================================================================================
 Values of the parameters that define the memory need for DATASET 51.
   intxc =         1  ionmov =         2    iscf =         3 xclevel =         1
  lmnmax =         1   lnmax =         1   mband =         1  mffmem =         1
P  mgfft =        18   mkmem =         1 mpssoang=         1     mpw =        63
  mqgrid =      3001   natom =         2    nfft =      2592    nkpt =         1
  nloalg =         4  nspden =         1 nspinor =         1  nsppol =         1
    nsym =         1  n1xccc =         0  ntypat =         1  occopt =         1
================================================================================
P This job should need less than                       0.806 Mbytes of memory.
  Rough estimation (10% accuracy) of disk space for files :
_ WF disk file :      0.003 Mbytes ; DEN or POT disk file :      0.022 Mbytes.
================================================================================


 DATASET   52 : space group P1 (#  1); Bravais aP (primitive triclinic)
================================================================================
 Values of the parameters that define the memory need for DATASET 52.
   intxc =         1  ionmov =         3    iscf =         3 xclevel =         1
  lmnmax =         1   lnmax =         1   mband =         1  mffmem =         1
P  mgfft =        18   mkmem =         1 mpssoang=         1     mpw =        63
  mqgrid =      3001   natom =         2    nfft =      2592    nkpt =         1
  nloalg =         4  nspden =         1 nspinor =         1  nsppol =         1
    nsym =         1  n1xccc =         0  ntypat =         1  occopt =         1
================================================================================
P This job should need less than                       0.805 Mbytes of memory.
  Rough estimation (10% accuracy) of disk space for files :
_ WF disk file :      0.003 Mbytes ; DEN or POT disk file :      0.022 Mbytes.
================================================================================


 DATASET   61 : space group P1 (#  1); Bravais aP (primitive triclinic)
================================================================================
 Values of the parameters that define the memory need for DATASET 61.
   intxc =         1  ionmov =         2    iscf =         3 xclevel =         1
  lmnmax =         1   lnmax =         1   mband =         1  mffmem =         1
P  mgfft =        18   mkmem =         1 mpssoang=         1     mpw =        63
  mqgrid =      3001   natom =         2    nfft =      2592    nkpt =         1
  nloalg =         4  nspden =         1 nspinor =         1  nsppol =         1
    nsym =         1  n1xccc =         0  ntypat =         1  occopt =         1
================================================================================
P This job should need less than                       0.806 Mbytes of memory.
  Rough estimation (10% accuracy) of disk space for files :
_ WF disk file :      0.003 Mbytes ; DEN or POT disk file :      0.022 Mbytes.
================================================================================


 DATASET   62 : space group P1 (#  1); Bravais aP (primitive triclinic)
================================================================================
 Values of the parameters that define the memory need for DATASET 62.
   intxc =         1  ionmov =         3    iscf =         3 xclevel =         1
  lmnmax =         1   lnmax =         1   mband =         1  mffmem =         1
P  mgfft =        18   mkmem =         1 mpssoang=         1     mpw =        63
  mqgrid =      3001   natom =         2    nfft =      2592    nkpt =         1
  nloalg =         4  nspden =         1 nspinor =         1  nsppol =         1
    nsym =         1  n1xccc =         0  ntypat =         1  occopt =         1
================================================================================
P This job should need less than                       0.805 Mbytes of memory.
  Rough estimation (10% accuracy) of disk space for files :
_ WF disk file :      0.003 Mbytes ; DEN or POT disk file :      0.022 Mbytes.
================================================================================

--------------------------------------------------------------------------------
------------- Echo of variables that govern the present computation ------------
--------------------------------------------------------------------------------
-
- outvars: echo of selected default values                                      
-   accesswff0 =  0 , fftalg0 =112 , wfoptalg0 =  0
-
- outvars: echo of global parameters not present in the input file              
-  max_nthreads =    0
-
 -outvars: echo values of preprocessed input variables --------
            acell      9.0000000000E+00  6.0000000000E+00  6.0000000000E+00 Bohr
              amu      1.00794000E+00
           diemac      1.00000000E+00
           diemix      3.33333333E-01
             ecut      4.00000000E+00 Hartree
           enunit           2
-          fftalg         112
           getwfk          -1
            intxc           1
           ionmov11         2
           ionmov12         3
           ionmov21         2
           ionmov22         3
           ionmov31         2
           ionmov32         3
           ionmov41         2
           ionmov42         3
           ionmov51         2
           ionmov52         3
           ionmov61         2
           ionmov62         3
             iscf           3
           istwfk        2
           jdtset       11   12   21   22   31   32   41   42   51   52
                        61   62
           kptopt           0
P           mkmem           1
            natom           2
            nband           1
           ndtset          12
            ngfft          18      12      12
             nkpt           1
            nstep          20
             nsym           1
            ntime11         8
            ntime12         8
            ntime21         8
            ntime22         8
            ntime31         8
            ntime32         8
            ntime41         8
            ntime42         8
            ntime51         8
            ntime52         8
            ntime61         2
            ntime62         8
           ntypat           1
              occ      2.000000
        optforces           1
          spgroup           1
           toldff      1.00000000E-09
           tolmxf      5.00000000E-04
            typat      1  1
           xangst11   -3.1750632515E-01  0.0000000000E+00  0.0000000000E+00
                       3.1750632515E-01  0.0000000000E+00  0.0000000000E+00
           xangst12   -3.1750632515E-01  0.0000000000E+00  0.0000000000E+00
                       3.1750632515E-01  0.0000000000E+00  0.0000000000E+00
           xangst21   -3.7042404601E-01  0.0000000000E+00  0.0000000000E+00
                       3.7042404601E-01  0.0000000000E+00  0.0000000000E+00
           xangst22   -3.7042404601E-01  0.0000000000E+00  0.0000000000E+00
                       3.7042404601E-01  0.0000000000E+00  0.0000000000E+00
           xangst31   -4.2334176687E-01  0.0000000000E+00  0.0000000000E+00
                       4.2334176687E-01  0.0000000000E+00  0.0000000000E+00
           xangst32   -4.2334176687E-01  0.0000000000E+00  0.0000000000E+00
                       4.2334176687E-01  0.0000000000E+00  0.0000000000E+00
           xangst41   -4.7625948773E-01  0.0000000000E+00  0.0000000000E+00
                       4.7625948773E-01  0.0000000000E+00  0.0000000000E+00
           xangst42   -4.7625948773E-01  0.0000000000E+00  0.0000000000E+00
                       4.7625948773E-01  0.0000000000E+00  0.0000000000E+00
           xangst51   -5.2917720859E-01  0.0000000000E+00  0.0000000000E+00
                       5.2917720859E-01  0.0000000000E+00  0.0000000000E+00
           xangst52   -5.2917720859E-01  0.0000000000E+00  0.0000000000E+00
                       5.2917720859E-01  0.0000000000E+00  0.0000000000E+00
           xangst61   -5.8209492945E-01  0.0000000000E+00  0.0000000000E+00
                       5.8209492945E-01  0.0000000000E+00  0.0000000000E+00
           xangst62   -5.8209492945E-01  0.0000000000E+00  0.0000000000E+00
                       5.8209492945E-01  0.0000000000E+00  0.0000000000E+00
            xcart11   -6.0000000000E-01  0.0000000000E+00  0.0000000000E+00
                       6.0000000000E-01  0.0000000000E+00  0.0000000000E+00
            xcart12   -6.0000000000E-01  0.0000000000E+00  0.0000000000E+00
                       6.0000000000E-01  0.0000000000E+00  0.0000000000E+00
            xcart21   -7.0000000000E-01  0.0000000000E+00  0.0000000000E+00
                       7.0000000000E-01  0.0000000000E+00  0.0000000000E+00
            xcart22   -7.0000000000E-01  0.0000000000E+00  0.0000000000E+00
                       7.0000000000E-01  0.0000000000E+00  0.0000000000E+00
            xcart31   -8.0000000000E-01  0.0000000000E+00  0.0000000000E+00
                       8.0000000000E-01  0.0000000000E+00  0.0000000000E+00
            xcart32   -8.0000000000E-01  0.0000000000E+00  0.0000000000E+00
                       8.0000000000E-01  0.0000000000E+00  0.0000000000E+00
            xcart41   -9.0000000000E-01  0.0000000000E+00  0.0000000000E+00
                       9.0000000000E-01  0.0000000000E+00  0.0000000000E+00
            xcart42   -9.0000000000E-01  0.0000000000E+00  0.0000000000E+00
                       9.0000000000E-01  0.0000000000E+00  0.0000000000E+00
            xcart51   -1.0000000000E+00  0.0000000000E+00  0.0000000000E+00
                       1.0000000000E+00  0.0000000000E+00  0.0000000000E+00
            xcart52   -1.0000000000E+00  0.0000000000E+00  0.0000000000E+00
                       1.0000000000E+00  0.0000000000E+00  0.0000000000E+00
            xcart61   -1.1000000000E+00  0.0000000000E+00  0.0000000000E+00
                       1.1000000000E+00  0.0000000000E+00  0.0000000000E+00
            xcart62   -1.1000000000E+00  0.0000000000E+00  0.0000000000E+00
                       1.1000000000E+00  0.0000000000E+00  0.0000000000E+00
             xred11   -6.6666666667E-02  0.0000000000E+00  0.0000000000E+00
                       6.6666666667E-02  0.0000000000E+00  0.0000000000E+00
             xred12   -6.6666666667E-02  0.0000000000E+00  0.0000000000E+00
                       6.6666666667E-02  0.0000000000E+00  0.0000000000E+00
             xred21   -7.7777777778E-02  0.0000000000E+00  0.0000000000E+00
                       7.7777777778E-02  0.0000000000E+00  0.0000000000E+00
             xred22   -7.7777777778E-02  0.0000000000E+00  0.0000000000E+00
                       7.7777777778E-02  0.0000000000E+00  0.0000000000E+00
             xred31   -8.8888888889E-02  0.0000000000E+00  0.0000000000E+00
                       8.8888888889E-02  0.0000000000E+00  0.0000000000E+00
             xred32   -8.8888888889E-02  0.0000000000E+00  0.0000000000E+00
                       8.8888888889E-02  0.0000000000E+00  0.0000000000E+00
             xred41   -1.0000000000E-01  0.0000000000E+00  0.0000000000E+00
                       1.0000000000E-01  0.0000000000E+00  0.0000000000E+00
             xred42   -1.0000000000E-01  0.0000000000E+00  0.0000000000E+00
                       1.0000000000E-01  0.0000000000E+00  0.0000000000E+00
             xred51   -1.1111111111E-01  0.0000000000E+00  0.0000000000E+00
                       1.1111111111E-01  0.0000000000E+00  0.0000000000E+00
             xred52   -1.1111111111E-01  0.0000000000E+00  0.0000000000E+00
                       1.1111111111E-01  0.0000000000E+00  0.0000000000E+00
             xred61   -1.2222222222E-01  0.0000000000E+00  0.0000000000E+00
                       1.2222222222E-01  0.0000000000E+00  0.0000000000E+00
             xred62   -1.2222222222E-01  0.0000000000E+00  0.0000000000E+00
                       1.2222222222E-01  0.0000000000E+00  0.0000000000E+00
            znucl        1.00000

================================================================================

 chkinp: Checking input parameters for consistency, jdtset=  11.

 chkinp: Checking input parameters for consistency, jdtset=  12.

 chkinp: Checking input parameters for consistency, jdtset=  21.

 chkinp: Checking input parameters for consistency, jdtset=  22.

 chkinp: Checking input parameters for consistency, jdtset=  31.

 chkinp: Checking input parameters for consistency, jdtset=  32.

 chkinp: Checking input parameters for consistency, jdtset=  41.

 chkinp: Checking input parameters for consistency, jdtset=  42.

 chkinp: Checking input parameters for consistency, jdtset=  51.

 chkinp: Checking input parameters for consistency, jdtset=  52.

 chkinp: Checking input parameters for consistency, jdtset=  61.

 chkinp: Checking input parameters for consistency, jdtset=  62.

================================================================================
== DATASET 11 ==================================================================
-   nproc =    1

 Exchange-correlation functional for the present dataset will be:
  LDA: new Teter (4/93) with spin-polarized option - ixc=1
 Citation for XC functional:
  S. Goedecker, M. Teter, J. Huetter, PRB 54, 1703 (1996)

 Real(R)+Recip(G) space primitive vectors, cartesian coordinates (Bohr,Bohr^-1):
 R(1)=  9.0000000  0.0000000  0.0000000  G(1)=  0.1111111  0.0000000  0.0000000
 R(2)=  0.0000000  6.0000000  0.0000000  G(2)=  0.0000000  0.1666667  0.0000000
 R(3)=  0.0000000  0.0000000  6.0000000  G(3)=  0.0000000  0.0000000  0.1666667
 Unit cell volume ucvol=  3.2400000E+02 bohr^3
 Angles (23,13,12)=  9.00000000E+01  9.00000000E+01  9.00000000E+01 degrees

 getcut: wavevector=  0.0000  0.0000  0.0000  ngfft=  18  12  12
         ecut(hartree)=      4.000   => boxcut(ratio)=   2.22144

 getcut : COMMENT -
  Note that boxcut > 2.2 ; recall that boxcut=Gcut(box)/Gcut(sphere) = 2
  is sufficient for exact treatment of convolution.
  Such a large boxcut is a waste : you could raise ecut
  e.g. ecut=    4.934802 Hartrees makes boxcut=2


--- Pseudopotential description ------------------------------------------------
- pspini: atom type   1  psp file is /home/gonze/ABINIT/ABINITv7.9.3/trunk/7.9.3-private/tests/Psps_for_tests/1h.pspnc
- pspatm: opening atomic psp file    /home/gonze/ABINIT/ABINITv7.9.3/trunk/7.9.3-private/tests/Psps_for_tests/1h.pspnc
-  Troullier-Martins psp for element  H         Thu Oct 27 17:28:54 EDT 1994
-  1.00000   1.00000    940714                znucl, zion, pspdat
    1    1    0    0      2001   0.00000      pspcod,pspxc,lmax,lloc,mmax,r2well
    0   7.740  11.990    0   1.5855604        l,e99.0,e99.9,nproj,rcpsp
   0.00000000   0.00000000   0.00000000   0.00000000     rms, ekb1, ekb2, epsatm
    0.00000000000000    0.00000000000000    0.00000000000000   rchrg,fchrg,qchrg
 Note: local psp for atom with Z=  1.0
 pspatm: epsatm=    0.04198703
         --- l  ekb(1:nproj) -->
 pspatm: atomic psp has been read  and splines computed

   1.67948119E-01                                ecore*ucvol(ha*bohr**3)
--------------------------------------------------------------------------------

P newkpt: treating      1 bands with npw=      63 for ikpt=   1 by node    0

_setup2: Arith. and geom. avg. npw (full set) are     125.000     125.000

================================================================================

=== [ionmov= 2] Broyden-Fletcher-Goldfard-Shanno method (forces)            
================================================================================

--- Iteration: (1/8) Internal Cycle: (1/1)
--------------------------------------------------------------------------------

---SELF-CONSISTENT-FIELD CONVERGENCE--------------------------------------------

     iter   Etot(hartree)      deltaE(h)  residm     vres2    diffor    maxfor
 ETOT  1  -1.0996679435170    -1.100E+00 5.032E-07 2.323E+00 2.210E-01 2.210E-01
 ETOT  2  -1.1005255341795    -8.576E-04 7.932E-12 9.824E-01 3.464E-03 2.245E-01
 ETOT  3  -1.1009963735699    -4.708E-04 1.808E-06 7.977E-03 6.319E-03 2.308E-01
 ETOT  4  -1.1010155410756    -1.917E-05 8.637E-09 2.875E-03 5.993E-04 2.302E-01
 ETOT  5  -1.1010250100843    -9.469E-06 2.060E-08 4.367E-05 9.640E-04 2.292E-01
 ETOT  6  -1.1010250273448    -1.726E-08 5.272E-12 1.700E-05 6.353E-06 2.292E-01
 ETOT  7  -1.1010250415355    -1.419E-08 4.247E-11 9.985E-08 2.132E-05 2.292E-01
 ETOT  8  -1.1010250417005    -1.649E-10 5.230E-14 4.210E-08 1.933E-06 2.292E-01
 ETOT  9  -1.1010250417722    -7.175E-11 1.233E-13 2.438E-09 2.283E-06 2.292E-01
 ETOT 10  -1.1010250417733    -1.126E-12 1.370E-16 7.992E-10 1.147E-07 2.292E-01
 ETOT 11  -1.1010250417745    -1.169E-12 1.106E-15 4.615E-11 2.347E-07 2.292E-01
 ETOT 12  -1.1010250417746    -1.212E-13 5.484E-17 1.633E-11 5.253E-08 2.292E-01
 ETOT 13  -1.1010250417747    -5.640E-14 7.288E-17 1.651E-12 5.659E-08 2.292E-01
 ETOT 14  -1.1010250417747    -1.776E-15 1.916E-19 6.752E-13 4.635E-10 2.292E-01
 ETOT 15  -1.1010250417747     1.332E-15 4.534E-19 3.378E-14 2.288E-09 2.292E-01
 ETOT 16  -1.1010250417747    -4.441E-16 4.774E-20 1.013E-14 1.358E-09 2.292E-01
 ETOT 17  -1.1010250417747    -1.332E-15 5.322E-20 1.274E-15 1.470E-09 2.292E-01
 ETOT 18  -1.1010250417747     4.441E-16 1.964E-22 5.873E-16 6.761E-11 2.292E-01
 ETOT 19  -1.1010250417747     7.105E-15 4.825E-22 2.994E-17 4.847E-11 2.292E-01

 At SCF step   19, forces are converged : 
  for the second time, max diff in force=  4.847E-11 < toldff=  1.000E-09

 Cartesian components of stress tensor (hartree/bohr^3)
  sigma(1 1)= -6.82211950E-04  sigma(3 2)=  0.00000000E+00
  sigma(2 2)=  7.26684490E-04  sigma(3 1)=  0.00000000E+00
  sigma(3 3)=  7.26684490E-04  sigma(2 1)=  0.00000000E+00


---OUTPUT-----------------------------------------------------------------------

 Cartesian coordinates (xcart) [bohr]
 -6.00000000000000E-01  0.00000000000000E+00  0.00000000000000E+00
  6.00000000000000E-01  0.00000000000000E+00  0.00000000000000E+00
 Reduced coordinates (xred)
 -6.66666666666667E-02  0.00000000000000E+00  0.00000000000000E+00
  6.66666666666667E-02  0.00000000000000E+00  0.00000000000000E+00
 Cartesian forces (fcart) [Ha/bohr]; max,rms= 2.29247E-01 1.32356E-01 (free atoms)
 -2.29246522890775E-01 -3.08991981649059E-17  2.28626886449516E-17
  2.29246522890775E-01  3.08991981649059E-17 -2.28626886449516E-17
 Reduced forces (fred)
  2.06321870601681E+00 -5.38728696159619E-15 -5.96271473779502E-15
 -2.06321870601713E+00 -5.75807733957506E-15 -5.68836247405560E-15
 Total energy (etotal) [Ha]= -1.10102504177469E+00

--- Iteration: (2/8) Internal Cycle: (1/1)
--------------------------------------------------------------------------------

---SELF-CONSISTENT-FIELD CONVERGENCE--------------------------------------------

     iter   Etot(hartree)      deltaE(h)  residm     vres2    diffor    maxfor
 ETOT  1  -1.1342498274880    -1.134E+00 1.537E-08 7.933E-01 2.458E-01 1.656E-02
 ETOT  2  -1.1345470022117    -2.972E-04 4.944E-13 3.376E-01 1.683E-03 1.825E-02
 ETOT  3  -1.1346655683483    -1.186E-04 4.639E-08 4.107E-03 1.546E-03 1.979E-02
 ETOT  4  -1.1346722756063    -6.707E-06 5.767E-09 1.209E-03 6.259E-04 1.917E-02
 ETOT  5  -1.1346757288246    -3.453E-06 7.096E-09 3.646E-05 7.827E-04 1.838E-02
 ETOT  6  -1.1346757637835    -3.496E-08 2.773E-12 1.441E-05 3.799E-05 1.835E-02
 ETOT  7  -1.1346757773461    -1.356E-08 5.385E-11 4.574E-07 3.954E-05 1.831E-02
 ETOT  8  -1.1346757775839    -2.378E-10 1.059E-14 1.436E-07 2.813E-06 1.831E-02
 ETOT  9  -1.1346757778079    -2.240E-10 4.085E-14 7.394E-09 5.250E-06 1.831E-02
 ETOT 10  -1.1346757778227    -1.484E-11 1.147E-14 2.515E-09 8.122E-07 1.832E-02
 ETOT 11  -1.1346757778277    -4.987E-12 1.377E-14 2.774E-10 8.314E-07 1.832E-02
 ETOT 12  -1.1346757778277     1.155E-14 6.503E-19 1.089E-10 3.233E-09 1.832E-02
 ETOT 13  -1.1346757778277    -3.664E-14 3.614E-18 5.503E-12 5.345E-08 1.832E-02
 ETOT 14  -1.1346757778277    -2.887E-14 8.542E-19 1.556E-12 2.590E-08 1.832E-02
 ETOT 15  -1.1346757778277     3.775E-15 1.028E-17 1.942E-13 2.447E-08 1.832E-02
 ETOT 16  -1.1346757778278    -1.354E-14 6.997E-21 8.391E-14 1.926E-09 1.832E-02
 ETOT 17  -1.1346757778277     2.043E-14 1.364E-19 6.172E-15 1.449E-09 1.832E-02
 ETOT 18  -1.1346757778278    -1.998E-14 5.438E-22 1.675E-15 5.846E-10 1.832E-02
 ETOT 19  -1.1346757778278    -2.220E-15 9.739E-21 1.775E-16 6.776E-10 1.832E-02

 At SCF step   19, forces are converged : 
  for the second time, max diff in force=  6.776E-10 < toldff=  1.000E-09

 Cartesian components of stress tensor (hartree/bohr^3)
  sigma(1 1)=  2.15220494E-04  sigma(3 2)=  0.00000000E+00
  sigma(2 2)=  6.36109858E-04  sigma(3 1)=  0.00000000E+00
  sigma(3 3)=  6.36109858E-04  sigma(2 1)=  0.00000000E+00


---OUTPUT-----------------------------------------------------------------------

 Cartesian coordinates (xcart) [bohr]
 -8.29246522890775E-01 -3.08991981649059E-17  2.28626886449516E-17
  8.29246522890775E-01  3.08991981649059E-17 -2.28626886449516E-17
 Reduced coordinates (xred)
 -9.21385025434194E-02 -5.14986636081765E-18  3.81044810749193E-18
  9.21385025434194E-02  5.14986636081765E-18 -3.81044810749193E-18
 Cartesian forces (fcart) [Ha/bohr]; max,rms= 1.83157E-02 1.05746E-02 (free atoms)
  1.83157414692045E-02 -1.60644663310548E-17  1.10330445860548E-17
 -1.83157414692045E-02  1.60644663310548E-17 -1.10330445860548E-17
 Reduced forces (fred)
 -1.64841673222843E-01 -8.51719066045755E-16 -3.77811874760907E-16
  1.64841673222837E-01 -1.04449266201841E-15 -2.45415339728250E-16
 Total energy (etotal) [Ha]= -1.13467577782775E+00

 Difference of energy with previous step (new-old):
           Absolute (Ha)=-3.36507E-02
           Relative     =-3.01031E-02

--- Iteration: (3/8) Internal Cycle: (1/1)
--------------------------------------------------------------------------------

---SELF-CONSISTENT-FIELD CONVERGENCE--------------------------------------------

     iter   Etot(hartree)      deltaE(h)  residm     vres2    diffor    maxfor
 ETOT  1  -1.1351645568951    -1.135E+00 4.958E-12 4.396E-03 6.575E-03 1.174E-02
 ETOT  2  -1.1351715858810    -7.029E-06 6.152E-14 1.461E-03 4.332E-04 1.131E-02
 ETOT  3  -1.1351743801072    -2.794E-06 8.695E-09 2.496E-05 4.992E-04 1.081E-02
 ETOT  4  -1.1351743915419    -1.143E-08 3.590E-12 9.728E-06 2.913E-05 1.084E-02
 ETOT  5  -1.1351744017292    -1.019E-08 1.459E-11 7.813E-08 6.216E-05 1.090E-02
 ETOT  6  -1.1351744019627    -2.335E-10 1.706E-13 2.339E-08 3.911E-06 1.090E-02
 ETOT  7  -1.1351744020338    -7.109E-11 1.150E-13 3.129E-09 3.185E-06 1.091E-02
 ETOT  8  -1.1351744020337     7.150E-14 4.178E-16 1.296E-09 5.390E-08 1.091E-02
 ETOT  9  -1.1351744020335     1.441E-13 6.528E-18 9.371E-11 1.714E-07 1.091E-02
 ETOT 10  -1.1351744020338    -2.143E-13 1.083E-16 2.719E-11 1.299E-07 1.091E-02
 ETOT 11  -1.1351744020338    -7.816E-14 8.635E-17 5.322E-12 1.204E-07 1.091E-02
 ETOT 12  -1.1351744020338    -1.776E-15 3.385E-19 2.404E-12 1.802E-08 1.091E-02
 ETOT 13  -1.1351744020339    -1.332E-14 3.281E-19 3.089E-13 1.682E-08 1.091E-02
 ETOT 14  -1.1351744020339    -6.217E-15 1.179E-20 8.751E-14 2.968E-09 1.091E-02
 ETOT 15  -1.1351744020338     1.776E-14 3.105E-19 1.510E-14 4.433E-09 1.091E-02
 ETOT 16  -1.1351744020339    -1.021E-14 1.532E-20 6.577E-15 1.474E-09 1.091E-02
 ETOT 17  -1.1351744020339    -9.770E-15 1.756E-20 1.385E-15 1.573E-09 1.091E-02
 ETOT 18  -1.1351744020339     0.000E+00 2.097E-22 4.663E-16 1.715E-10 1.091E-02
 ETOT 19  -1.1351744020339     8.882E-15 4.307E-22 6.414E-17 4.532E-12 1.091E-02

 At SCF step   19, forces are converged : 
  for the second time, max diff in force=  4.532E-12 < toldff=  1.000E-09

 Cartesian components of stress tensor (hartree/bohr^3)
  sigma(1 1)=  1.71008698E-04  sigma(3 2)=  0.00000000E+00
  sigma(2 2)=  6.39685676E-04  sigma(3 1)=  0.00000000E+00
  sigma(3 3)=  6.39685676E-04  sigma(2 1)=  0.00000000E+00


---OUTPUT-----------------------------------------------------------------------

 Cartesian coordinates (xcart) [bohr]
 -8.12285860259753E-01 -4.57751448606236E-17  3.30794602308429E-17
  8.12285860259753E-01  4.57751448606237E-17 -3.30794602308428E-17
 Reduced coordinates (xred)
 -9.02539844733059E-02 -7.62919081010394E-18  5.51324337180714E-18
  9.02539844733059E-02  7.62919081010394E-18 -5.51324337180714E-18
 Cartesian forces (fcart) [Ha/bohr]; max,rms= 1.09059E-02 6.29652E-03 (free atoms)
  1.09059000929407E-02 -7.48110822275796E-18 -2.66137776582105E-17
 -1.09059000929407E-02  7.48110822275793E-18  2.66137776582105E-17
 Reduced forces (fred)
 -9.81531008364602E-02 -7.93659013151031E-16  1.90209236531300E-16
  9.81531008364722E-02 -8.83432311824126E-16 -1.29156095367226E-16
 Total energy (etotal) [Ha]= -1.13517440203386E+00

 Difference of energy with previous step (new-old):
           Absolute (Ha)=-4.98624E-04
           Relative     =-4.39345E-04

--- Iteration: (4/8) Internal Cycle: (1/1)
--------------------------------------------------------------------------------

---SELF-CONSISTENT-FIELD CONVERGENCE--------------------------------------------

     iter   Etot(hartree)      deltaE(h)  residm     vres2    diffor    maxfor
 ETOT  1  -1.1353847401891    -1.135E+00 2.376E-10 9.493E-03 1.182E-02 9.159E-04
 ETOT  2  -1.1353997305818    -1.499E-05 1.093E-13 3.179E-03 6.051E-04 1.521E-03
 ETOT  3  -1.1354057259347    -5.995E-06 1.752E-08 5.501E-05 7.025E-04 2.224E-03
 ETOT  4  -1.1354057530697    -2.713E-08 7.748E-12 2.143E-05 4.572E-05 2.178E-03
 ETOT  5  -1.1354057764924    -2.342E-08 3.573E-11 1.478E-07 9.507E-05 2.083E-03
 ETOT  6  -1.1354057769170    -4.246E-10 2.885E-13 4.569E-08 5.072E-06 2.078E-03
 ETOT  7  -1.1354057770507    -1.337E-10 2.278E-13 5.417E-09 4.318E-06 2.073E-03
 ETOT  8  -1.1354057770504     2.931E-13 5.812E-16 2.209E-09 2.211E-08 2.073E-03
 ETOT  9  -1.1354057770503     8.749E-14 2.348E-16 1.427E-10 2.854E-07 2.074E-03
 ETOT 10  -1.1354057770506    -3.655E-13 1.721E-16 4.208E-11 1.640E-07 2.074E-03
 ETOT 11  -1.1354057770508    -1.454E-13 1.376E-16 8.427E-12 1.499E-07 2.074E-03
 ETOT 12  -1.1354057770508     9.770E-15 3.950E-19 3.806E-12 2.122E-08 2.074E-03
 ETOT 13  -1.1354057770508     2.220E-16 3.731E-19 4.482E-13 1.973E-08 2.074E-03
 ETOT 14  -1.1354057770508     1.021E-14 3.666E-19 1.252E-13 4.016E-09 2.074E-03
 ETOT 15  -1.1354057770508    -6.217E-15 4.244E-19 2.199E-14 5.588E-09 2.074E-03
 ETOT 16  -1.1354057770508     1.776E-15 2.256E-20 9.676E-15 1.749E-09 2.074E-03
 ETOT 17  -1.1354057770508    -2.709E-14 2.811E-20 1.962E-15 1.895E-09 2.074E-03
 ETOT 18  -1.1354057770508     2.842E-14 2.343E-22 6.450E-16 1.914E-10 2.074E-03
 ETOT 19  -1.1354057770508    -8.438E-15 6.800E-22 8.850E-17 2.193E-11 2.074E-03

 At SCF step   19, forces are converged : 
  for the second time, max diff in force=  2.193E-11 < toldff=  1.000E-09

 Cartesian components of stress tensor (hartree/bohr^3)
  sigma(1 1)=  1.00696745E-04  sigma(3 2)=  0.00000000E+00
  sigma(2 2)=  6.45770959E-04  sigma(3 1)=  0.00000000E+00
  sigma(3 3)=  6.45770959E-04  sigma(2 1)=  0.00000000E+00


---OUTPUT-----------------------------------------------------------------------

 Cartesian coordinates (xcart) [bohr]
 -7.87322938279193E-01 -6.25177661139067E-17 -3.39062197170450E-17
  7.87322938279193E-01  6.25177661139067E-17  3.39062197170450E-17
 Reduced coordinates (xred)
 -8.74803264754658E-02 -1.04196276856511E-17 -5.65103661950750E-18
  8.74803264754658E-02  1.04196276856511E-17  5.65103661950750E-18
 Cartesian forces (fcart) [Ha/bohr]; max,rms= 2.07396E-03 1.19740E-03 (free atoms)
 -2.07396063559054E-03  7.44985608468693E-18  1.49997408789687E-17
  2.07396063559054E-03 -7.44985608468690E-18 -1.49997408789687E-17
 Reduced forces (fred)
  1.86656457203118E-02 -1.08210563372463E-15 -3.04712893064458E-16
 -1.86656457203180E-02 -9.92707360708387E-16 -1.24716002516833E-16
 Total energy (etotal) [Ha]= -1.13540577705079E+00

 Difference of energy with previous step (new-old):
           Absolute (Ha)=-2.31375E-04
           Relative     =-2.03803E-04

--- Iteration: (5/8) Internal Cycle: (1/1)
--------------------------------------------------------------------------------

---SELF-CONSISTENT-FIELD CONVERGENCE--------------------------------------------

     iter   Etot(hartree)      deltaE(h)  residm     vres2    diffor    maxfor
 ETOT  1  -1.1354130852901    -1.135E+00 2.652E-12 1.427E-04 2.156E-03 8.204E-05
 ETOT  2  -1.1354132297626    -1.445E-07 1.598E-15 5.428E-05 5.453E-05 1.366E-04
 ETOT  3  -1.1354132862305    -5.647E-08 2.525E-10 1.464E-06 6.474E-05 2.013E-04
 ETOT  4  -1.1354132872621    -1.032E-09 1.043E-13 4.995E-07 7.742E-06 1.936E-04
 ETOT  5  -1.1354132880349    -7.728E-10 1.252E-12 1.002E-08 1.291E-05 1.807E-04
 ETOT  6  -1.1354132880539    -1.897E-11 1.371E-14 3.341E-09 9.064E-07 1.797E-04
 ETOT  7  -1.1354132880606    -6.767E-12 1.491E-14 1.656E-10 8.991E-07 1.788E-04
 ETOT  8  -1.1354132880606     2.442E-15 1.971E-19 6.308E-11 2.283E-08 1.789E-04
 ETOT  9  -1.1354132880606    -2.331E-14 2.775E-18 2.723E-12 7.592E-08 1.789E-04
 ETOT 10  -1.1354132880607    -3.331E-15 4.302E-18 7.770E-13 1.929E-08 1.790E-04
 ETOT 11  -1.1354132880607    -1.710E-14 3.862E-18 8.867E-14 1.826E-08 1.790E-04
 ETOT 12  -1.1354132880607     1.488E-14 1.901E-20 3.879E-14 8.726E-10 1.790E-04
 ETOT 13  -1.1354132880607    -1.310E-14 1.719E-20 2.245E-15 3.957E-10 1.790E-04

 At SCF step   13, forces are converged : 
  for the second time, max diff in force=  3.957E-10 < toldff=  1.000E-09

 Cartesian components of stress tensor (hartree/bohr^3)
  sigma(1 1)=  1.12367311E-04  sigma(3 2)=  0.00000000E+00
  sigma(2 2)=  6.44730947E-04  sigma(3 1)=  0.00000000E+00
  sigma(3 3)=  6.44730947E-04  sigma(2 1)=  0.00000000E+00


---OUTPUT-----------------------------------------------------------------------

 Cartesian coordinates (xcart) [bohr]
 -7.91311587974270E-01 -5.47784381104184E-17 -1.48524396533574E-17
  7.91311587974270E-01  5.47784381104184E-17  1.48524396533574E-17
 Reduced coordinates (xred)
 -8.79235097749188E-02 -9.12973968506973E-18 -2.47540660889290E-18
  8.79235097749188E-02  9.12973968506974E-18  2.47540660889290E-18
 Cartesian forces (fcart) [Ha/bohr]; max,rms= 1.78986E-04 1.03338E-04 (free atoms)
  1.78985854791534E-04  2.04712361562438E-18  1.43201819431806E-17
 -1.78985854791534E-04 -2.04712361562440E-18 -1.43201819431806E-17
 Reduced forces (fred)
 -1.61087269311540E-03 -8.29789831204574E-16 -3.47295340918096E-16
  1.61087269313221E-03 -8.05224347817082E-16 -1.75453157599929E-16
 Total energy (etotal) [Ha]= -1.13541328806067E+00

 Difference of energy with previous step (new-old):
           Absolute (Ha)=-7.51101E-06
           Relative     =-6.61524E-06

 At Broyd/MD step   5, gradients are converged : 
  max grad (force/stress) = 1.7899E-04 < tolmxf= 5.0000E-04 ha/bohr (free atoms)

================================================================================

 ----iterations are completed or convergence reached----

 Mean square residual over all n,k,spin=   1.7188E-20; max=  1.7188E-20
   0.0000  0.0000  0.0000    1  1.71880E-20 kpt; spin; max resid(k); each band:
  1.72E-20
 reduced coordinates (array xred) for    2 atoms
      -0.087923509775     -0.000000000000     -0.000000000000
       0.087923509775      0.000000000000      0.000000000000
 rms dE/dt=  9.3004E-04; max dE/dt=  1.6109E-03; dE/dt below (all hartree)
    1      -0.001610872693     -0.000000000000     -0.000000000000
    2       0.001610872693     -0.000000000000     -0.000000000000

 cartesian coordinates (angstrom) at end:
    1     -0.41874405724914    -0.00000000000000    -0.00000000000000
    2      0.41874405724914     0.00000000000000     0.00000000000000

 cartesian forces (hartree/bohr) at end:
    1      0.00017898585479     0.00000000000000     0.00000000000000
    2     -0.00017898585479    -0.00000000000000    -0.00000000000000
 frms,max,avg= 1.0333753E-04 1.7898585E-04   0.000E+00  0.000E+00  0.000E+00 h/b

 cartesian forces (eV/Angstrom) at end:
    1      0.00920382193560     0.00000000000000     0.00000000000000
    2     -0.00920382193560    -0.00000000000000    -0.00000000000000
 frms,max,avg= 5.3138291E-03 9.2038219E-03   0.000E+00  0.000E+00  0.000E+00 e/A
 length scales=  9.000000000000  6.000000000000  6.000000000000 bohr
              =  4.762594877310  3.175063251540  3.175063251540 angstroms
 prteigrs : about to open file t48o_DS11_EIG
 Fermi (or HOMO) energy (hartree) =  -0.37494   Average Vxc (hartree)=  -0.16397
 Eigenvalues (hartree) for nkpt=   1  k points:
 kpt#   1, nband=  1, wtk=  1.00000, kpt=  0.0000  0.0000  0.0000 (reduced coord)
  -0.37494
 Fermi (or HOMO) energy (eV) = -10.20264   Average Vxc (eV)=  -4.46180
 Eigenvalues (   eV  ) for nkpt=   1  k points:
 kpt#   1, nband=  1, wtk=  1.00000, kpt=  0.0000  0.0000  0.0000 (reduced coord)
 -10.20264
 Total charge density [el/Bohr^3]
,     Maximum=    1.7451E-01  at reduced coord.    0.0000    0.0000    0.0000
,Next maximum=    1.5371E-01  at reduced coord.    0.9444    0.0000    0.0000
,     Minimum=    1.0632E-04  at reduced coord.    0.5000    0.5000    0.5000
,Next minimum=    1.1530E-04  at reduced coord.    0.5000    0.5000    0.4167
,  Integrated=    2.0000E+00

--------------------------------------------------------------------------------
 Components of total free energy (in Hartree) :

    Kinetic energy  =  7.01867353698538E-01
    Hartree energy  =  4.11366878813479E-01
    XC energy       = -5.64240514379918E-01
    Ewald energy    = -1.46554436692277E-01
    PspCore energy  =  5.18358393192022E-04
    Loc. psp. energy= -1.53837092789368E+00
    NL   psp  energy=  0.00000000000000E+00
    >>>>>>>>> Etotal= -1.13541328806067E+00

 Other information on the energy :
    Total energy(eV)= -3.08961668211636E+01 ; Band energy (Ha)=  -7.4988039562E-01
--------------------------------------------------------------------------------
 rms coord change=  1.2273E-02   atom, delta coord (reduced):
     1       -0.021256843108     -0.000000000000     -0.000000000000
     2        0.021256843108      0.000000000000      0.000000000000

 Cartesian components of stress tensor (hartree/bohr^3)
  sigma(1 1)=  1.12367311E-04  sigma(3 2)=  0.00000000E+00
  sigma(2 2)=  6.44730947E-04  sigma(3 1)=  0.00000000E+00
  sigma(3 3)=  6.44730947E-04  sigma(2 1)=  0.00000000E+00

-Cartesian components of stress tensor (GPa)         [Pressure= -1.3748E+01 GPa]
- sigma(1 1)=  3.30595986E+00  sigma(3 2)=  0.00000000E+00
- sigma(2 2)=  1.89686361E+01  sigma(3 1)=  0.00000000E+00
- sigma(3 3)=  1.89686361E+01  sigma(2 1)=  0.00000000E+00

================================================================================
== DATASET 12 ==================================================================
-   nproc =    1

 mkfilename : getwfk/=0, take file _WFK from output of DATASET  11.

 Exchange-correlation functional for the present dataset will be:
  LDA: new Teter (4/93) with spin-polarized option - ixc=1
 Citation for XC functional:
  S. Goedecker, M. Teter, J. Huetter, PRB 54, 1703 (1996)

 Real(R)+Recip(G) space primitive vectors, cartesian coordinates (Bohr,Bohr^-1):
 R(1)=  9.0000000  0.0000000  0.0000000  G(1)=  0.1111111  0.0000000  0.0000000
 R(2)=  0.0000000  6.0000000  0.0000000  G(2)=  0.0000000  0.1666667  0.0000000
 R(3)=  0.0000000  0.0000000  6.0000000  G(3)=  0.0000000  0.0000000  0.1666667
 Unit cell volume ucvol=  3.2400000E+02 bohr^3
 Angles (23,13,12)=  9.00000000E+01  9.00000000E+01  9.00000000E+01 degrees

 getcut: wavevector=  0.0000  0.0000  0.0000  ngfft=  18  12  12
         ecut(hartree)=      4.000   => boxcut(ratio)=   2.22144

 getcut : COMMENT -
  Note that boxcut > 2.2 ; recall that boxcut=Gcut(box)/Gcut(sphere) = 2
  is sufficient for exact treatment of convolution.
  Such a large boxcut is a waste : you could raise ecut
  e.g. ecut=    4.934802 Hartrees makes boxcut=2

--------------------------------------------------------------------------------

-inwffil : will read wavefunctions from disk file t48o_DS11_WFK
P newkpt: treating      1 bands with npw=      63 for ikpt=   1 by node    0

_setup2: Arith. and geom. avg. npw (full set) are     125.000     125.000

================================================================================

=== [ionmov= 3] Broyden-Fletcher-Goldfard-Shanno method (forces,Tot energy) 
================================================================================

--- Iteration: (1/8) Internal Cycle: (1/1)
--------------------------------------------------------------------------------

---SELF-CONSISTENT-FIELD CONVERGENCE--------------------------------------------

     iter   Etot(hartree)      deltaE(h)  residm     vres2    diffor    maxfor
 ETOT  1  -1.0985721460414    -1.099E+00 1.200E-08 8.967E-01 2.163E-01 2.163E-01
 ETOT  2  -1.1002459568632    -1.674E-03 5.623E-11 2.933E-01 5.335E-03 2.216E-01
 ETOT  3  -1.1010223955572    -7.764E-04 1.491E-06 7.131E-04 8.049E-03 2.297E-01
 ETOT  4  -1.1010244893406    -2.094E-06 2.005E-09 3.143E-04 2.151E-04 2.294E-01
 ETOT  5  -1.1010250226214    -5.333E-07 1.128E-09 9.291E-05 2.041E-04 2.292E-01
 ETOT  6  -1.1010250126103     1.001E-08 5.034E-11 2.768E-05 3.924E-05 2.292E-01
 ETOT  7  -1.1010250224269    -9.817E-09 7.405E-12 4.163E-06 7.707E-06 2.292E-01
 ETOT  8  -1.1010250362359    -1.381E-08 6.768E-12 1.130E-06 1.870E-05 2.292E-01
 ETOT  9  -1.1010250410690    -4.833E-09 4.637E-12 3.720E-07 1.413E-05 2.292E-01
 ETOT 10  -1.1010250416794    -6.103E-10 6.512E-13 1.664E-07 5.000E-06 2.292E-01
 ETOT 11  -1.1010250417447    -6.537E-11 3.231E-13 4.045E-08 3.460E-06 2.292E-01
 ETOT 12  -1.1010250417484    -3.622E-12 1.107E-14 9.578E-09 5.970E-09 2.292E-01
 ETOT 13  -1.1010250417665    -1.812E-11 8.535E-15 1.748E-09 6.674E-07 2.292E-01
 ETOT 14  -1.1010250417728    -6.283E-12 4.160E-15 6.136E-10 4.347E-07 2.292E-01
 ETOT 15  -1.1010250417746    -1.780E-12 2.306E-15 2.156E-10 3.025E-07 2.292E-01
 ETOT 16  -1.1010250417747    -1.268E-13 2.104E-16 8.522E-11 9.128E-08 2.292E-01
 ETOT 17  -1.1010250417747     5.107E-15 6.032E-17 1.563E-11 3.792E-08 2.292E-01
 ETOT 18  -1.1010250417747    -5.329E-15 6.676E-18 3.665E-12 1.818E-08 2.292E-01
 ETOT 19  -1.1010250417747    -3.553E-15 7.049E-18 9.223E-13 2.007E-08 2.292E-01
 ETOT 20  -1.1010250417747    -1.510E-14 1.668E-18 3.819E-13 8.540E-09 2.292E-01

 Cartesian components of stress tensor (hartree/bohr^3)
  sigma(1 1)= -6.82211942E-04  sigma(3 2)=  0.00000000E+00
  sigma(2 2)=  7.26684436E-04  sigma(3 1)=  0.00000000E+00
  sigma(3 3)=  7.26684436E-04  sigma(2 1)=  0.00000000E+00


 scprqt:  WARNING -
  nstep=   20 was not enough SCF cycles to converge;
  maximum force difference=  8.540E-09 exceeds toldff=  1.000E-09


---OUTPUT-----------------------------------------------------------------------

 Cartesian coordinates (xcart) [bohr]
 -6.00000000000000E-01  0.00000000000000E+00  0.00000000000000E+00
  6.00000000000000E-01  0.00000000000000E+00  0.00000000000000E+00
 Reduced coordinates (xred)
 -6.66666666666667E-02  0.00000000000000E+00  0.00000000000000E+00
  6.66666666666667E-02  0.00000000000000E+00  0.00000000000000E+00
 Cartesian forces (fcart) [Ha/bohr]; max,rms= 2.29247E-01 1.32356E-01 (free atoms)
 -2.29246517262458E-01  6.21438066384169E-18 -1.94676320226347E-18
  2.29246517262458E-01 -6.21438066384174E-18  1.94676320226347E-18
 Reduced forces (fred)
  2.06321865536212E+00 -1.66927127476133E-15 -2.06180535381042E-16
 -2.06321865536212E+00 -1.59469870679523E-15 -2.29541693808204E-16
 Total energy (etotal) [Ha]= -1.10102504177470E+00

--- Iteration: (2/8) Internal Cycle: (1/1)
--------------------------------------------------------------------------------

---SELF-CONSISTENT-FIELD CONVERGENCE--------------------------------------------

     iter   Etot(hartree)      deltaE(h)  residm     vres2    diffor    maxfor
 ETOT  1  -1.1342498274710    -1.134E+00 1.537E-08 7.933E-01 2.458E-01 1.656E-02
 ETOT  2  -1.1345470023566    -2.972E-04 4.944E-13 3.376E-01 1.683E-03 1.825E-02
 ETOT  3  -1.1346655685510    -1.186E-04 4.639E-08 4.107E-03 1.546E-03 1.979E-02
 ETOT  4  -1.1346722758109    -6.707E-06 5.767E-09 1.209E-03 6.259E-04 1.917E-02
 ETOT  5  -1.1346757290308    -3.453E-06 7.096E-09 3.646E-05 7.827E-04 1.838E-02
 ETOT  6  -1.1346757639896    -3.496E-08 2.773E-12 1.441E-05 3.799E-05 1.835E-02
 ETOT  7  -1.1346757775523    -1.356E-08 5.385E-11 4.574E-07 3.954E-05 1.831E-02
 ETOT  8  -1.1346757777901    -2.378E-10 1.059E-14 1.436E-07 2.813E-06 1.831E-02
 ETOT  9  -1.1346757780140    -2.239E-10 4.085E-14 7.394E-09 5.250E-06 1.831E-02
 ETOT 10  -1.1346757780289    -1.484E-11 1.147E-14 2.515E-09 8.122E-07 1.832E-02
 ETOT 11  -1.1346757780339    -5.002E-12 1.377E-14 2.774E-10 8.314E-07 1.832E-02
 ETOT 12  -1.1346757780339     8.216E-15 6.503E-19 1.089E-10 3.233E-09 1.832E-02
 ETOT 13  -1.1346757780339    -2.642E-14 3.614E-18 5.503E-12 5.345E-08 1.832E-02
 ETOT 14  -1.1346757780339    -2.709E-14 8.542E-19 1.556E-12 2.590E-08 1.832E-02
 ETOT 15  -1.1346757780339     8.216E-15 1.028E-17 1.942E-13 2.447E-08 1.832E-02
 ETOT 16  -1.1346757780339    -1.044E-14 6.997E-21 8.391E-14 1.926E-09 1.832E-02
 ETOT 17  -1.1346757780339     1.288E-14 1.364E-19 6.172E-15 1.449E-09 1.832E-02
 ETOT 18  -1.1346757780339     1.199E-14 5.438E-22 1.675E-15 5.846E-10 1.832E-02
 ETOT 19  -1.1346757780339    -1.288E-14 9.739E-21 1.775E-16 6.776E-10 1.832E-02

 At SCF step   19, forces are converged : 
  for the second time, max diff in force=  6.776E-10 < toldff=  1.000E-09

 Cartesian components of stress tensor (hartree/bohr^3)
  sigma(1 1)=  2.15220479E-04  sigma(3 2)=  0.00000000E+00
  sigma(2 2)=  6.36109859E-04  sigma(3 1)=  0.00000000E+00
  sigma(3 3)=  6.36109859E-04  sigma(2 1)=  0.00000000E+00


---OUTPUT-----------------------------------------------------------------------

 Cartesian coordinates (xcart) [bohr]
 -8.29246517262458E-01  6.21438066384173E-18 -1.94676320226348E-18
  8.29246517262458E-01 -6.21438066384169E-18  1.94676320226347E-18
 Reduced coordinates (xred)
 -9.21385019180508E-02  1.03573011064029E-18 -3.24460533710579E-19
  9.21385019180508E-02 -1.03573011064028E-18  3.24460533710579E-19
 Cartesian forces (fcart) [Ha/bohr]; max,rms= 1.83157E-02 1.05746E-02 (free atoms)
  1.83157391836538E-02 -1.60424524599164E-17 -7.05642024323187E-18
 -1.83157391836538E-02  1.60424524599164E-17  7.05642024323187E-18
 Reduced forces (fred)
 -1.64841652652888E-01 -6.06653777752860E-16  2.74476496347421E-16
  1.64841652652880E-01 -7.99163207271857E-16  1.89799453428639E-16
 Total energy (etotal) [Ha]= -1.13467577803391E+00

 Difference of energy with previous step (new-old):
           Absolute (Ha)=-3.36507E-02
           Relative     =-3.01031E-02

--- Iteration: (3/8) Internal Cycle: (1/1)
--------------------------------------------------------------------------------

---SELF-CONSISTENT-FIELD CONVERGENCE--------------------------------------------

     iter   Etot(hartree)      deltaE(h)  residm     vres2    diffor    maxfor
 ETOT  1  -1.1353545627489    -1.135E+00 2.492E-11 2.492E-02 1.780E-02 5.159E-04
 ETOT  2  -1.1353940894703    -3.953E-05 2.943E-13 8.333E-03 9.761E-04 4.602E-04
 ETOT  3  -1.1354099500340    -1.586E-05 4.592E-08 1.406E-04 1.139E-03 1.600E-03
 ETOT  4  -1.1354100216332    -7.160E-08 2.204E-11 5.505E-05 7.476E-05 1.525E-03
 ETOT  5  -1.1354100814481    -5.981E-08 9.207E-11 3.084E-07 1.551E-04 1.370E-03
 ETOT  6  -1.1354100823118    -8.637E-10 5.708E-13 9.761E-08 7.402E-06 1.362E-03
 ETOT  7  -1.1354100825780    -2.662E-10 4.713E-13 1.274E-08 6.151E-06 1.356E-03
 ETOT  8  -1.1354100825771     9.175E-13 1.695E-15 5.103E-09 3.599E-08 1.356E-03
 ETOT  9  -1.1354100825771     7.128E-14 3.992E-16 3.757E-10 4.517E-07 1.357E-03
 ETOT 10  -1.1354100825780    -9.075E-13 4.418E-16 1.150E-10 2.670E-07 1.357E-03
 ETOT 11  -1.1354100825783    -3.604E-13 3.428E-16 2.537E-11 2.420E-07 1.357E-03
 ETOT 12  -1.1354100825783    -8.438E-15 1.150E-18 1.137E-11 3.786E-08 1.357E-03
 ETOT 13  -1.1354100825783     1.243E-14 9.624E-19 1.444E-12 3.306E-08 1.357E-03
 ETOT 14  -1.1354100825783    -1.266E-14 6.602E-20 4.129E-13 7.310E-09 1.357E-03
 ETOT 15  -1.1354100825783    -7.327E-15 8.594E-20 8.174E-14 1.003E-08 1.357E-03
 ETOT 16  -1.1354100825783     2.176E-14 5.458E-20 3.642E-14 3.269E-09 1.357E-03
 ETOT 17  -1.1354100825783    -1.910E-14 8.971E-20 7.517E-15 3.553E-09 1.357E-03
 ETOT 18  -1.1354100825783     1.177E-14 7.454E-22 2.464E-15 3.542E-10 1.357E-03
 ETOT 19  -1.1354100825783    -1.399E-14 2.821E-21 3.822E-16 6.302E-11 1.357E-03

 At SCF step   19, forces are converged : 
  for the second time, max diff in force=  6.302E-11 < toldff=  1.000E-09

 Cartesian components of stress tensor (hartree/bohr^3)
  sigma(1 1)=  1.04387852E-04  sigma(3 2)=  0.00000000E+00
  sigma(2 2)=  6.45440839E-04  sigma(3 1)=  0.00000000E+00
  sigma(3 3)=  6.45440839E-04  sigma(2 1)=  0.00000000E+00


---OUTPUT-----------------------------------------------------------------------

 Cartesian coordinates (xcart) [bohr]
 -7.88578184986876E-01 -8.54366310348289E-18 -7.26220035160489E-18
  7.88578184986876E-01  8.54366310348290E-18  7.26220035160488E-18
 Reduced coordinates (xred)
 -8.76197983318751E-02 -1.42394385058048E-18 -1.21036672526748E-18
  8.76197983318751E-02  1.42394385058048E-18  1.21036672526748E-18
 Cartesian forces (fcart) [Ha/bohr]; max,rms= 1.35725E-03 7.83609E-04 (free atoms)
 -1.35724996048680E-03 -1.76601194740427E-17 -2.44660672638818E-18
  1.35724996048680E-03  1.76601194740426E-17  2.44660672638819E-18
 Reduced forces (fred)
  1.22152496443817E-02 -7.70998370553529E-16  2.64442675862503E-17
 -1.22152496443808E-02 -9.82919804242041E-16 -2.91501313040789E-18
 Total energy (etotal) [Ha]= -1.13541008257834E+00

 Difference of energy with previous step (new-old):
           Absolute (Ha)=-7.34305E-04
           Relative     =-6.46940E-04

--- Iteration: (4/8) Internal Cycle: (1/1)
--------------------------------------------------------------------------------

---SELF-CONSISTENT-FIELD CONVERGENCE--------------------------------------------

     iter   Etot(hartree)      deltaE(h)  residm     vres2    diffor    maxfor
 ETOT  1  -1.1354132709885    -1.135E+00 9.757E-13 5.239E-05 1.301E-03 5.661E-05
 ETOT  2  -1.1354133241663    -5.318E-08 5.871E-16 1.992E-05 3.311E-05 2.350E-05
 ETOT  3  -1.1354133449554    -2.079E-08 9.267E-11 5.378E-07 3.934E-05 1.584E-05
 ETOT  4  -1.1354133453332    -3.778E-10 3.778E-14 1.836E-07 4.683E-06 1.116E-05
 ETOT  5  -1.1354133456165    -2.833E-10 4.562E-13 3.670E-09 7.816E-06 3.343E-06
 ETOT  6  -1.1354133456234    -6.960E-12 5.020E-15 1.224E-09 5.489E-07 2.794E-06
 ETOT  7  -1.1354133456259    -2.484E-12 5.453E-15 6.067E-11 5.444E-07 2.250E-06
 ETOT  8  -1.1354133456259    -2.220E-16 7.142E-20 2.311E-11 1.377E-08 2.264E-06
 ETOT  9  -1.1354133456259    -5.551E-15 1.006E-18 9.986E-13 4.588E-08 2.310E-06
 ETOT 10  -1.1354133456259    -1.044E-14 1.574E-18 2.849E-13 1.168E-08 2.321E-06
 ETOT 11  -1.1354133456259     9.548E-15 1.413E-18 3.252E-14 1.105E-08 2.332E-06
 ETOT 12  -1.1354133456259    -7.772E-15 6.921E-21 1.423E-14 5.291E-10 2.333E-06
 ETOT 13  -1.1354133456259    -1.110E-15 6.177E-21 8.247E-16 2.407E-10 2.333E-06

 At SCF step   13, forces are converged : 
  for the second time, max diff in force=  2.407E-10 < toldff=  1.000E-09

 Cartesian components of stress tensor (hartree/bohr^3)
  sigma(1 1)=  1.11444960E-04  sigma(3 2)=  0.00000000E+00
  sigma(2 2)=  6.44812739E-04  sigma(3 1)=  0.00000000E+00
  sigma(3 3)=  6.44812739E-04  sigma(2 1)=  0.00000000E+00


---OUTPUT-----------------------------------------------------------------------

 Cartesian coordinates (xcart) [bohr]
 -7.90994234770841E-01 -2.53848377199261E-17 -9.72232236046705E-18
  7.90994234770841E-01  2.53848377199261E-17  9.72232236046705E-18
 Reduced coordinates (xred)
 -8.78882483078712E-02 -4.23080628665435E-18 -1.62038706007784E-18
  8.78882483078712E-02  4.23080628665435E-18  1.62038706007784E-18
 Cartesian forces (fcart) [Ha/bohr]; max,rms= 2.33318E-06 1.34706E-06 (free atoms)
  2.33317694106671E-06 -1.13436134023813E-17 -2.93453803623124E-17
 -2.33317694106671E-06  1.13436134023813E-17  2.93453803623124E-17
 Reduced forces (fred)
 -2.09985924620756E-05 -6.70176308699831E-16 -8.07755467126044E-17
  2.09985924771251E-05 -8.06299669528407E-16 -4.32920111060353E-16
 Total energy (etotal) [Ha]= -1.13541334562594E+00

 Difference of energy with previous step (new-old):
           Absolute (Ha)=-3.26305E-06
           Relative     =-2.87389E-06

 At Broyd/MD step   4, gradients are converged : 
  max grad (force/stress) = 2.3332E-06 < tolmxf= 5.0000E-04 ha/bohr (free atoms)

================================================================================

 ----iterations are completed or convergence reached----

 Mean square residual over all n,k,spin=   6.1769E-21; max=  6.1769E-21
   0.0000  0.0000  0.0000    1  6.17694E-21 kpt; spin; max resid(k); each band:
  6.18E-21
 reduced coordinates (array xred) for    2 atoms
      -0.087888248308     -0.000000000000     -0.000000000000
       0.087888248308      0.000000000000      0.000000000000
 rms dE/dt=  1.2124E-05; max dE/dt=  2.0999E-05; dE/dt below (all hartree)
    1      -0.000020998592     -0.000000000000     -0.000000000000
    2       0.000020998592     -0.000000000000     -0.000000000000

 cartesian coordinates (angstrom) at end:
    1     -0.41857612116682    -0.00000000000000    -0.00000000000000
    2      0.41857612116682     0.00000000000000     0.00000000000000

 cartesian forces (hartree/bohr) at end:
    1      0.00000233317694    -0.00000000000000    -0.00000000000000
    2     -0.00000233317694     0.00000000000000     0.00000000000000
 frms,max,avg= 1.3470603E-06 2.3331769E-06   0.000E+00  0.000E+00  0.000E+00 h/b

 cartesian forces (eV/Angstrom) at end:
    1      0.00011997677210    -0.00000000000000    -0.00000000000000
    2     -0.00011997677210     0.00000000000000     0.00000000000000
 frms,max,avg= 6.9268622E-05 1.1997677E-04   0.000E+00  0.000E+00  0.000E+00 e/A
 length scales=  9.000000000000  6.000000000000  6.000000000000 bohr
              =  4.762594877310  3.175063251540  3.175063251540 angstroms
 prteigrs : about to open file t48o_DS12_EIG
 Fermi (or HOMO) energy (hartree) =  -0.37499   Average Vxc (hartree)=  -0.16395
 Eigenvalues (hartree) for nkpt=   1  k points:
 kpt#   1, nband=  1, wtk=  1.00000, kpt=  0.0000  0.0000  0.0000 (reduced coord)
  -0.37499
 Fermi (or HOMO) energy (eV) = -10.20402   Average Vxc (eV)=  -4.46128
 Eigenvalues (   eV  ) for nkpt=   1  k points:
 kpt#   1, nband=  1, wtk=  1.00000, kpt=  0.0000  0.0000  0.0000 (reduced coord)
 -10.20402
 Total charge density [el/Bohr^3]
,     Maximum=    1.7460E-01  at reduced coord.    0.0000    0.0000    0.0000
,Next maximum=    1.5377E-01  at reduced coord.    0.9444    0.0000    0.0000
,     Minimum=    1.0620E-04  at reduced coord.    0.5000    0.5000    0.5000
,Next minimum=    1.1519E-04  at reduced coord.    0.5000    0.5000    0.4167
,  Integrated=    2.0000E+00

--------------------------------------------------------------------------------
 Components of total free energy (in Hartree) :

    Kinetic energy  =  7.02146706882374E-01
    Hartree energy  =  4.11547193211242E-01
    XC energy       = -5.64328644046864E-01
    Ewald energy    = -1.46300362227276E-01
    PspCore energy  =  5.18358393192022E-04
    Loc. psp. energy= -1.53899659783861E+00
    NL   psp  energy=  0.00000000000000E+00
    >>>>>>>>> Etotal= -1.13541334562594E+00

 Other information on the energy :
    Total energy(eV)= -3.08961683875944E+01 ; Band energy (Ha)=  -7.4998198374E-01
--------------------------------------------------------------------------------
 rms coord change=  1.2252E-02   atom, delta coord (reduced):
     1       -0.021221581641     -0.000000000000     -0.000000000000
     2        0.021221581641      0.000000000000      0.000000000000

 Cartesian components of stress tensor (hartree/bohr^3)
  sigma(1 1)=  1.11444960E-04  sigma(3 2)=  0.00000000E+00
  sigma(2 2)=  6.44812739E-04  sigma(3 1)=  0.00000000E+00
  sigma(3 3)=  6.44812739E-04  sigma(2 1)=  0.00000000E+00

-Cartesian components of stress tensor (GPa)         [Pressure= -1.3740E+01 GPa]
- sigma(1 1)=  3.27882337E+00  sigma(3 2)=  0.00000000E+00
- sigma(2 2)=  1.89710425E+01  sigma(3 1)=  0.00000000E+00
- sigma(3 3)=  1.89710425E+01  sigma(2 1)=  0.00000000E+00

================================================================================
== DATASET 21 ==================================================================
-   nproc =    1

 mkfilename : getwfk/=0, take file _WFK from output of DATASET  12.

 Exchange-correlation functional for the present dataset will be:
  LDA: new Teter (4/93) with spin-polarized option - ixc=1
 Citation for XC functional:
  S. Goedecker, M. Teter, J. Huetter, PRB 54, 1703 (1996)

 Real(R)+Recip(G) space primitive vectors, cartesian coordinates (Bohr,Bohr^-1):
 R(1)=  9.0000000  0.0000000  0.0000000  G(1)=  0.1111111  0.0000000  0.0000000
 R(2)=  0.0000000  6.0000000  0.0000000  G(2)=  0.0000000  0.1666667  0.0000000
 R(3)=  0.0000000  0.0000000  6.0000000  G(3)=  0.0000000  0.0000000  0.1666667
 Unit cell volume ucvol=  3.2400000E+02 bohr^3
 Angles (23,13,12)=  9.00000000E+01  9.00000000E+01  9.00000000E+01 degrees

 getcut: wavevector=  0.0000  0.0000  0.0000  ngfft=  18  12  12
         ecut(hartree)=      4.000   => boxcut(ratio)=   2.22144

 getcut : COMMENT -
  Note that boxcut > 2.2 ; recall that boxcut=Gcut(box)/Gcut(sphere) = 2
  is sufficient for exact treatment of convolution.
  Such a large boxcut is a waste : you could raise ecut
  e.g. ecut=    4.934802 Hartrees makes boxcut=2

--------------------------------------------------------------------------------

-inwffil : will read wavefunctions from disk file t48o_DS12_WFK
P newkpt: treating      1 bands with npw=      63 for ikpt=   1 by node    0

_setup2: Arith. and geom. avg. npw (full set) are     125.000     125.000

================================================================================

=== [ionmov= 2] Broyden-Fletcher-Goldfard-Shanno method (forces)            
================================================================================

--- Iteration: (1/8) Internal Cycle: (1/1)
--------------------------------------------------------------------------------

---SELF-CONSISTENT-FIELD CONVERGENCE--------------------------------------------

     iter   Etot(hartree)      deltaE(h)  residm     vres2    diffor    maxfor
 ETOT  1  -1.1288721733269    -1.129E+00 2.371E-09 2.222E-01 6.482E-02 6.482E-02
 ETOT  2  -1.1293230984888    -4.509E-04 1.892E-12 6.925E-02 3.624E-03 6.844E-02
 ETOT  3  -1.1295142254364    -1.911E-04 3.328E-07 1.824E-04 4.667E-03 7.311E-02
 ETOT  4  -1.1295145371885    -3.118E-07 2.872E-10 8.192E-05 6.767E-05 7.304E-02
 ETOT  5  -1.1295146516354    -1.144E-07 4.981E-10 7.572E-06 1.394E-04 7.290E-02
 ETOT  6  -1.1295146525877    -9.523E-10 4.044E-14 2.105E-06 1.906E-06 7.290E-02
 ETOT  7  -1.1295146555842    -2.996E-09 2.756E-12 2.666E-07 9.071E-06 7.291E-02
 ETOT  8  -1.1295146564509    -8.667E-10 6.480E-13 9.230E-08 5.965E-06 7.292E-02
 ETOT  9  -1.1295146567416    -2.907E-10 5.875E-13 2.405E-08 5.276E-06 7.292E-02
 ETOT 10  -1.1295146567490    -7.395E-12 1.832E-14 1.009E-08 9.442E-07 7.292E-02
 ETOT 11  -1.1295146567478     1.188E-12 1.054E-14 1.218E-09 6.099E-07 7.292E-02
 ETOT 12  -1.1295146567499    -2.115E-12 1.186E-15 3.136E-10 2.303E-07 7.292E-02
 ETOT 13  -1.1295146567510    -1.020E-12 9.167E-16 6.476E-11 2.507E-07 7.292E-02
 ETOT 14  -1.1295146567511    -1.115E-13 4.212E-18 2.837E-11 7.196E-08 7.292E-02
 ETOT 15  -1.1295146567511    -1.710E-14 3.231E-18 5.450E-12 7.139E-08 7.292E-02
 ETOT 16  -1.1295146567511     8.438E-15 3.272E-20 1.671E-12 2.731E-09 7.292E-02
 ETOT 17  -1.1295146567511    -5.107E-15 9.649E-19 2.150E-13 5.351E-09 7.292E-02
 ETOT 18  -1.1295146567511    -1.688E-14 1.967E-20 7.307E-14 4.537E-09 7.292E-02
 ETOT 19  -1.1295146567511     4.441E-15 2.680E-19 1.756E-14 4.012E-09 7.292E-02
 ETOT 20  -1.1295146567511     1.688E-14 7.669E-21 7.222E-15 7.149E-10 7.292E-02

 Cartesian components of stress tensor (hartree/bohr^3)
  sigma(1 1)= -2.01579822E-04  sigma(3 2)=  0.00000000E+00
  sigma(2 2)=  6.75450936E-04  sigma(3 1)=  0.00000000E+00
  sigma(3 3)=  6.75450936E-04  sigma(2 1)=  0.00000000E+00


---OUTPUT-----------------------------------------------------------------------

 Cartesian coordinates (xcart) [bohr]
 -7.00000000000000E-01  0.00000000000000E+00  0.00000000000000E+00
  7.00000000000000E-01  0.00000000000000E+00  0.00000000000000E+00
 Reduced coordinates (xred)
 -7.77777777777778E-02  0.00000000000000E+00  0.00000000000000E+00
  7.77777777777778E-02  0.00000000000000E+00  0.00000000000000E+00
 Cartesian forces (fcart) [Ha/bohr]; max,rms= 7.29229E-02 4.21021E-02 (free atoms)
 -7.29229473831240E-02 -2.19484897722522E-17 -9.29446832219652E-18
  7.29229473831240E-02  2.19484897722522E-17  9.29446832219652E-18
 Reduced forces (fred)
  6.56306526448120E-01 -9.15055641672206E-16 -3.54962700208231E-16
 -6.56306526448111E-01 -1.17843751893923E-15 -4.66496320074590E-16
 Total energy (etotal) [Ha]= -1.12951465675109E+00

--- Iteration: (2/8) Internal Cycle: (1/1)
--------------------------------------------------------------------------------

---SELF-CONSISTENT-FIELD CONVERGENCE--------------------------------------------

     iter   Etot(hartree)      deltaE(h)  residm     vres2    diffor    maxfor
 ETOT  1  -1.1351703158154    -1.135E+00 3.191E-11 4.797E-02 6.085E-02 1.207E-02
 ETOT  2  -1.1352073749148    -3.706E-05 3.844E-13 1.907E-02 7.807E-04 1.129E-02
 ETOT  3  -1.1352217347655    -1.436E-05 4.239E-09 4.409E-04 8.995E-04 1.039E-02
 ETOT  4  -1.1352221561949    -4.214E-07 2.627E-10 1.423E-04 1.652E-04 1.056E-02
 ETOT  5  -1.1352224399704    -2.838E-07 4.249E-10 3.707E-06 2.341E-04 1.079E-02
 ETOT  6  -1.1352224460149    -6.045E-09 5.171E-12 1.299E-06 1.535E-05 1.081E-02
 ETOT  7  -1.1352224482064    -2.192E-09 5.547E-12 5.961E-08 1.576E-05 1.082E-02
 ETOT  8  -1.1352224482139    -7.423E-12 1.262E-15 2.155E-08 6.328E-07 1.082E-02
 ETOT  9  -1.1352224482298    -1.594E-11 1.815E-15 9.183E-10 1.641E-06 1.082E-02
 ETOT 10  -1.1352224482322    -2.391E-12 1.360E-15 2.708E-10 3.430E-07 1.082E-02
 ETOT 11  -1.1352224482330    -8.453E-13 1.291E-15 3.054E-11 3.292E-07 1.082E-02
 ETOT 12  -1.1352224482330     1.199E-14 4.494E-18 1.322E-11 1.230E-08 1.082E-02
 ETOT 13  -1.1352224482330    -1.710E-14 1.225E-19 6.927E-13 1.233E-09 1.082E-02
 ETOT 14  -1.1352224482331    -1.577E-14 8.289E-19 1.852E-13 8.329E-09 1.082E-02
 ETOT 15  -1.1352224482330     1.799E-14 8.268E-19 1.848E-14 8.606E-09 1.082E-02
 ETOT 16  -1.1352224482330    -4.885E-15 9.629E-21 7.664E-15 9.505E-10 1.082E-02
 ETOT 17  -1.1352224482330     2.465E-14 1.248E-20 6.959E-16 1.015E-09 1.082E-02
 ETOT 18  -1.1352224482330    -1.443E-14 1.966E-22 2.127E-16 8.193E-11 1.082E-02
 ETOT 19  -1.1352224482330    -1.177E-14 5.151E-22 1.617E-17 1.651E-10 1.082E-02

 At SCF step   19, forces are converged : 
  for the second time, max diff in force=  1.651E-10 < toldff=  1.000E-09

 Cartesian components of stress tensor (hartree/bohr^3)
  sigma(1 1)=  5.71255490E-05  sigma(3 2)=  0.00000000E+00
  sigma(2 2)=  6.49745879E-04  sigma(3 1)=  0.00000000E+00
  sigma(3 3)=  6.49745879E-04  sigma(2 1)=  0.00000000E+00


---OUTPUT-----------------------------------------------------------------------

 Cartesian coordinates (xcart) [bohr]
 -7.72922947383124E-01 -2.19484897722522E-17 -9.29446832219653E-18
  7.72922947383124E-01  2.19484897722522E-17  9.29446832219652E-18
 Reduced coordinates (xred)
 -8.58803274870138E-02 -3.65808162870870E-18 -1.54907805369942E-18
  8.58803274870138E-02  3.65808162870871E-18  1.54907805369942E-18
 Cartesian forces (fcart) [Ha/bohr]; max,rms= 1.08209E-02 6.24747E-03 (free atoms)
 -1.08209320173124E-02 -3.44383865230035E-17  3.21038710234612E-17
  1.08209320173124E-02  3.44383865230035E-17 -3.21038710234612E-17
 Reduced forces (fred)
  9.73883881558142E-02 -9.51488649752336E-16 -4.77212788909391E-16
 -9.73883881558094E-02 -1.36474928802838E-15 -9.19663366278570E-17
 Total energy (etotal) [Ha]= -1.13522244823305E+00

 Difference of energy with previous step (new-old):
           Absolute (Ha)=-5.70779E-03
           Relative     =-5.04058E-03

--- Iteration: (3/8) Internal Cycle: (1/1)
--------------------------------------------------------------------------------

---SELF-CONSISTENT-FIELD CONVERGENCE--------------------------------------------

     iter   Etot(hartree)      deltaE(h)  residm     vres2    diffor    maxfor
 ETOT  1  -1.1353951290753    -1.135E+00 3.402E-11 1.437E-03 7.476E-03 3.345E-03
 ETOT  2  -1.1353965321176    -1.403E-06 1.503E-14 5.503E-04 1.667E-04 3.178E-03
 ETOT  3  -1.1353970800233    -5.479E-07 2.534E-09 1.462E-05 1.972E-04 2.981E-03
 ETOT  4  -1.1353970908670    -1.084E-08 1.240E-12 4.948E-06 2.501E-05 3.006E-03
 ETOT  5  -1.1353970988358    -7.969E-09 1.261E-11 1.020E-07 4.110E-05 3.047E-03
 ETOT  6  -1.1353970990246    -1.888E-10 1.399E-13 3.428E-08 2.829E-06 3.050E-03
 ETOT  7  -1.1353970990921    -6.751E-11 1.501E-13 1.673E-09 2.822E-06 3.053E-03
 ETOT  8  -1.1353970990922    -5.729E-14 4.213E-17 6.315E-10 7.890E-08 3.053E-03
 ETOT  9  -1.1353970990925    -3.197E-13 3.089E-17 2.736E-11 2.458E-07 3.052E-03
 ETOT 10  -1.1353970990925    -4.086E-14 4.221E-17 7.845E-12 6.079E-08 3.052E-03
 ETOT 11  -1.1353970990926    -4.308E-14 3.821E-17 8.929E-13 5.764E-08 3.052E-03
 ETOT 12  -1.1353970990926    -4.441E-16 1.772E-19 3.902E-13 2.641E-09 3.052E-03
 ETOT 13  -1.1353970990926    -1.621E-14 1.783E-19 2.216E-14 1.072E-09 3.052E-03
 ETOT 14  -1.1353970990926     1.754E-14 2.393E-20 5.972E-15 1.369E-09 3.052E-03
 ETOT 15  -1.1353970990926     1.021E-14 2.599E-20 5.870E-16 1.488E-09 3.052E-03
 ETOT 16  -1.1353970990926    -3.331E-15 3.238E-22 2.375E-16 1.866E-10 3.052E-03
 ETOT 17  -1.1353970990926    -1.221E-14 3.346E-22 2.516E-17 1.935E-10 3.052E-03

 At SCF step   17, forces are converged : 
  for the second time, max diff in force=  1.935E-10 < toldff=  1.000E-09

 Cartesian components of stress tensor (hartree/bohr^3)
  sigma(1 1)=  9.56898946E-05  sigma(3 2)=  0.00000000E+00
  sigma(2 2)=  6.46220481E-04  sigma(3 1)=  0.00000000E+00
  sigma(3 3)=  6.46220481E-04  sigma(2 1)=  0.00000000E+00


---OUTPUT-----------------------------------------------------------------------

 Cartesian coordinates (xcart) [bohr]
 -7.85629366836449E-01 -6.23875742944466E-17  2.84033243121998E-17
  7.85629366836449E-01  6.23875742944466E-17 -2.84033243121998E-17
 Reduced coordinates (xred)
 -8.72921518707165E-02 -1.03979290490744E-17  4.73388738536663E-18
  8.72921518707165E-02  1.03979290490744E-17 -4.73388738536663E-18
 Cartesian forces (fcart) [Ha/bohr]; max,rms= 3.05228E-03 1.76223E-03 (free atoms)
 -3.05227604049360E-03  5.46896914329543E-17 -8.37033894126146E-18
  3.05227604049360E-03 -5.46896914329543E-17  8.37033894126147E-18
 Reduced forces (fred)
  2.74704843644436E-02 -1.26504741223457E-15 -1.19140756857772E-16
 -2.74704843644412E-02 -6.08771115039121E-16 -2.19584824152909E-16
 Total energy (etotal) [Ha]= -1.13539709909260E+00

 Difference of energy with previous step (new-old):
           Absolute (Ha)=-1.74651E-04
           Relative     =-1.53835E-04

--- Iteration: (4/8) Internal Cycle: (1/1)
--------------------------------------------------------------------------------

---SELF-CONSISTENT-FIELD CONVERGENCE--------------------------------------------

     iter   Etot(hartree)      deltaE(h)  residm     vres2    diffor    maxfor
 ETOT  1  -1.1354129538783    -1.135E+00 4.202E-12 2.233E-04 2.726E-03 3.262E-04
 ETOT  2  -1.1354131790491    -2.252E-07 2.480E-15 8.501E-05 6.793E-05 2.583E-04
 ETOT  3  -1.1354132670497    -8.800E-08 3.951E-10 2.289E-06 8.061E-05 1.777E-04
 ETOT  4  -1.1354132686729    -1.623E-09 1.662E-13 7.803E-07 9.707E-06 1.874E-04
 ETOT  5  -1.1354132698859    -1.213E-09 1.959E-12 1.568E-08 1.616E-05 2.035E-04
 ETOT  6  -1.1354132699155    -2.961E-11 2.146E-14 5.236E-09 1.131E-06 2.047E-04
 ETOT  7  -1.1354132699261    -1.059E-11 2.330E-14 2.587E-10 1.123E-06 2.058E-04
 ETOT  8  -1.1354132699261    -1.110E-14 2.992E-19 9.843E-11 2.880E-08 2.058E-04
 ETOT  9  -1.1354132699261    -4.263E-14 4.401E-18 4.250E-12 9.517E-08 2.057E-04
 ETOT 10  -1.1354132699261    -6.661E-16 6.696E-18 1.213E-12 2.408E-08 2.056E-04
 ETOT 11  -1.1354132699261     4.663E-15 6.017E-18 1.385E-13 2.279E-08 2.056E-04
 ETOT 12  -1.1354132699261    -3.553E-15 2.941E-20 6.058E-14 1.084E-09 2.056E-04
 ETOT 13  -1.1354132699261     6.661E-16 2.697E-20 3.500E-15 4.854E-10 2.056E-04
 ETOT 14  -1.1354132699261    -2.220E-15 3.714E-21 9.439E-16 5.367E-10 2.056E-04

 At SCF step   14, forces are converged : 
  for the second time, max diff in force=  5.367E-10 < toldff=  1.000E-09

 Cartesian components of stress tensor (hartree/bohr^3)
  sigma(1 1)=  1.10360784E-04  sigma(3 2)=  0.00000000E+00
  sigma(2 2)=  6.44908968E-04  sigma(3 1)=  0.00000000E+00
  sigma(3 3)=  6.44908968E-04  sigma(2 1)=  0.00000000E+00


---OUTPUT-----------------------------------------------------------------------

 Cartesian coordinates (xcart) [bohr]
 -7.90621671782578E-01  1.14318415769531E-17  1.89421413277662E-17
  7.90621671782578E-01 -1.14318415769531E-17 -1.89421413277662E-17
 Reduced coordinates (xred)
 -8.78468524202864E-02  1.90530692949219E-18  3.15702355462770E-18
  8.78468524202864E-02 -1.90530692949218E-18 -3.15702355462771E-18
 Cartesian forces (fcart) [Ha/bohr]; max,rms= 2.05621E-04 1.18715E-04 (free atoms)
 -2.05621158642712E-04 -2.03674801573325E-18 -1.36661071680110E-18
  2.05621158642712E-04  2.03674801573325E-18  1.36661071680109E-18
 Reduced forces (fred)
  1.85059042779133E-03 -9.08085005502865E-16 -3.04087429327600E-16
 -1.85059042777748E-03 -9.32525981691664E-16 -3.20486757929214E-16
 Total energy (etotal) [Ha]= -1.13541326992612E+00

 Difference of energy with previous step (new-old):
           Absolute (Ha)=-1.61708E-05
           Relative     =-1.42423E-05

 At Broyd/MD step   4, gradients are converged : 
  max grad (force/stress) = 2.0562E-04 < tolmxf= 5.0000E-04 ha/bohr (free atoms)

================================================================================

 ----iterations are completed or convergence reached----

 Mean square residual over all n,k,spin=   3.7143E-21; max=  3.7143E-21
   0.0000  0.0000  0.0000    1  3.71432E-21 kpt; spin; max resid(k); each band:
  3.71E-21
 reduced coordinates (array xred) for    2 atoms
      -0.087846852420      0.000000000000      0.000000000000
       0.087846852420     -0.000000000000     -0.000000000000
 rms dE/dt=  1.0684E-03; max dE/dt=  1.8506E-03; dE/dt below (all hartree)
    1       0.001850590428     -0.000000000000     -0.000000000000
    2      -0.001850590428     -0.000000000000     -0.000000000000

 cartesian coordinates (angstrom) at end:
    1     -0.41837896932466     0.00000000000000     0.00000000000000
    2      0.41837896932466    -0.00000000000000    -0.00000000000000

 cartesian forces (hartree/bohr) at end:
    1     -0.00020562115864    -0.00000000000000    -0.00000000000000
    2      0.00020562115864     0.00000000000000     0.00000000000000
 frms,max,avg= 1.1871543E-04 2.0562116E-04   0.000E+00  0.000E+00  0.000E+00 h/b

 cartesian forces (eV/Angstrom) at end:
    1     -0.01057346421338    -0.00000000000000    -0.00000000000000
    2      0.01057346421338     0.00000000000000     0.00000000000000
 frms,max,avg= 6.1045924E-03 1.0573464E-02   0.000E+00  0.000E+00  0.000E+00 e/A
 length scales=  9.000000000000  6.000000000000  6.000000000000 bohr
              =  4.762594877310  3.175063251540  3.175063251540 angstroms
 prteigrs : about to open file t48o_DS21_EIG
 Fermi (or HOMO) energy (hartree) =  -0.37505   Average Vxc (hartree)=  -0.16393
 Eigenvalues (hartree) for nkpt=   1  k points:
 kpt#   1, nband=  1, wtk=  1.00000, kpt=  0.0000  0.0000  0.0000 (reduced coord)
  -0.37505
 Fermi (or HOMO) energy (eV) = -10.20565   Average Vxc (eV)=  -4.46066
 Eigenvalues (   eV  ) for nkpt=   1  k points:
 kpt#   1, nband=  1, wtk=  1.00000, kpt=  0.0000  0.0000  0.0000 (reduced coord)
 -10.20565
 Total charge density [el/Bohr^3]
,     Maximum=    1.7470E-01  at reduced coord.    0.0000    0.0000    0.0000
,Next maximum=    1.5385E-01  at reduced coord.    0.9444    0.0000    0.0000
,     Minimum=    1.0605E-04  at reduced coord.    0.5000    0.5000    0.5000
,Next minimum=    1.1505E-04  at reduced coord.    0.5000    0.5000    0.4167
,  Integrated=    2.0000E+00

--------------------------------------------------------------------------------
 Components of total free energy (in Hartree) :

    Kinetic energy  =  7.02474832124397E-01
    Hartree energy  =  4.11758939749136E-01
    XC energy       = -5.64432138049499E-01
    Ewald energy    = -1.46001824874334E-01
    PspCore energy  =  5.18358393192022E-04
    Loc. psp. energy= -1.53973143726902E+00
    NL   psp  energy=  0.00000000000000E+00
    >>>>>>>>> Etotal= -1.13541326992612E+00

 Other information on the energy :
    Total energy(eV)= -3.08961663276976E+01 ; Band energy (Ha)=  -7.5010131281E-01
--------------------------------------------------------------------------------
 rms coord change=  5.8134E-03   atom, delta coord (reduced):
     1       -0.010069074643      0.000000000000      0.000000000000
     2        0.010069074643     -0.000000000000     -0.000000000000

 Cartesian components of stress tensor (hartree/bohr^3)
  sigma(1 1)=  1.10360784E-04  sigma(3 2)=  0.00000000E+00
  sigma(2 2)=  6.44908968E-04  sigma(3 1)=  0.00000000E+00
  sigma(3 3)=  6.44908968E-04  sigma(2 1)=  0.00000000E+00

-Cartesian components of stress tensor (GPa)         [Pressure= -1.3732E+01 GPa]
- sigma(1 1)=  3.24692581E+00  sigma(3 2)=  0.00000000E+00
- sigma(2 2)=  1.89738737E+01  sigma(3 1)=  0.00000000E+00
- sigma(3 3)=  1.89738737E+01  sigma(2 1)=  0.00000000E+00

================================================================================
== DATASET 22 ==================================================================
-   nproc =    1

[...]
 Reduced coordinates (xred)
 -8.78634092713453E-02 -4.26577922348724E-18 -5.32122643297820E-18
  8.78634092713453E-02  4.26577922348720E-18  5.32122643297820E-18
 Cartesian forces (fcart) [Ha/bohr]; max,rms= 1.22374E-04 7.06525E-05 (free atoms)
 -1.22373679468399E-04  4.65510363709646E-18  8.29370499997375E-18
  1.22373679468399E-04 -4.65510363709646E-18 -8.29370499997375E-18
 Reduced forces (fred)
  1.10136311522007E-03 -8.79049782259395E-16 -4.33669299666121E-16
 -1.10136311521112E-03 -8.23188538614237E-16 -3.34144839666436E-16
 Total energy (etotal) [Ha]= -1.13541331879882E+00

 Difference of energy with previous step (new-old):
           Absolute (Ha)=-3.31039E-05
           Relative     =-2.91563E-05

 At Broyd/MD step   5, gradients are converged : 
  max grad (force/stress) = 1.2237E-04 < tolmxf= 5.0000E-04 ha/bohr (free atoms)

================================================================================

 ----iterations are completed or convergence reached----

 Mean square residual over all n,k,spin=   2.6339E-21; max=  2.6339E-21
   0.0000  0.0000  0.0000    1  2.63394E-21 kpt; spin; max resid(k); each band:
  2.63E-21
 reduced coordinates (array xred) for    2 atoms
      -0.087863409271     -0.000000000000     -0.000000000000
       0.087863409271      0.000000000000      0.000000000000
 rms dE/dt=  6.3587E-04; max dE/dt=  1.1014E-03; dE/dt below (all hartree)
    1       0.001101363115     -0.000000000000     -0.000000000000
    2      -0.001101363115     -0.000000000000     -0.000000000000

 cartesian coordinates (angstrom) at end:
    1     -0.41845782289870    -0.00000000000000    -0.00000000000000
    2      0.41845782289870     0.00000000000000     0.00000000000000

 cartesian forces (hartree/bohr) at end:
    1     -0.00012237367947     0.00000000000000     0.00000000000000
    2      0.00012237367947    -0.00000000000000    -0.00000000000000
 frms,max,avg= 7.0652477E-05 1.2237368E-04   0.000E+00  0.000E+00  0.000E+00 h/b

 cartesian forces (eV/Angstrom) at end:
    1     -0.00629270707869     0.00000000000000     0.00000000000000
    2      0.00629270707869    -0.00000000000000    -0.00000000000000
 frms,max,avg= 3.6330961E-03 6.2927071E-03   0.000E+00  0.000E+00  0.000E+00 e/A
 length scales=  9.000000000000  6.000000000000  6.000000000000 bohr
              =  4.762594877310  3.175063251540  3.175063251540 angstroms
 prteigrs : about to open file t48o_DS62_EIG
 Fermi (or HOMO) energy (hartree) =  -0.37503   Average Vxc (hartree)=  -0.16394
 Eigenvalues (hartree) for nkpt=   1  k points:
 kpt#   1, nband=  1, wtk=  1.00000, kpt=  0.0000  0.0000  0.0000 (reduced coord)
  -0.37503
 Fermi (or HOMO) energy (eV) = -10.20500   Average Vxc (eV)=  -4.46091
 Eigenvalues (   eV  ) for nkpt=   1  k points:
 kpt#   1, nband=  1, wtk=  1.00000, kpt=  0.0000  0.0000  0.0000 (reduced coord)
 -10.20500
 Total charge density [el/Bohr^3]
,     Maximum=    1.7466E-01  at reduced coord.    0.0000    0.0000    0.0000
,Next maximum=    1.5382E-01  at reduced coord.    0.9444    0.0000    0.0000
,     Minimum=    1.0611E-04  at reduced coord.    0.5000    0.5000    0.5000
,Next minimum=    1.1511E-04  at reduced coord.    0.5000    0.5000    0.4167
,  Integrated=    2.0000E+00

--------------------------------------------------------------------------------
 Components of total free energy (in Hartree) :

    Kinetic energy  =  7.02343569753479E-01
    Hartree energy  =  4.11674239626210E-01
    XC energy       = -5.64390739464181E-01
    Ewald energy    = -1.46121262904818E-01
    PspCore energy  =  5.18358393192022E-04
    Loc. psp. energy= -1.53943748420270E+00
    NL   psp  energy=  0.00000000000000E+00
    >>>>>>>>> Etotal= -1.13541331879882E+00

 Other information on the energy :
    Total energy(eV)= -3.08961676575913E+01 ; Band energy (Ha)=  -7.5005357597E-01
--------------------------------------------------------------------------------
 rms coord change=  1.9837E-02   atom, delta coord (reduced):
     1        0.034358812951     -0.000000000000     -0.000000000000
     2       -0.034358812951      0.000000000000      0.000000000000

 Cartesian components of stress tensor (hartree/bohr^3)
  sigma(1 1)=  1.10794592E-04  sigma(3 2)=  0.00000000E+00
  sigma(2 2)=  6.44870455E-04  sigma(3 1)=  0.00000000E+00
  sigma(3 3)=  6.44870455E-04  sigma(2 1)=  0.00000000E+00

-Cartesian components of stress tensor (GPa)         [Pressure= -1.3735E+01 GPa]
- sigma(1 1)=  3.25968888E+00  sigma(3 2)=  0.00000000E+00
- sigma(2 2)=  1.89727406E+01  sigma(3 1)=  0.00000000E+00
- sigma(3 3)=  1.89727406E+01  sigma(2 1)=  0.00000000E+00

== END DATASET(S) ==============================================================
================================================================================
  
 -outvars: echo values of variables after computation  --------
            acell      9.0000000000E+00  6.0000000000E+00  6.0000000000E+00 Bohr
              amu      1.00794000E+00
           diemac      1.00000000E+00
           diemix      3.33333333E-01
             ecut      4.00000000E+00 Hartree
           enunit           2
           etotal11   -1.1354132881E+00
           etotal12   -1.1354133456E+00
           etotal21   -1.1354132699E+00
           etotal22   -1.1354132887E+00
           etotal31   -1.1354133325E+00
           etotal32   -1.1354133456E+00
           etotal41   -1.1354133374E+00
           etotal42   -1.1354133456E+00
           etotal51   -1.1349331402E+00
           etotal52   -1.1354133418E+00
           etotal61   -1.1160852704E+00
           etotal62   -1.1354133188E+00
            fcart11    1.7898585479E-04  2.0471236156E-18  1.4320181943E-17
                      -1.7898585479E-04 -2.0471236156E-18 -1.4320181943E-17
            fcart12    2.3331769411E-06 -1.1343613402E-17 -2.9345380362E-17
                      -2.3331769411E-06  1.1343613402E-17  2.9345380362E-17
            fcart21   -2.0562115864E-04 -2.0367480157E-18 -1.3666107168E-18
                       2.0562115864E-04  2.0367480157E-18  1.3666107168E-18
            fcart22    1.7803332810E-04 -1.0634113245E-17  3.2460551638E-17
                      -1.7803332810E-04  1.0634113245E-17 -3.2460551638E-17
            fcart31   -8.5467182912E-05  9.9516272790E-18  1.7736154083E-17
                       8.5467182912E-05 -9.9516272790E-18 -1.7736154083E-17
            fcart32   -3.7722060159E-07 -1.8791661722E-17 -9.4636607320E-18
                       3.7722060159E-07  1.8791661722E-17  9.4636607320E-18
            fcart41   -6.7716949408E-05 -1.6848197936E-17  3.5345655875E-17
                       6.7716949408E-05  1.6848197936E-17 -3.5345655875E-17
            fcart42    4.0417217778E-06  6.6341481309E-18  5.0264420775E-17
                      -4.0417217778E-06 -6.6341481309E-18 -5.0264420775E-17
            fcart51    1.5084510096E-02  4.3267582786E-17  1.9356700582E-17
                      -1.5084510096E-02 -4.3267582786E-17 -1.9356700582E-17
            fcart52    4.6004505170E-05 -1.6068190065E-17 -3.2440837269E-17
                      -4.6004505170E-05  1.6068190065E-17  3.2440837269E-17
            fcart61    5.2351118429E-02  2.7748198808E-18  9.4745667654E-18
                      -5.2351118429E-02 -2.7748198808E-18 -9.4745667654E-18
            fcart62   -1.2237367947E-04  4.6551036371E-18  8.2937050000E-18
                       1.2237367947E-04 -4.6551036371E-18 -8.2937050000E-18
-          fftalg         112
           getwfk          -1
            intxc           1
           ionmov11         2
           ionmov12         3
           ionmov21         2
           ionmov22         3
           ionmov31         2
           ionmov32         3
           ionmov41         2
           ionmov42         3
           ionmov51         2
           ionmov52         3
           ionmov61         2
           ionmov62         3
             iscf           3
           istwfk        2
           jdtset       11   12   21   22   31   32   41   42   51   52
                        61   62
           kptopt           0
P           mkmem           1
            natom           2
            nband           1
           ndtset          12
            ngfft          18      12      12
             nkpt           1
            nstep          20
             nsym           1
            ntime11         8
            ntime12         8
            ntime21         8
            ntime22         8
            ntime31         8
            ntime32         8
            ntime41         8
            ntime42         8
            ntime51         8
            ntime52         8
            ntime61         2
            ntime62         8
           ntypat           1
              occ      2.000000
        optforces           1
          spgroup           1
           strten11    1.1236731052E-04  6.4473094659E-04  6.4473094657E-04
                       0.0000000000E+00  0.0000000000E+00  0.0000000000E+00
           strten12    1.1144495979E-04  6.4481273859E-04  6.4481273857E-04
                       0.0000000000E+00  0.0000000000E+00  0.0000000000E+00
           strten21    1.1036078366E-04  6.4490896770E-04  6.4490896768E-04
                       0.0000000000E+00  0.0000000000E+00  0.0000000000E+00
           strten22    1.1236233928E-04  6.4473139241E-04  6.4473139239E-04
                       0.0000000000E+00  0.0000000000E+00  0.0000000000E+00
           strten31    1.1098700398E-04  6.4485337938E-04  6.4485337936E-04
                       0.0000000000E+00  0.0000000000E+00  0.0000000000E+00
           strten32    1.1143082363E-04  6.4481399775E-04  6.4481399773E-04
                       0.0000000000E+00  0.0000000000E+00  0.0000000000E+00
           strten41    1.1107956189E-04  6.4484516407E-04  6.4484516405E-04
                       0.0000000000E+00  0.0000000000E+00  0.0000000000E+00
           strten42    1.1145387596E-04  6.4481194895E-04  6.4481194893E-04
                       0.0000000000E+00  0.0000000000E+00  0.0000000000E+00
           strten51    1.9550014991E-04  6.3767817719E-04  6.3767817717E-04
                       0.0000000000E+00  0.0000000000E+00  0.0000000000E+00
           strten52    1.1167286086E-04  6.4479252110E-04  6.4479252108E-04
                       0.0000000000E+00  0.0000000000E+00  0.0000000000E+00
           strten61    5.8888545583E-04  6.2109958629E-04  6.2109958627E-04
                       0.0000000000E+00  0.0000000000E+00  0.0000000000E+00
           strten62    1.1079459156E-04  6.4487045524E-04  6.4487045522E-04
                       0.0000000000E+00  0.0000000000E+00  0.0000000000E+00
           toldff      1.00000000E-09
           tolmxf      5.00000000E-04
            typat      1  1
           xangst11   -4.1874405725E-01 -2.8987500970E-17 -7.8595725565E-18
                       4.1874405725E-01  2.8987500970E-17  7.8595725565E-18
           xangst12   -4.1857612117E-01 -1.3433077565E-17 -5.1448314077E-18
                       4.1857612117E-01  1.3433077565E-17  5.1448314077E-18
           xangst21   -4.1837896932E-01  6.0494700147E-18  1.0023749473E-17
                       4.1837896932E-01 -6.0494700147E-18 -1.0023749473E-17
           xangst22   -4.1874315162E-01  7.1955301745E-18 -2.0484819466E-20
                       4.1874315162E-01 -7.1955301745E-18  2.0484819466E-20
           xangst31   -4.1849281159E-01 -3.5705618117E-18 -1.7021620412E-17
                       4.1849281159E-01  3.5705618117E-18  1.7021620412E-17
           xangst32   -4.1857354889E-01 -9.0303840995E-18 -2.4976703826E-17
                       4.1857354889E-01  9.0303840995E-18  2.4976703826E-17
           xangst41   -4.1850964551E-01 -3.1315773226E-17  1.2122860575E-17
                       4.1850964551E-01  3.1315773226E-17 -1.2122860575E-17
           xangst42   -4.1857774365E-01  1.8013972237E-17  1.0776244282E-17
                       4.1857774365E-01 -1.8013972237E-17 -1.0776244282E-17
           xangst51   -4.3474516086E-01 -1.8864600259E-16  1.5611703469E-17
                       4.3474516086E-01  1.8864600259E-16 -1.5611703469E-17
           xangst52   -4.1861759792E-01  7.5198391613E-18  4.8697502950E-17
                       4.1861759792E-01 -7.5198391613E-18 -4.8697502950E-17
           xangst61   -5.5470598175E-01  4.0658928273E-18 -2.0924442134E-18
                       5.5470598175E-01 -4.0658928273E-18  2.0924442134E-18
           xangst62   -4.1845782290E-01 -1.3544118852E-17 -1.6895230500E-17
                       4.1845782290E-01  1.3544118852E-17  1.6895230500E-17
            xcart11   -7.9131158797E-01 -5.4778438110E-17 -1.4852439653E-17
                       7.9131158797E-01  5.4778438110E-17  1.4852439653E-17
            xcart12   -7.9099423477E-01 -2.5384837720E-17 -9.7223223605E-18
                       7.9099423477E-01  2.5384837720E-17  9.7223223605E-18
            xcart21   -7.9062167178E-01  1.1431841577E-17  1.8942141328E-17
                       7.9062167178E-01 -1.1431841577E-17 -1.8942141328E-17
            xcart22   -7.9130987658E-01  1.3597581411E-17 -3.8710698671E-20
                       7.9130987658E-01 -1.3597581411E-17  3.8710698671E-20
            xcart31   -7.9083680250E-01 -6.7473839647E-18 -3.2166200917E-17
                       7.9083680250E-01  6.7473839647E-18  3.2166200917E-17
            xcart32   -7.9098937388E-01 -1.7064952823E-17 -4.7199129934E-17
                       7.9098937388E-01  1.7064952823E-17  4.7199129934E-17
            xcart41   -7.9086861399E-01 -5.9178235036E-17  2.2908886433E-17
                       7.9086861399E-01  5.9178235036E-17 -2.2908886433E-17
            xcart42   -7.9099730081E-01  3.4041474093E-17  2.0364150433E-17
                       7.9099730081E-01 -3.4041474093E-17 -2.0364150433E-17
            xcart51   -8.2154929162E-01 -3.5648928095E-16  2.9501844025E-17
                       8.2154929162E-01  3.5648928095E-16 -2.9501844025E-17
            xcart52   -7.9107261448E-01  1.4210436578E-17  9.2024943931E-17
                       7.9107261448E-01 -1.4210436578E-17 -9.2024943931E-17
            xcart61   -1.0482423898E+00  7.6834239292E-18 -3.9541465116E-18
                       1.0482423898E+00 -7.6834239292E-18  3.9541465116E-18
            xcart62   -7.9077068344E-01 -2.5594675341E-17 -3.1927358598E-17
                       7.9077068344E-01  2.5594675341E-17  3.1927358598E-17
             xred11   -8.7923509775E-02 -9.1297396851E-18 -2.4754066089E-18
                       8.7923509775E-02  9.1297396851E-18  2.4754066089E-18
             xred12   -8.7888248308E-02 -4.2308062867E-18 -1.6203870601E-18
                       8.7888248308E-02  4.2308062867E-18  1.6203870601E-18
             xred21   -8.7846852420E-02  1.9053069295E-18  3.1570235546E-18
                       8.7846852420E-02 -1.9053069295E-18 -3.1570235546E-18
             xred22   -8.7923319620E-02  2.2662635685E-18 -6.4517831119E-21
                       8.7923319620E-02 -2.2662635685E-18  6.4517831119E-21
             xred31   -8.7870755833E-02 -1.1245639941E-18 -5.3610334861E-18
                       8.7870755833E-02  1.1245639941E-18  5.3610334861E-18
             xred32   -8.7887708208E-02 -2.8441588038E-18 -7.8665216556E-18
                       8.7887708208E-02  2.8441588038E-18  7.8665216556E-18
             xred41   -8.7874290444E-02 -9.8630391727E-18  3.8181477389E-18
                       8.7874290444E-02  9.8630391727E-18 -3.8181477389E-18
             xred42   -8.7888588979E-02  5.6735790156E-18  3.3940250722E-18
                       8.7888588979E-02 -5.6735790156E-18 -3.3940250722E-18
             xred51   -9.1283254624E-02 -5.9414880158E-17  4.9169740041E-18
                       9.1283254624E-02  5.9414880158E-17 -4.9169740041E-18
             xred52   -8.7896957164E-02  2.3684060964E-18  1.5337490655E-17
                       8.7896957164E-02 -2.3684060964E-18 -1.5337490655E-17
             xred61   -1.1647137664E-01  1.2805706549E-18 -6.5902441860E-19
                       1.1647137664E-01 -1.2805706549E-18  6.5902441860E-19
             xred62   -8.7863409271E-02 -4.2657792235E-18 -5.3212264330E-18
                       8.7863409271E-02  4.2657792235E-18  5.3212264330E-18
            znucl        1.00000

================================================================================


- Timing analysis has been suppressed with timopt=0



================================================================================

 Suggested references for the acknowledgment of ABINIT usage.

 The users of ABINIT have little formal obligations with respect to the ABINIT group
 (those specified in the GNU General Public License, http://www.gnu.org/copyleft/gpl.txt).
 However, it is common practice in the scientific literature,
 to acknowledge the efforts of people that have made the research possible.
 In this spirit, please find below suggested citations of work written by ABINIT developers,
 corresponding to implementations inside of ABINIT that you have used in the present run.
 Note also that it will be of great value to readers of publications presenting these results,
 to read papers enabling them to understand the theoretical formalism and details
 of the ABINIT implementation.
 For information on why they are suggested, see also http://www.abinit.org/about/?text=acknowledgments.

 [1] ABINIT : First-principles approach of materials and nanosystem properties.
 X. Gonze, B. Amadon, P.-M. Anglade, J.-M. Beuken, F. Bottin, P. Boulanger, F. Bruneval,
 D. Caliste, R. Caracas, M. Cote, T. Deutsch, L. Genovese, Ph. Ghosez, M. Giantomassi
 S. Goedecker, D.R. Hamann, P. Hermet, F. Jollet, G. Jomard, S. Leroux, M. Mancini, S. Mazevet,
 M.J.T. Oliveira, G. Onida, Y. Pouillon, T. Rangel, G.-M. Rignanese, D. Sangalli, R. Shaltaf,
 M. Torrent, M.J. Verstraete, G. Zerah, J.W. Zwanziger
 Computer Phys. Comm. 180, 2582-2615 (2009).
 Comment : the third generic paper describing the ABINIT project.
 Note that a version of this paper, that is not formatted for Computer Phys. Comm. 
 is available at http://www.abinit.org/about/ABINIT_CPC_v10.pdf .
 The licence allows the authors to put it on the Web.

 [2] A brief introduction to the ABINIT software package.
 X. Gonze, G.-M. Rignanese, M. Verstraete, J.-M. Beuken, Y. Pouillon, R. Caracas, F. Jollet,
 M. Torrent, G. Zerah, M. Mikami, Ph. Ghosez, M. Veithen, J.-Y. Raty, V. Olevano, F. Bruneval,
 L. Reining, R. Godby, G. Onida, D.R. Hamann, and D.C. Allan.
 Z. Kristallogr. 220, 558-562 (2005).
 Comment : the second generic paper describing the ABINIT project. Note that this paper
 should be cited especially if you are using the GW part of ABINIT, as several authors
 of this part are not in the list of authors of the first or third paper.
 The .pdf of the latter paper is available at http://www.abinit.org/about/zfk_0505-06_558-562.pdf.
 Note that it should not redistributed (Copyright by Oldenburg Wissenshaftverlag,
 the licence allows the authors to put it on the Web).


 And optionally :

 [3] First-principles computation of material properties : the ABINIT software project. 
 X. Gonze, J.-M. Beuken, R. Caracas, F. Detraux, M. Fuchs, G.-M. Rignanese, L. Sindic,
 M. Verstraete, G. Zerah, F. Jollet, M. Torrent, A. Roy, M. Mikami, Ph. Ghosez, J.-Y. Raty, D.C. Allan.
 Computational Materials Science 25, 478-492 (2002). http://dx.doi.org/10.1016/S0927-0256(02)00325-7
 Comment : the original paper describing the ABINIT project.

 [4] Fast radix 2, 3, 4 and 5 kernels for Fast Fourier Transformations
 on computers with overlapping multiply-add instructions.
 S. Goedecker, SIAM J. on Scientific Computing 18, 1605 (1997).
-
- Proc.   0 individual time (sec): cpu=          2.9  wall=          2.9

================================================================================

 Calculation completed.
.Delivered   31 WARNINGs and 112 COMMENTs to log file.
+Overall time at end (sec) : cpu=          2.9  wall=          2.9
