
.Version 7.9.3 of ABINIT 
.(MPI version, prepared for a x86_64_linux_gnu4.7 computer) 

.Copyright (C) 1998-2014 ABINIT group . 
 ABINIT comes with ABSOLUTELY NO WARRANTY.
 It is free software, and you are welcome to redistribute it
 under certain conditions (GNU General Public License,
 see ~abinit/COPYING or http://www.gnu.org/copyleft/gpl.txt).

 ABINIT is a project of the Universite Catholique de Louvain,
 Corning Inc. and other collaborators, see ~abinit/doc/developers/contributors.txt .
 Please read ~abinit/doc/users/acknowledgments.html for suggested
 acknowledgments of the ABINIT effort.
 For more information, see http://www.abinit.org .

.Starting date : Sat 30 Aug 2014.
- ( at 22h31 )
  
- input  file    -> t59.in
- output file    -> t59.out
- root for input  files -> t59i
- root for output files -> t59o


 DATASET    1 : the unit cell is not primitive
================================================================================
 Values of the parameters that define the memory need for DATASET  1.
   intxc =         1  ionmov =         0    iscf =         5 xclevel =         1
  lmnmax =         3   lnmax =         3   mband =         8  mffmem =         1
P  mgfft =        24   mkmem =         1 mpssoang=         3     mpw =       675
  mqgrid =      3001   natom =         4    nfft =     13824    nkpt =         1
  nloalg =         4  nspden =         1 nspinor =         1  nsppol =         1
    nsym =       192  n1xccc =         0  ntypat =         1  occopt =         4
================================================================================
P This job should need less than                       4.630 Mbytes of memory.
  Rough estimation (10% accuracy) of disk space for files :
_ WF disk file :      0.084 Mbytes ; DEN or POT disk file :      0.107 Mbytes.
================================================================================


 DATASET    2 : space group Fm -3 m (#225); Bravais cF (face-center cubic)
================================================================================
 Values of the parameters that define the memory need for DATASET  2.
   intxc =         1  ionmov =         0    iscf =         5 xclevel =         1
  lmnmax =         3   lnmax =         3   mband =         3  mffmem =         1
P  mgfft =        16   mkmem =         2 mpssoang=         3     mpw =       171
  mqgrid =      3001   natom =         1    nfft =      4096    nkpt =         2
  nloalg =         4  nspden =         1 nspinor =         1  nsppol =         1
    nsym =        48  n1xccc =         0  ntypat =         1  occopt =         4
================================================================================
P This job should need less than                       2.199 Mbytes of memory.
  Rough estimation (10% accuracy) of disk space for files :
_ WF disk file :      0.018 Mbytes ; DEN or POT disk file :      0.033 Mbytes.
================================================================================

--------------------------------------------------------------------------------
------------- Echo of variables that govern the present computation ------------
--------------------------------------------------------------------------------
-
- outvars: echo of selected default values                                      
-   accesswff0 =  0 , fftalg0 =112 , wfoptalg0 =  0
-
- outvars: echo of global parameters not present in the input file              
-  max_nthreads =    0
-
 -outvars: echo values of preprocessed input variables --------
            acell1     7.6000000000E+00  7.6000000000E+00  7.6000000000E+00 Bohr
            acell2     1.0000000000E+00  1.0000000000E+00  1.0000000000E+00 Bohr
              amu      2.69815390E+01
             ecut      1.00000000E+01 Hartree
-          fftalg         112
            intxc           1
             iscf           5
           jdtset        1    2
              kpt1     2.50000000E-01  2.50000000E-01  2.50000000E-01
              kpt2    -2.50000000E-01  5.00000000E-01  0.00000000E+00
                      -2.50000000E-01  0.00000000E+00  0.00000000E+00
         kptrlatt1       2    0    0      0    2    0      0    0    2
         kptrlatt2       2   -2    2     -2    2    2     -2   -2    2
          kptrlen      1.52000000E+01
P           mkmem1          1
P           mkmem2          2
            natom1          4
            natom2          1
            nband1          8
            nband2          3
           ndtset           2
            ngfft1         24      24      24
            ngfft2         16      16      16
             nkpt1          1
             nkpt2          2
            nstep           8
             nsym1        192
             nsym2         48
           ntypat           1
              occ1     2.000000  2.000000  2.000000  2.000000  2.000000  2.000000
                       0.000000  0.000000
              occ2     2.000000  1.000000  0.000000
                       2.000000  1.000000  0.000000
           occopt           4
            rprim1     1.0000000000E+00  0.0000000000E+00  0.0000000000E+00
                       0.0000000000E+00  1.0000000000E+00  0.0000000000E+00
                       0.0000000000E+00  0.0000000000E+00  1.0000000000E+00
            rprim2     0.0000000000E+00  3.8000000000E+00  3.8000000000E+00
                       3.8000000000E+00  0.0000000000E+00  3.8000000000E+00
                       3.8000000000E+00  3.8000000000E+00  0.0000000000E+00
           shiftk      5.00000000E-01  5.00000000E-01  5.00000000E-01
          spgroup1          0
          spgroup2        225
           symafm1       1    1    1    1    1    1    1    1    1    1
                         1    1    1    1    1    1    1    1    1    1
                         1    1    1    1    1    1    1    1    1    1
                         1    1    1    1    1    1    1    1    1    1
                         1    1    1    1    1    1    1    1    1    1
                         1    1    1    1    1    1    1    1    1    1
                         1    1    1    1    1    1    1    1    1    1
                         1    1    1    1    1    1    1    1    1    1
                         1    1    1    1    1    1    1    1    1    1
                         1    1    1    1    1    1    1    1    1    1
                         1    1    1    1    1    1    1    1    1    1
                         1    1    1    1    1    1    1    1    1    1
                         1    1    1    1    1    1    1    1    1    1
                         1    1    1    1    1    1    1    1    1    1
                         1    1    1    1    1    1    1    1    1    1
                         1    1    1    1    1    1    1    1    1    1
                         1    1    1    1    1    1    1    1    1    1
                         1    1    1    1    1    1    1    1    1    1
                         1    1    1    1    1    1    1    1    1    1
                         1    1
           symafm2       1    1    1    1    1    1    1    1    1    1
                         1    1    1    1    1    1    1    1    1    1
                         1    1    1    1    1    1    1    1    1    1
                         1    1    1    1    1    1    1    1    1    1
                         1    1    1    1    1    1    1    1
           symrel1     1  0  0   0  1  0   0  0  1       0  1  0   0  0  1   1  0  0
                      -1  0  0   0 -1  0   0  0  1      -1  0  0   0  1  0   0  0 -1
                       0  1  0   1  0  0   0  0 -1       0  0  1   1  0  0   0  1  0
                       0 -1  0   0  0 -1   1  0  0       0 -1  0   0  0  1  -1  0  0
                       0  0  1   0  1  0  -1  0  0       1  0  0   0 -1  0   0  0 -1
                       0 -1  0  -1  0  0   0  0 -1       0  1  0   0  0 -1  -1  0  0
                       0  1  0  -1  0  0   0  0  1       1  0  0   0  0 -1   0  1  0
                       0 -1  0   1  0  0   0  0  1       0  0 -1  -1  0  0   0  1  0
                       0  0 -1   1  0  0   0 -1  0       1  0  0   0  0  1   0 -1  0
                       0  0 -1   0 -1  0  -1  0  0       0  0  1  -1  0  0   0 -1  0
                       0  0  1   0 -1  0   1  0  0       0  0 -1   0  1  0   1  0  0
                      -1  0  0   0  0 -1   0 -1  0      -1  0  0   0  0  1   0  1  0
                      -1  0  0   0 -1  0   0  0 -1       0 -1  0   0  0 -1  -1  0  0
                       1  0  0   0  1  0   0  0 -1       1  0  0   0 -1  0   0  0  1
                       0 -1  0  -1  0  0   0  0  1       0  0 -1  -1  0  0   0 -1  0
                       0  1  0   0  0  1  -1  0  0       0  1  0   0  0 -1   1  0  0
                       0  0 -1   0 -1  0   1  0  0      -1  0  0   0  1  0   0  0  1
                       0  1  0   1  0  0   0  0  1       0 -1  0   0  0  1   1  0  0
                       0 -1  0   1  0  0   0  0 -1      -1  0  0   0  0  1   0 -1  0
                       0  1  0  -1  0  0   0  0 -1       0  0  1   1  0  0   0 -1  0
                       0  0  1  -1  0  0   0  1  0      -1  0  0   0  0 -1   0  1  0
                       0  0  1   0  1  0   1  0  0       0  0 -1   1  0  0   0  1  0
                       0  0 -1   0  1  0  -1  0  0       0  0  1   0 -1  0  -1  0  0
                       1  0  0   0  0  1   0  1  0       1  0  0   0  0 -1   0 -1  0
                       1  0  0   0  1  0   0  0  1       0  1  0   0  0  1   1  0  0
                      -1  0  0   0 -1  0   0  0  1      -1  0  0   0  1  0   0  0 -1
                       0  1  0   1  0  0   0  0 -1       0  0  1   1  0  0   0  1  0
                       0 -1  0   0  0 -1   1  0  0       0 -1  0   0  0  1  -1  0  0
                       0  0  1   0  1  0  -1  0  0       1  0  0   0 -1  0   0  0 -1
                       0 -1  0  -1  0  0   0  0 -1       0  1  0   0  0 -1  -1  0  0
                       0  1  0  -1  0  0   0  0  1       1  0  0   0  0 -1   0  1  0
                       0 -1  0   1  0  0   0  0  1       0  0 -1  -1  0  0   0  1  0
                       0  0 -1   1  0  0   0 -1  0       1  0  0   0  0  1   0 -1  0
                       0  0 -1   0 -1  0  -1  0  0       0  0  1  -1  0  0   0 -1  0
                       0  0  1   0 -1  0   1  0  0       0  0 -1   0  1  0   1  0  0
                      -1  0  0   0  0 -1   0 -1  0      -1  0  0   0  0  1   0  1  0
                      -1  0  0   0 -1  0   0  0 -1       0 -1  0   0  0 -1  -1  0  0
                       1  0  0   0  1  0   0  0 -1       1  0  0   0 -1  0   0  0  1
                       0 -1  0  -1  0  0   0  0  1       0  0 -1  -1  0  0   0 -1  0
                       0  1  0   0  0  1  -1  0  0       0  1  0   0  0 -1   1  0  0
                       0  0 -1   0 -1  0   1  0  0      -1  0  0   0  1  0   0  0  1
                       0  1  0   1  0  0   0  0  1       0 -1  0   0  0  1   1  0  0
                       0 -1  0   1  0  0   0  0 -1      -1  0  0   0  0  1   0 -1  0
                       0  1  0  -1  0  0   0  0 -1       0  0  1   1  0  0   0 -1  0
                       0  0  1  -1  0  0   0  1  0      -1  0  0   0  0 -1   0  1  0
                       0  0  1   0  1  0   1  0  0       0  0 -1   1  0  0   0  1  0
                       0  0 -1   0  1  0  -1  0  0       0  0  1   0 -1  0  -1  0  0
                       1  0  0   0  0  1   0  1  0       1  0  0   0  0 -1   0 -1  0
                       1  0  0   0  1  0   0  0  1       0  1  0   0  0  1   1  0  0
                      -1  0  0   0 -1  0   0  0  1      -1  0  0   0  1  0   0  0 -1
                       0  1  0   1  0  0   0  0 -1       0  0  1   1  0  0   0  1  0
                       0 -1  0   0  0 -1   1  0  0       0 -1  0   0  0  1  -1  0  0
                       0  0  1   0  1  0  -1  0  0       1  0  0   0 -1  0   0  0 -1
                       0 -1  0  -1  0  0   0  0 -1       0  1  0   0  0 -1  -1  0  0
                       0  1  0  -1  0  0   0  0  1       1  0  0   0  0 -1   0  1  0
                       0 -1  0   1  0  0   0  0  1       0  0 -1  -1  0  0   0  1  0
                       0  0 -1   1  0  0   0 -1  0       1  0  0   0  0  1   0 -1  0
                       0  0 -1   0 -1  0  -1  0  0       0  0  1  -1  0  0   0 -1  0
                       0  0  1   0 -1  0   1  0  0       0  0 -1   0  1  0   1  0  0
                      -1  0  0   0  0 -1   0 -1  0      -1  0  0   0  0  1   0  1  0
                      -1  0  0   0 -1  0   0  0 -1       0 -1  0   0  0 -1  -1  0  0
                       1  0  0   0  1  0   0  0 -1       1  0  0   0 -1  0   0  0  1
                       0 -1  0  -1  0  0   0  0  1       0  0 -1  -1  0  0   0 -1  0
                       0  1  0   0  0  1  -1  0  0       0  1  0   0  0 -1   1  0  0
                       0  0 -1   0 -1  0   1  0  0      -1  0  0   0  1  0   0  0  1
                       0  1  0   1  0  0   0  0  1       0 -1  0   0  0  1   1  0  0
                       0 -1  0   1  0  0   0  0 -1      -1  0  0   0  0  1   0 -1  0
                       0  1  0  -1  0  0   0  0 -1       0  0  1   1  0  0   0 -1  0
                       0  0  1  -1  0  0   0  1  0      -1  0  0   0  0 -1   0  1  0
                       0  0  1   0  1  0   1  0  0       0  0 -1   1  0  0   0  1  0
                       0  0 -1   0  1  0  -1  0  0       0  0  1   0 -1  0  -1  0  0
                       1  0  0   0  0  1   0  1  0       1  0  0   0  0 -1   0 -1  0
                       1  0  0   0  1  0   0  0  1       0  1  0   0  0  1   1  0  0
                      -1  0  0   0 -1  0   0  0  1      -1  0  0   0  1  0   0  0 -1
                       0  1  0   1  0  0   0  0 -1       0  0  1   1  0  0   0  1  0
                       0 -1  0   0  0 -1   1  0  0       0 -1  0   0  0  1  -1  0  0
                       0  0  1   0  1  0  -1  0  0       1  0  0   0 -1  0   0  0 -1
                       0 -1  0  -1  0  0   0  0 -1       0  1  0   0  0 -1  -1  0  0
                       0  1  0  -1  0  0   0  0  1       1  0  0   0  0 -1   0  1  0
                       0 -1  0   1  0  0   0  0  1       0  0 -1  -1  0  0   0  1  0
                       0  0 -1   1  0  0   0 -1  0       1  0  0   0  0  1   0 -1  0
                       0  0 -1   0 -1  0  -1  0  0       0  0  1  -1  0  0   0 -1  0
                       0  0  1   0 -1  0   1  0  0       0  0 -1   0  1  0   1  0  0
                      -1  0  0   0  0 -1   0 -1  0      -1  0  0   0  0  1   0  1  0
                      -1  0  0   0 -1  0   0  0 -1       0 -1  0   0  0 -1  -1  0  0
                       1  0  0   0  1  0   0  0 -1       1  0  0   0 -1  0   0  0  1
                       0 -1  0  -1  0  0   0  0  1       0  0 -1  -1  0  0   0 -1  0
                       0  1  0   0  0  1  -1  0  0       0  1  0   0  0 -1   1  0  0
                       0  0 -1   0 -1  0   1  0  0      -1  0  0   0  1  0   0  0  1
                       0  1  0   1  0  0   0  0  1       0 -1  0   0  0  1   1  0  0
                       0 -1  0   1  0  0   0  0 -1      -1  0  0   0  0  1   0 -1  0
                       0  1  0  -1  0  0   0  0 -1       0  0  1   1  0  0   0 -1  0
                       0  0  1  -1  0  0   0  1  0      -1  0  0   0  0 -1   0  1  0
                       0  0  1   0  1  0   1  0  0       0  0 -1   1  0  0   0  1  0
                       0  0 -1   0  1  0  -1  0  0       0  0  1   0 -1  0  -1  0  0
                       1  0  0   0  0  1   0  1  0       1  0  0   0  0 -1   0 -1  0
           symrel2     1  0  0   0  1  0   0  0  1       0  1  0   0  0  1   1  0  0
                       0  1 -1   1  0 -1   0  0 -1       0 -1  1   0 -1  0   1 -1  0
                      -1  0  1   0 -1  1   0  0  1       0  0  1   1  0  0   0  1  0
                      -1  0  1  -1  1  0  -1  0  0       1  0 -1   0  0 -1   0  1 -1
                       1 -1  0   1  0 -1   1  0  0      -1  0  0  -1  0  1  -1  1  0
                       0 -1  0  -1  0  0   0  0 -1       0 -1  0   1 -1  0   0 -1  1
                       1  0 -1   1  0  0   1 -1  0       0 -1  1   0  0  1  -1  0  1
                       0  1  0   0  1 -1  -1  1  0       1 -1  0   0 -1  1   0 -1  0
                      -1  1  0  -1  0  0  -1  0  1       0  1 -1  -1  1  0   0  1  0
                       0  0 -1   0 -1  0  -1  0  0       0  0 -1   0  1 -1   1  0 -1
                      -1  1  0   0  1  0   0  1 -1       0  0  1  -1  0  1   0 -1  1
                      -1  0  0   0  0 -1   0 -1  0       1  0  0   1 -1  0   1  0 -1
                      -1  0  0   0 -1  0   0  0 -1       0 -1  0   0  0 -1  -1  0  0
                       0 -1  1  -1  0  1   0  0  1       0  1 -1   0  1  0  -1  1  0
                       1  0 -1   0  1 -1   0  0 -1       0  0 -1  -1  0  0   0 -1  0
                       1  0 -1   1 -1  0   1  0  0      -1  0  1   0  0  1   0 -1  1
                      -1  1  0  -1  0  1  -1  0  0       1  0  0   1  0 -1   1 -1  0
                       0  1  0   1  0  0   0  0  1       0  1  0  -1  1  0   0  1 -1
                      -1  0  1  -1  0  0  -1  1  0       0  1 -1   0  0 -1   1  0 -1
                       0 -1  0   0 -1  1   1 -1  0      -1  1  0   0  1 -1   0  1  0
                       1 -1  0   1  0  0   1  0 -1       0 -1  1   1 -1  0   0 -1  0
                       0  0  1   0  1  0   1  0  0       0  0  1   0 -1  1  -1  0  1
                       1 -1  0   0 -1  0   0 -1  1       0  0 -1   1  0 -1   0  1 -1
                       1  0  0   0  0  1   0  1  0      -1  0  0  -1  1  0  -1  0  1
           timopt          -1
            tnons1     0.0000000  0.0000000  0.0000000     0.0000000  0.0000000  0.0000000
                       0.0000000  0.0000000  0.0000000     0.0000000  0.0000000  0.0000000
                       0.0000000  0.0000000  0.0000000     0.0000000  0.0000000  0.0000000
                       0.0000000  0.0000000  0.0000000     0.0000000  0.0000000  0.0000000
                       0.0000000  0.0000000  0.0000000     0.0000000  0.0000000  0.0000000
                       0.0000000  0.0000000  0.0000000     0.0000000  0.0000000  0.0000000
                       0.0000000  0.0000000  0.0000000     0.0000000  0.0000000  0.0000000
                       0.0000000  0.0000000  0.0000000     0.0000000  0.0000000  0.0000000
                       0.0000000  0.0000000  0.0000000     0.0000000  0.0000000  0.0000000
                       0.0000000  0.0000000  0.0000000     0.0000000  0.0000000  0.0000000
                       0.0000000  0.0000000  0.0000000     0.0000000  0.0000000  0.0000000
                       0.0000000  0.0000000  0.0000000     0.0000000  0.0000000  0.0000000
                      -0.0000000 -0.0000000 -0.0000000    -0.0000000 -0.0000000 -0.0000000
                      -0.0000000 -0.0000000 -0.0000000    -0.0000000 -0.0000000 -0.0000000
                      -0.0000000 -0.0000000 -0.0000000    -0.0000000 -0.0000000 -0.0000000
                      -0.0000000 -0.0000000 -0.0000000    -0.0000000 -0.0000000 -0.0000000
                      -0.0000000 -0.0000000 -0.0000000    -0.0000000 -0.0000000 -0.0000000
                      -0.0000000 -0.0000000 -0.0000000    -0.0000000 -0.0000000 -0.0000000
                      -0.0000000 -0.0000000 -0.0000000    -0.0000000 -0.0000000 -0.0000000
                      -0.0000000 -0.0000000 -0.0000000    -0.0000000 -0.0000000 -0.0000000
                      -0.0000000 -0.0000000 -0.0000000    -0.0000000 -0.0000000 -0.0000000
                      -0.0000000 -0.0000000 -0.0000000    -0.0000000 -0.0000000 -0.0000000
                      -0.0000000 -0.0000000 -0.0000000    -0.0000000 -0.0000000 -0.0000000
                      -0.0000000 -0.0000000 -0.0000000    -0.0000000 -0.0000000 -0.0000000
                       0.5000000  0.5000000  0.0000000     0.5000000  0.5000000  0.0000000
                       0.5000000  0.5000000  0.0000000     0.5000000  0.5000000  0.0000000
                       0.5000000  0.5000000  0.0000000     0.5000000  0.5000000  0.0000000
                       0.5000000  0.5000000  0.0000000     0.5000000  0.5000000  0.0000000
                       0.5000000  0.5000000  0.0000000     0.5000000  0.5000000  0.0000000
                       0.5000000  0.5000000  0.0000000     0.5000000  0.5000000  0.0000000
                       0.5000000  0.5000000  0.0000000     0.5000000  0.5000000  0.0000000
                       0.5000000  0.5000000  0.0000000     0.5000000  0.5000000  0.0000000
                       0.5000000  0.5000000  0.0000000     0.5000000  0.5000000  0.0000000
                       0.5000000  0.5000000  0.0000000     0.5000000  0.5000000  0.0000000
                       0.5000000  0.5000000  0.0000000     0.5000000  0.5000000  0.0000000
                       0.5000000  0.5000000  0.0000000     0.5000000  0.5000000  0.0000000
                       0.5000000  0.5000000 -0.0000000     0.5000000  0.5000000 -0.0000000
                       0.5000000  0.5000000 -0.0000000     0.5000000  0.5000000 -0.0000000
                       0.5000000  0.5000000 -0.0000000     0.5000000  0.5000000 -0.0000000
                       0.5000000  0.5000000 -0.0000000     0.5000000  0.5000000 -0.0000000
                       0.5000000  0.5000000 -0.0000000     0.5000000  0.5000000 -0.0000000
                       0.5000000  0.5000000 -0.0000000     0.5000000  0.5000000 -0.0000000
                       0.5000000  0.5000000 -0.0000000     0.5000000  0.5000000 -0.0000000
                       0.5000000  0.5000000 -0.0000000     0.5000000  0.5000000 -0.0000000
                       0.5000000  0.5000000 -0.0000000     0.5000000  0.5000000 -0.0000000
                       0.5000000  0.5000000 -0.0000000     0.5000000  0.5000000 -0.0000000
                       0.5000000  0.5000000 -0.0000000     0.5000000  0.5000000 -0.0000000
                       0.5000000  0.5000000 -0.0000000     0.5000000  0.5000000 -0.0000000
                       0.0000000  0.5000000  0.5000000     0.0000000  0.5000000  0.5000000
                       0.0000000  0.5000000  0.5000000     0.0000000  0.5000000  0.5000000
                       0.0000000  0.5000000  0.5000000     0.0000000  0.5000000  0.5000000
                       0.0000000  0.5000000  0.5000000     0.0000000  0.5000000  0.5000000
                       0.0000000  0.5000000  0.5000000     0.0000000  0.5000000  0.5000000
                       0.0000000  0.5000000  0.5000000     0.0000000  0.5000000  0.5000000
                       0.0000000  0.5000000  0.5000000     0.0000000  0.5000000  0.5000000
                       0.0000000  0.5000000  0.5000000     0.0000000  0.5000000  0.5000000
                       0.0000000  0.5000000  0.5000000     0.0000000  0.5000000  0.5000000
                       0.0000000  0.5000000  0.5000000     0.0000000  0.5000000  0.5000000
                       0.0000000  0.5000000  0.5000000     0.0000000  0.5000000  0.5000000
                       0.0000000  0.5000000  0.5000000     0.0000000  0.5000000  0.5000000
                      -0.0000000  0.5000000  0.5000000    -0.0000000  0.5000000  0.5000000
                      -0.0000000  0.5000000  0.5000000    -0.0000000  0.5000000  0.5000000
                      -0.0000000  0.5000000  0.5000000    -0.0000000  0.5000000  0.5000000
                      -0.0000000  0.5000000  0.5000000    -0.0000000  0.5000000  0.5000000
                      -0.0000000  0.5000000  0.5000000    -0.0000000  0.5000000  0.5000000
                      -0.0000000  0.5000000  0.5000000    -0.0000000  0.5000000  0.5000000
                      -0.0000000  0.5000000  0.5000000    -0.0000000  0.5000000  0.5000000
                      -0.0000000  0.5000000  0.5000000    -0.0000000  0.5000000  0.5000000
                      -0.0000000  0.5000000  0.5000000    -0.0000000  0.5000000  0.5000000
                      -0.0000000  0.5000000  0.5000000    -0.0000000  0.5000000  0.5000000
                      -0.0000000  0.5000000  0.5000000    -0.0000000  0.5000000  0.5000000
                      -0.0000000  0.5000000  0.5000000    -0.0000000  0.5000000  0.5000000
                       0.5000000  0.0000000  0.5000000     0.5000000  0.0000000  0.5000000
                       0.5000000  0.0000000  0.5000000     0.5000000  0.0000000  0.5000000
                       0.5000000  0.0000000  0.5000000     0.5000000  0.0000000  0.5000000
                       0.5000000  0.0000000  0.5000000     0.5000000  0.0000000  0.5000000
                       0.5000000  0.0000000  0.5000000     0.5000000  0.0000000  0.5000000
                       0.5000000  0.0000000  0.5000000     0.5000000  0.0000000  0.5000000
                       0.5000000  0.0000000  0.5000000     0.5000000  0.0000000  0.5000000
                       0.5000000  0.0000000  0.5000000     0.5000000  0.0000000  0.5000000
                       0.5000000  0.0000000  0.5000000     0.5000000  0.0000000  0.5000000
                       0.5000000  0.0000000  0.5000000     0.5000000  0.0000000  0.5000000
                       0.5000000  0.0000000  0.5000000     0.5000000  0.0000000  0.5000000
                       0.5000000  0.0000000  0.5000000     0.5000000  0.0000000  0.5000000
                       0.5000000 -0.0000000  0.5000000     0.5000000 -0.0000000  0.5000000
                       0.5000000 -0.0000000  0.5000000     0.5000000 -0.0000000  0.5000000
                       0.5000000 -0.0000000  0.5000000     0.5000000 -0.0000000  0.5000000
                       0.5000000 -0.0000000  0.5000000     0.5000000 -0.0000000  0.5000000
                       0.5000000 -0.0000000  0.5000000     0.5000000 -0.0000000  0.5000000
                       0.5000000 -0.0000000  0.5000000     0.5000000 -0.0000000  0.5000000
                       0.5000000 -0.0000000  0.5000000     0.5000000 -0.0000000  0.5000000
                       0.5000000 -0.0000000  0.5000000     0.5000000 -0.0000000  0.5000000
                       0.5000000 -0.0000000  0.5000000     0.5000000 -0.0000000  0.5000000
                       0.5000000 -0.0000000  0.5000000     0.5000000 -0.0000000  0.5000000
                       0.5000000 -0.0000000  0.5000000     0.5000000 -0.0000000  0.5000000
                       0.5000000 -0.0000000  0.5000000     0.5000000 -0.0000000  0.5000000
            tnons2     0.0000000  0.0000000  0.0000000     0.0000000  0.0000000  0.0000000
                       0.0000000  0.0000000  0.0000000     0.0000000  0.0000000  0.0000000
                       0.0000000  0.0000000  0.0000000     0.0000000  0.0000000  0.0000000
                       0.0000000  0.0000000  0.0000000     0.0000000  0.0000000  0.0000000
                       0.0000000  0.0000000  0.0000000     0.0000000  0.0000000  0.0000000
                       0.0000000  0.0000000  0.0000000     0.0000000  0.0000000  0.0000000
                       0.0000000  0.0000000  0.0000000     0.0000000  0.0000000  0.0000000
                       0.0000000  0.0000000  0.0000000     0.0000000  0.0000000  0.0000000
                       0.0000000  0.0000000  0.0000000     0.0000000  0.0000000  0.0000000
                       0.0000000  0.0000000  0.0000000     0.0000000  0.0000000  0.0000000
                       0.0000000  0.0000000  0.0000000     0.0000000  0.0000000  0.0000000
                       0.0000000  0.0000000  0.0000000     0.0000000  0.0000000  0.0000000
                       0.0000000  0.0000000  0.0000000     0.0000000  0.0000000  0.0000000
                       0.0000000  0.0000000  0.0000000     0.0000000  0.0000000  0.0000000
                       0.0000000  0.0000000  0.0000000     0.0000000  0.0000000  0.0000000
                       0.0000000  0.0000000  0.0000000     0.0000000  0.0000000  0.0000000
                       0.0000000  0.0000000  0.0000000     0.0000000  0.0000000  0.0000000
                       0.0000000  0.0000000  0.0000000     0.0000000  0.0000000  0.0000000
                       0.0000000  0.0000000  0.0000000     0.0000000  0.0000000  0.0000000
                       0.0000000  0.0000000  0.0000000     0.0000000  0.0000000  0.0000000
                       0.0000000  0.0000000  0.0000000     0.0000000  0.0000000  0.0000000
                       0.0000000  0.0000000  0.0000000     0.0000000  0.0000000  0.0000000
                       0.0000000  0.0000000  0.0000000     0.0000000  0.0000000  0.0000000
                       0.0000000  0.0000000  0.0000000     0.0000000  0.0000000  0.0000000
           toldfe      1.00000000E-06 Hartree
            typat1     1  1  1  1
            typat2     1
              wtk1       1.00000
              wtk2       0.75000    0.25000
           xangst1     0.0000000000E+00  0.0000000000E+00  0.0000000000E+00
                       2.0108733926E+00  2.0108733926E+00  0.0000000000E+00
                       0.0000000000E+00  2.0108733926E+00  2.0108733926E+00
                       2.0108733926E+00  0.0000000000E+00  2.0108733926E+00
           xangst2     0.0000000000E+00  0.0000000000E+00  0.0000000000E+00
            xcart1     0.0000000000E+00  0.0000000000E+00  0.0000000000E+00
                       3.8000000000E+00  3.8000000000E+00  0.0000000000E+00
                       0.0000000000E+00  3.8000000000E+00  3.8000000000E+00
                       3.8000000000E+00  0.0000000000E+00  3.8000000000E+00
            xcart2     0.0000000000E+00  0.0000000000E+00  0.0000000000E+00
             xred1     0.0000000000E+00  0.0000000000E+00  0.0000000000E+00
                       5.0000000000E-01  5.0000000000E-01  0.0000000000E+00
                       0.0000000000E+00  5.0000000000E-01  5.0000000000E-01
                       5.0000000000E-01  0.0000000000E+00  5.0000000000E-01
             xred2     0.0000000000E+00  0.0000000000E+00  0.0000000000E+00
            znucl       13.00000

================================================================================

 chkinp: Checking input parameters for consistency, jdtset=   1.

 chkinp: Checking input parameters for consistency, jdtset=   2.

================================================================================
== DATASET  1 ==================================================================
-   nproc =    1

 Exchange-correlation functional for the present dataset will be:
  LDA: new Teter (4/93) with spin-polarized option - ixc=1
 Citation for XC functional:
  S. Goedecker, M. Teter, J. Huetter, PRB 54, 1703 (1996)

 Real(R)+Recip(G) space primitive vectors, cartesian coordinates (Bohr,Bohr^-1):
 R(1)=  7.6000000  0.0000000  0.0000000  G(1)=  0.1315789  0.0000000  0.0000000
 R(2)=  0.0000000  7.6000000  0.0000000  G(2)=  0.0000000  0.1315789  0.0000000
 R(3)=  0.0000000  0.0000000  7.6000000  G(3)=  0.0000000  0.0000000  0.1315789
 Unit cell volume ucvol=  4.3897600E+02 bohr^3
 Angles (23,13,12)=  9.00000000E+01  9.00000000E+01  9.00000000E+01 degrees

 getcut: wavevector=  0.0000  0.0000  0.0000  ngfft=  24  24  24
         ecut(hartree)=     10.000   => boxcut(ratio)=   2.21836

 getcut : COMMENT -
  Note that boxcut > 2.2 ; recall that boxcut=Gcut(box)/Gcut(sphere) = 2
  is sufficient for exact treatment of convolution.
  Such a large boxcut is a waste : you could raise ecut
  e.g. ecut=   12.302831 Hartrees makes boxcut=2


--- Pseudopotential description ------------------------------------------------
- pspini: atom type   1  psp file is /home/gonze/ABINIT/ABINITv7.9.3/trunk/7.9.3-private/tests/Psps_for_tests/13al.981214.fhi
- pspatm: opening atomic psp file    /home/gonze/ABINIT/ABINITv7.9.3/trunk/7.9.3-private/tests/Psps_for_tests/13al.981214.fhi
- Aluminum, fhi98PP : Hamann-type, LDA CA PerdewWang, l=2 local
- 13.00000   3.00000    981214                znucl, zion, pspdat
    6    7    2    2       493   0.00000      pspcod,pspxc,lmax,lloc,mmax,r2well
  No XC core correction.
  1.024700          amesh (Hamman grid)
 pspatm: epsatm=    1.36305739
         --- l  ekb(1:nproj) -->
             0    1.768744
             1    0.900554
 pspatm: atomic psp has been read  and splines computed

   6.54267545E+01                                ecore*ucvol(ha*bohr**3)
--------------------------------------------------------------------------------

P newkpt: treating      8 bands with npw=     675 for ikpt=   1 by node    0

_setup2: Arith. and geom. avg. npw (full set) are     675.000     675.000

================================================================================

     iter   Etot(hartree)      deltaE(h)  residm     vres2
 ETOT  1  -8.3874763553091    -8.387E+00 7.779E-04 1.591E+00
 ETOT  2  -8.3892360368288    -1.760E-03 1.503E-05 4.332E-02
 ETOT  3  -8.3892597470764    -2.371E-05 3.143E-05 4.691E-03
 ETOT  4  -8.3892603787112    -6.316E-07 8.284E-08 1.328E-04
 ETOT  5  -8.3892604132517    -3.454E-08 2.596E-07 2.352E-05

 At SCF step    5, etot is converged : 
  for the second time, diff in etot=  3.454E-08 < toldfe=  1.000E-06

 Cartesian components of stress tensor (hartree/bohr^3)
  sigma(1 1)=  3.35402517E-05  sigma(3 2)=  0.00000000E+00
  sigma(2 2)=  3.35402517E-05  sigma(3 1)=  0.00000000E+00
  sigma(3 3)=  3.35402517E-05  sigma(2 1)=  0.00000000E+00

================================================================================

 ----iterations are completed or convergence reached----

 Mean square residual over all n,k,spin=   3.2532E-08; max=  2.5963E-07
   0.2500  0.2500  0.2500    1  2.59629E-07 kpt; spin; max resid(k); each band:
  8.08E-11 9.31E-11 9.31E-11 9.31E-11 8.90E-11 8.90E-11 8.90E-11 2.60E-07
 reduced coordinates (array xred) for    4 atoms
       0.000000000000      0.000000000000      0.000000000000
       0.500000000000      0.500000000000      0.000000000000
       0.000000000000      0.500000000000      0.500000000000
       0.500000000000      0.000000000000      0.500000000000
 rms dE/dt=  0.0000E+00; max dE/dt=  0.0000E+00; dE/dt below (all hartree)
    1       0.000000000000      0.000000000000      0.000000000000
    2       0.000000000000      0.000000000000      0.000000000000
    3       0.000000000000      0.000000000000      0.000000000000
    4       0.000000000000      0.000000000000      0.000000000000

 cartesian coordinates (angstrom) at end:
    1      0.00000000000000     0.00000000000000     0.00000000000000
    2      2.01087339264200     2.01087339264200     0.00000000000000
    3      0.00000000000000     2.01087339264200     2.01087339264200
    4      2.01087339264200     0.00000000000000     2.01087339264200

 cartesian forces (hartree/bohr) at end:
    1     -0.00000000000000    -0.00000000000000    -0.00000000000000
    2     -0.00000000000000    -0.00000000000000    -0.00000000000000
    3     -0.00000000000000    -0.00000000000000    -0.00000000000000
    4     -0.00000000000000    -0.00000000000000    -0.00000000000000
 frms,max,avg= 0.0000000E+00 0.0000000E+00   0.000E+00  0.000E+00  0.000E+00 h/b

 cartesian forces (eV/Angstrom) at end:
    1     -0.00000000000000    -0.00000000000000    -0.00000000000000
    2     -0.00000000000000    -0.00000000000000    -0.00000000000000
    3     -0.00000000000000    -0.00000000000000    -0.00000000000000
    4     -0.00000000000000    -0.00000000000000    -0.00000000000000
 frms,max,avg= 0.0000000E+00 0.0000000E+00   0.000E+00  0.000E+00  0.000E+00 e/A
 length scales=  7.600000000000  7.600000000000  7.600000000000 bohr
              =  4.021746785284  4.021746785284  4.021746785284 angstroms
 prteigrs : about to open file t59o_DS1_EIG
 Fermi (or HOMO) energy (hartree) =   0.25964   Average Vxc (hartree)=  -0.34573
 Eigenvalues (hartree) for nkpt=   1  k points:
 kpt#   1, nband=  8, wtk=  1.00000, kpt=  0.2500  0.2500  0.2500 (reduced coord)
  -0.07310   0.08989   0.08989   0.08989   0.24836   0.24836   0.24836   0.40306
      occupation numbers for kpt#   1
   2.00000   2.00000   2.00000   2.00000   1.33333   1.33333   1.33333   0.00001
 Total charge density [el/Bohr^3]
,     Maximum=    3.2796E-02  at reduced coord.    0.8333    0.8750    0.8750
,Next maximum=    3.2796E-02  at reduced coord.    0.1667    0.8750    0.8750
,     Minimum=    2.6308E-03  at reduced coord.    0.0000    0.0000    0.0000
,Next minimum=    2.6308E-03  at reduced coord.    0.5000    0.5000    0.0000
,  Integrated=    1.2000E+01

--------------------------------------------------------------------------------
 Components of total free energy (in Hartree) :

    Kinetic energy  =  3.45539534000158E+00
    Hartree energy  =  1.50979023562068E-02
    XC energy       = -3.21794388390446E+00
    Ewald energy    = -1.08588838597432E+01
    PspCore energy  =  1.49044035517629E-01
    Loc. psp. energy=  2.94333676545262E-01
    NL   psp  energy=  1.79920291803544E+00
    >>>>> Internal E= -8.36375387119159E+00

    -kT*entropy     = -2.55065420601249E-02
    >>>>>>>>> Etotal= -8.38926041325171E+00

 Other information on the energy :
    Total energy(eV)= -2.28283385406495E+02 ; Band energy (Ha)=   1.3865834771E+00
--------------------------------------------------------------------------------

 Cartesian components of stress tensor (hartree/bohr^3)
  sigma(1 1)=  3.35402517E-05  sigma(3 2)=  0.00000000E+00
  sigma(2 2)=  3.35402517E-05  sigma(3 1)=  0.00000000E+00
  sigma(3 3)=  3.35402517E-05  sigma(2 1)=  0.00000000E+00

-Cartesian components of stress tensor (GPa)         [Pressure= -9.8679E-01 GPa]
- sigma(1 1)=  9.86788108E-01  sigma(3 2)=  0.00000000E+00
- sigma(2 2)=  9.86788108E-01  sigma(3 1)=  0.00000000E+00
- sigma(3 3)=  9.86788108E-01  sigma(2 1)=  0.00000000E+00

================================================================================
== DATASET  2 ==================================================================
-   nproc =    1

 Exchange-correlation functional for the present dataset will be:
  LDA: new Teter (4/93) with spin-polarized option - ixc=1
 Citation for XC functional:
  S. Goedecker, M. Teter, J. Huetter, PRB 54, 1703 (1996)

 Real(R)+Recip(G) space primitive vectors, cartesian coordinates (Bohr,Bohr^-1):
 R(1)=  0.0000000  3.8000000  3.8000000  G(1)= -0.1315789  0.1315789  0.1315789
 R(2)=  3.8000000  0.0000000  3.8000000  G(2)=  0.1315789 -0.1315789  0.1315789
 R(3)=  3.8000000  3.8000000  0.0000000  G(3)=  0.1315789  0.1315789 -0.1315789
 Unit cell volume ucvol=  1.0974400E+02 bohr^3
 Angles (23,13,12)=  6.00000000E+01  6.00000000E+01  6.00000000E+01 degrees

 getcut: wavevector=  0.0000  0.0000  0.0000  ngfft=  16  16  16
         ecut(hartree)=     10.000   => boxcut(ratio)=   2.09149
   4.08917216E+00                                ecore*ucvol(ha*bohr**3)
--------------------------------------------------------------------------------

P newkpt: treating      3 bands with npw=     171 for ikpt=   1 by node    0
P newkpt: treating      3 bands with npw=     162 for ikpt=   2 by node    0

_setup2: Arith. and geom. avg. npw (full set) are     168.750     168.704

================================================================================

     iter   Etot(hartree)      deltaE(h)  residm     vres2
 ETOT  1  -2.0970936850120    -2.097E+00 7.966E-04 4.704E-01
 ETOT  2  -2.0973089214653    -2.152E-04 1.250E-09 1.299E-02
 ETOT  3  -2.0973149303837    -6.009E-06 1.054E-07 1.406E-03
 ETOT  4  -2.0973150997918    -1.694E-07 1.472E-09 4.238E-05
 ETOT  5  -2.0973151095665    -9.775E-09 2.241E-10 6.619E-06

 At SCF step    5, etot is converged : 
  for the second time, diff in etot=  9.775E-09 < toldfe=  1.000E-06

 Cartesian components of stress tensor (hartree/bohr^3)
  sigma(1 1)=  3.35309842E-05  sigma(3 2)=  0.00000000E+00
  sigma(2 2)=  3.35309842E-05  sigma(3 1)=  0.00000000E+00
  sigma(3 3)=  3.35309842E-05  sigma(2 1)=  0.00000000E+00

================================================================================

 ----iterations are completed or convergence reached----

 Mean square residual over all n,k,spin=   1.2001E-10; max=  2.2410E-10
  -0.2500  0.5000  0.0000    1  2.24096E-10 kpt; spin; max resid(k); each band:
  1.32E-10 2.24E-10 1.71E-10
  -0.2500  0.0000  0.0000    1  9.47537E-11 kpt; spin; max resid(k); each band:
  9.48E-11 8.83E-11 9.37E-12
 reduced coordinates (array xred) for    1 atoms
       0.000000000000      0.000000000000      0.000000000000
 rms dE/dt=  0.0000E+00; max dE/dt=  0.0000E+00; dE/dt below (all hartree)
    1       0.000000000000      0.000000000000      0.000000000000

 cartesian coordinates (angstrom) at end:
    1      0.00000000000000     0.00000000000000     0.00000000000000

 cartesian forces (hartree/bohr) at end:
    1     -0.00000000000000    -0.00000000000000    -0.00000000000000
 frms,max,avg= 0.0000000E+00 0.0000000E+00   0.000E+00  0.000E+00  0.000E+00 h/b

 cartesian forces (eV/Angstrom) at end:
    1     -0.00000000000000    -0.00000000000000    -0.00000000000000
 frms,max,avg= 0.0000000E+00 0.0000000E+00   0.000E+00  0.000E+00  0.000E+00 e/A
 length scales=  1.000000000000  1.000000000000  1.000000000000 bohr
              =  0.529177208590  0.529177208590  0.529177208590 angstroms
 prteigrs : about to open file t59o_DS2_EIG
 Fermi (or HOMO) energy (hartree) =   0.25964   Average Vxc (hartree)=  -0.34573
 Eigenvalues (hartree) for nkpt=   2  k points:
 kpt#   1, nband=  3, wtk=  0.75000, kpt= -0.2500  0.5000  0.0000 (reduced coord)
   0.08989   0.24836   0.41093
      occupation numbers for kpt#   1
   2.00000   1.33333   0.00000
 kpt#   2, nband=  3, wtk=  0.25000, kpt= -0.2500  0.0000  0.0000 (reduced coord)
  -0.07310   0.40306   0.67696
      occupation numbers for kpt#   2
   2.00000   0.00001   0.00000
 Total charge density [el/Bohr^3]
,     Maximum=    3.2760E-02  at reduced coord.    0.8125    0.8750    0.8750
,Next maximum=    3.2760E-02  at reduced coord.    0.4375    0.8750    0.8750
,     Minimum=    2.6308E-03  at reduced coord.    0.0000    0.0000    0.0000
,Next minimum=    4.3725E-03  at reduced coord.    0.0625    0.0000    0.0000
,  Integrated=    3.0000E+00

--------------------------------------------------------------------------------
 Components of total free energy (in Hartree) :

    Kinetic energy  =  8.63848937452376E-01
    Hartree energy  =  3.77449744922878E-03
    XC energy       = -8.04485981874376E-01
    Ewald energy    = -2.71472096493581E+00
    PspCore energy  =  3.72610088794072E-02
    Loc. psp. energy=  7.35820072962840E-02
    NL   psp  energy=  4.49802207089020E-01
    >>>>> Internal E= -2.09093828864387E+00

    -kT*entropy     = -6.37682092260262E-03
    >>>>>>>>> Etotal= -2.09731510956647E+00

 Other information on the energy :
    Total energy(eV)= -5.70708465217913E+01 ; Band energy (Ha)=   3.4664623533E-01
--------------------------------------------------------------------------------

 Cartesian components of stress tensor (hartree/bohr^3)
  sigma(1 1)=  3.35309842E-05  sigma(3 2)=  0.00000000E+00
  sigma(2 2)=  3.35309842E-05  sigma(3 1)=  0.00000000E+00
  sigma(3 3)=  3.35309842E-05  sigma(2 1)=  0.00000000E+00

-Cartesian components of stress tensor (GPa)         [Pressure= -9.8652E-01 GPa]
- sigma(1 1)=  9.86515447E-01  sigma(3 2)=  0.00000000E+00
- sigma(2 2)=  9.86515447E-01  sigma(3 1)=  0.00000000E+00
- sigma(3 3)=  9.86515447E-01  sigma(2 1)=  0.00000000E+00

== END DATASET(S) ==============================================================
================================================================================
  
 -outvars: echo values of variables after computation  --------
            acell1     7.6000000000E+00  7.6000000000E+00  7.6000000000E+00 Bohr
            acell2     1.0000000000E+00  1.0000000000E+00  1.0000000000E+00 Bohr
              amu      2.69815390E+01
             ecut      1.00000000E+01 Hartree
           etotal1    -8.3892604133E+00
           etotal2    -2.0973151096E+00
            fcart1    -0.0000000000E+00 -0.0000000000E+00 -0.0000000000E+00
                      -0.0000000000E+00 -0.0000000000E+00 -0.0000000000E+00
                      -0.0000000000E+00 -0.0000000000E+00 -0.0000000000E+00
                      -0.0000000000E+00 -0.0000000000E+00 -0.0000000000E+00
            fcart2    -0.0000000000E+00 -0.0000000000E+00 -0.0000000000E+00
-          fftalg         112
            intxc           1
             iscf           5
           jdtset        1    2
              kpt1     2.50000000E-01  2.50000000E-01  2.50000000E-01
              kpt2    -2.50000000E-01  5.00000000E-01  0.00000000E+00
                      -2.50000000E-01  0.00000000E+00  0.00000000E+00
         kptrlatt1       2    0    0      0    2    0      0    0    2
         kptrlatt2       2   -2    2     -2    2    2     -2   -2    2
          kptrlen      1.52000000E+01
P           mkmem1          1
P           mkmem2          2
            natom1          4
            natom2          1
            nband1          8
            nband2          3
           ndtset           2
            ngfft1         24      24      24
            ngfft2         16      16      16
             nkpt1          1
             nkpt2          2
            nstep           8
             nsym1        192
             nsym2         48
           ntypat           1
              occ1     2.000000  2.000000  2.000000  2.000000  1.333331  1.333331
                       1.333331  0.000005
              occ2     2.000000  1.333330  0.000001
                       2.000000  0.000005  0.000000
           occopt           4
            rprim1     1.0000000000E+00  0.0000000000E+00  0.0000000000E+00
                       0.0000000000E+00  1.0000000000E+00  0.0000000000E+00
                       0.0000000000E+00  0.0000000000E+00  1.0000000000E+00
            rprim2     0.0000000000E+00  3.8000000000E+00  3.8000000000E+00
                       3.8000000000E+00  0.0000000000E+00  3.8000000000E+00
                       3.8000000000E+00  3.8000000000E+00  0.0000000000E+00
           shiftk      5.00000000E-01  5.00000000E-01  5.00000000E-01
          spgroup1          0
          spgroup2        225
           strten1     3.3540251724E-05  3.3540251724E-05  3.3540251724E-05
                       0.0000000000E+00  0.0000000000E+00  0.0000000000E+00
           strten2     3.3530984157E-05  3.3530984157E-05  3.3530984157E-05
                       0.0000000000E+00  0.0000000000E+00  0.0000000000E+00
           symafm1       1    1    1    1    1    1    1    1    1    1
                         1    1    1    1    1    1    1    1    1    1
                         1    1    1    1    1    1    1    1    1    1
                         1    1    1    1    1    1    1    1    1    1
                         1    1    1    1    1    1    1    1    1    1
                         1    1    1    1    1    1    1    1    1    1
                         1    1    1    1    1    1    1    1    1    1
                         1    1    1    1    1    1    1    1    1    1
                         1    1    1    1    1    1    1    1    1    1
                         1    1    1    1    1    1    1    1    1    1
                         1    1    1    1    1    1    1    1    1    1
                         1    1    1    1    1    1    1    1    1    1
                         1    1    1    1    1    1    1    1    1    1
                         1    1    1    1    1    1    1    1    1    1
                         1    1    1    1    1    1    1    1    1    1
                         1    1    1    1    1    1    1    1    1    1
                         1    1    1    1    1    1    1    1    1    1
                         1    1    1    1    1    1    1    1    1    1
                         1    1    1    1    1    1    1    1    1    1
                         1    1
           symafm2       1    1    1    1    1    1    1    1    1    1
                         1    1    1    1    1    1    1    1    1    1
                         1    1    1    1    1    1    1    1    1    1
                         1    1    1    1    1    1    1    1    1    1
                         1    1    1    1    1    1    1    1
           symrel1     1  0  0   0  1  0   0  0  1       0  1  0   0  0  1   1  0  0
                      -1  0  0   0 -1  0   0  0  1      -1  0  0   0  1  0   0  0 -1
                       0  1  0   1  0  0   0  0 -1       0  0  1   1  0  0   0  1  0
                       0 -1  0   0  0 -1   1  0  0       0 -1  0   0  0  1  -1  0  0
                       0  0  1   0  1  0  -1  0  0       1  0  0   0 -1  0   0  0 -1
                       0 -1  0  -1  0  0   0  0 -1       0  1  0   0  0 -1  -1  0  0
                       0  1  0  -1  0  0   0  0  1       1  0  0   0  0 -1   0  1  0
                       0 -1  0   1  0  0   0  0  1       0  0 -1  -1  0  0   0  1  0
                       0  0 -1   1  0  0   0 -1  0       1  0  0   0  0  1   0 -1  0
                       0  0 -1   0 -1  0  -1  0  0       0  0  1  -1  0  0   0 -1  0
                       0  0  1   0 -1  0   1  0  0       0  0 -1   0  1  0   1  0  0
                      -1  0  0   0  0 -1   0 -1  0      -1  0  0   0  0  1   0  1  0
                      -1  0  0   0 -1  0   0  0 -1       0 -1  0   0  0 -1  -1  0  0
                       1  0  0   0  1  0   0  0 -1       1  0  0   0 -1  0   0  0  1
                       0 -1  0  -1  0  0   0  0  1       0  0 -1  -1  0  0   0 -1  0
                       0  1  0   0  0  1  -1  0  0       0  1  0   0  0 -1   1  0  0
                       0  0 -1   0 -1  0   1  0  0      -1  0  0   0  1  0   0  0  1
                       0  1  0   1  0  0   0  0  1       0 -1  0   0  0  1   1  0  0
                       0 -1  0   1  0  0   0  0 -1      -1  0  0   0  0  1   0 -1  0
                       0  1  0  -1  0  0   0  0 -1       0  0  1   1  0  0   0 -1  0
                       0  0  1  -1  0  0   0  1  0      -1  0  0   0  0 -1   0  1  0
                       0  0  1   0  1  0   1  0  0       0  0 -1   1  0  0   0  1  0
                       0  0 -1   0  1  0  -1  0  0       0  0  1   0 -1  0  -1  0  0
                       1  0  0   0  0  1   0  1  0       1  0  0   0  0 -1   0 -1  0
                       1  0  0   0  1  0   0  0  1       0  1  0   0  0  1   1  0  0
                      -1  0  0   0 -1  0   0  0  1      -1  0  0   0  1  0   0  0 -1
                       0  1  0   1  0  0   0  0 -1       0  0  1   1  0  0   0  1  0
                       0 -1  0   0  0 -1   1  0  0       0 -1  0   0  0  1  -1  0  0
                       0  0  1   0  1  0  -1  0  0       1  0  0   0 -1  0   0  0 -1
                       0 -1  0  -1  0  0   0  0 -1       0  1  0   0  0 -1  -1  0  0
                       0  1  0  -1  0  0   0  0  1       1  0  0   0  0 -1   0  1  0
                       0 -1  0   1  0  0   0  0  1       0  0 -1  -1  0  0   0  1  0
                       0  0 -1   1  0  0   0 -1  0       1  0  0   0  0  1   0 -1  0
                       0  0 -1   0 -1  0  -1  0  0       0  0  1  -1  0  0   0 -1  0
                       0  0  1   0 -1  0   1  0  0       0  0 -1   0  1  0   1  0  0
                      -1  0  0   0  0 -1   0 -1  0      -1  0  0   0  0  1   0  1  0
                      -1  0  0   0 -1  0   0  0 -1       0 -1  0   0  0 -1  -1  0  0
                       1  0  0   0  1  0   0  0 -1       1  0  0   0 -1  0   0  0  1
                       0 -1  0  -1  0  0   0  0  1       0  0 -1  -1  0  0   0 -1  0
                       0  1  0   0  0  1  -1  0  0       0  1  0   0  0 -1   1  0  0
                       0  0 -1   0 -1  0   1  0  0      -1  0  0   0  1  0   0  0  1
                       0  1  0   1  0  0   0  0  1       0 -1  0   0  0  1   1  0  0
                       0 -1  0   1  0  0   0  0 -1      -1  0  0   0  0  1   0 -1  0
                       0  1  0  -1  0  0   0  0 -1       0  0  1   1  0  0   0 -1  0
                       0  0  1  -1  0  0   0  1  0      -1  0  0   0  0 -1   0  1  0
                       0  0  1   0  1  0   1  0  0       0  0 -1   1  0  0   0  1  0
                       0  0 -1   0  1  0  -1  0  0       0  0  1   0 -1  0  -1  0  0
                       1  0  0   0  0  1   0  1  0       1  0  0   0  0 -1   0 -1  0
                       1  0  0   0  1  0   0  0  1       0  1  0   0  0  1   1  0  0
                      -1  0  0   0 -1  0   0  0  1      -1  0  0   0  1  0   0  0 -1
                       0  1  0   1  0  0   0  0 -1       0  0  1   1  0  0   0  1  0
                       0 -1  0   0  0 -1   1  0  0       0 -1  0   0  0  1  -1  0  0
                       0  0  1   0  1  0  -1  0  0       1  0  0   0 -1  0   0  0 -1
                       0 -1  0  -1  0  0   0  0 -1       0  1  0   0  0 -1  -1  0  0
                       0  1  0  -1  0  0   0  0  1       1  0  0   0  0 -1   0  1  0
                       0 -1  0   1  0  0   0  0  1       0  0 -1  -1  0  0   0  1  0
                       0  0 -1   1  0  0   0 -1  0       1  0  0   0  0  1   0 -1  0
                       0  0 -1   0 -1  0  -1  0  0       0  0  1  -1  0  0   0 -1  0
                       0  0  1   0 -1  0   1  0  0       0  0 -1   0  1  0   1  0  0
                      -1  0  0   0  0 -1   0 -1  0      -1  0  0   0  0  1   0  1  0
                      -1  0  0   0 -1  0   0  0 -1       0 -1  0   0  0 -1  -1  0  0
                       1  0  0   0  1  0   0  0 -1       1  0  0   0 -1  0   0  0  1
                       0 -1  0  -1  0  0   0  0  1       0  0 -1  -1  0  0   0 -1  0
                       0  1  0   0  0  1  -1  0  0       0  1  0   0  0 -1   1  0  0
                       0  0 -1   0 -1  0   1  0  0      -1  0  0   0  1  0   0  0  1
                       0  1  0   1  0  0   0  0  1       0 -1  0   0  0  1   1  0  0
                       0 -1  0   1  0  0   0  0 -1      -1  0  0   0  0  1   0 -1  0
                       0  1  0  -1  0  0   0  0 -1       0  0  1   1  0  0   0 -1  0
                       0  0  1  -1  0  0   0  1  0      -1  0  0   0  0 -1   0  1  0
                       0  0  1   0  1  0   1  0  0       0  0 -1   1  0  0   0  1  0
                       0  0 -1   0  1  0  -1  0  0       0  0  1   0 -1  0  -1  0  0
                       1  0  0   0  0  1   0  1  0       1  0  0   0  0 -1   0 -1  0
                       1  0  0   0  1  0   0  0  1       0  1  0   0  0  1   1  0  0
                      -1  0  0   0 -1  0   0  0  1      -1  0  0   0  1  0   0  0 -1
                       0  1  0   1  0  0   0  0 -1       0  0  1   1  0  0   0  1  0
                       0 -1  0   0  0 -1   1  0  0       0 -1  0   0  0  1  -1  0  0
                       0  0  1   0  1  0  -1  0  0       1  0  0   0 -1  0   0  0 -1
                       0 -1  0  -1  0  0   0  0 -1       0  1  0   0  0 -1  -1  0  0
                       0  1  0  -1  0  0   0  0  1       1  0  0   0  0 -1   0  1  0
                       0 -1  0   1  0  0   0  0  1       0  0 -1  -1  0  0   0  1  0
                       0  0 -1   1  0  0   0 -1  0       1  0  0   0  0  1   0 -1  0
                       0  0 -1   0 -1  0  -1  0  0       0  0  1  -1  0  0   0 -1  0
                       0  0  1   0 -1  0   1  0  0       0  0 -1   0  1  0   1  0  0
                      -1  0  0   0  0 -1   0 -1  0      -1  0  0   0  0  1   0  1  0
                      -1  0  0   0 -1  0   0  0 -1       0 -1  0   0  0 -1  -1  0  0
                       1  0  0   0  1  0   0  0 -1       1  0  0   0 -1  0   0  0  1
                       0 -1  0  -1  0  0   0  0  1       0  0 -1  -1  0  0   0 -1  0
                       0  1  0   0  0  1  -1  0  0       0  1  0   0  0 -1   1  0  0
                       0  0 -1   0 -1  0   1  0  0      -1  0  0   0  1  0   0  0  1
                       0  1  0   1  0  0   0  0  1       0 -1  0   0  0  1   1  0  0
                       0 -1  0   1  0  0   0  0 -1      -1  0  0   0  0  1   0 -1  0
                       0  1  0  -1  0  0   0  0 -1       0  0  1   1  0  0   0 -1  0
                       0  0  1  -1  0  0   0  1  0      -1  0  0   0  0 -1   0  1  0
                       0  0  1   0  1  0   1  0  0       0  0 -1   1  0  0   0  1  0
                       0  0 -1   0  1  0  -1  0  0       0  0  1   0 -1  0  -1  0  0
                       1  0  0   0  0  1   0  1  0       1  0  0   0  0 -1   0 -1  0
           symrel2     1  0  0   0  1  0   0  0  1       0  1  0   0  0  1   1  0  0
                       0  1 -1   1  0 -1   0  0 -1       0 -1  1   0 -1  0   1 -1  0
                      -1  0  1   0 -1  1   0  0  1       0  0  1   1  0  0   0  1  0
                      -1  0  1  -1  1  0  -1  0  0       1  0 -1   0  0 -1   0  1 -1
                       1 -1  0   1  0 -1   1  0  0      -1  0  0  -1  0  1  -1  1  0
                       0 -1  0  -1  0  0   0  0 -1       0 -1  0   1 -1  0   0 -1  1
                       1  0 -1   1  0  0   1 -1  0       0 -1  1   0  0  1  -1  0  1
                       0  1  0   0  1 -1  -1  1  0       1 -1  0   0 -1  1   0 -1  0
                      -1  1  0  -1  0  0  -1  0  1       0  1 -1  -1  1  0   0  1  0
                       0  0 -1   0 -1  0  -1  0  0       0  0 -1   0  1 -1   1  0 -1
                      -1  1  0   0  1  0   0  1 -1       0  0  1  -1  0  1   0 -1  1
                      -1  0  0   0  0 -1   0 -1  0       1  0  0   1 -1  0   1  0 -1
                      -1  0  0   0 -1  0   0  0 -1       0 -1  0   0  0 -1  -1  0  0
                       0 -1  1  -1  0  1   0  0  1       0  1 -1   0  1  0  -1  1  0
                       1  0 -1   0  1 -1   0  0 -1       0  0 -1  -1  0  0   0 -1  0
                       1  0 -1   1 -1  0   1  0  0      -1  0  1   0  0  1   0 -1  1
                      -1  1  0  -1  0  1  -1  0  0       1  0  0   1  0 -1   1 -1  0
                       0  1  0   1  0  0   0  0  1       0  1  0  -1  1  0   0  1 -1
                      -1  0  1  -1  0  0  -1  1  0       0  1 -1   0  0 -1   1  0 -1
                       0 -1  0   0 -1  1   1 -1  0      -1  1  0   0  1 -1   0  1  0
                       1 -1  0   1  0  0   1  0 -1       0 -1  1   1 -1  0   0 -1  0
                       0  0  1   0  1  0   1  0  0       0  0  1   0 -1  1  -1  0  1
                       1 -1  0   0 -1  0   0 -1  1       0  0 -1   1  0 -1   0  1 -1
                       1  0  0   0  0  1   0  1  0      -1  0  0  -1  1  0  -1  0  1
           timopt          -1
            tnons1     0.0000000  0.0000000  0.0000000     0.0000000  0.0000000  0.0000000
                       0.0000000  0.0000000  0.0000000     0.0000000  0.0000000  0.0000000
                       0.0000000  0.0000000  0.0000000     0.0000000  0.0000000  0.0000000
                       0.0000000  0.0000000  0.0000000     0.0000000  0.0000000  0.0000000
                       0.0000000  0.0000000  0.0000000     0.0000000  0.0000000  0.0000000
                       0.0000000  0.0000000  0.0000000     0.0000000  0.0000000  0.0000000
                       0.0000000  0.0000000  0.0000000     0.0000000  0.0000000  0.0000000
                       0.0000000  0.0000000  0.0000000     0.0000000  0.0000000  0.0000000
                       0.0000000  0.0000000  0.0000000     0.0000000  0.0000000  0.0000000
                       0.0000000  0.0000000  0.0000000     0.0000000  0.0000000  0.0000000
                       0.0000000  0.0000000  0.0000000     0.0000000  0.0000000  0.0000000
                       0.0000000  0.0000000  0.0000000     0.0000000  0.0000000  0.0000000
                      -0.0000000 -0.0000000 -0.0000000    -0.0000000 -0.0000000 -0.0000000
                      -0.0000000 -0.0000000 -0.0000000    -0.0000000 -0.0000000 -0.0000000
                      -0.0000000 -0.0000000 -0.0000000    -0.0000000 -0.0000000 -0.0000000
                      -0.0000000 -0.0000000 -0.0000000    -0.0000000 -0.0000000 -0.0000000
                      -0.0000000 -0.0000000 -0.0000000    -0.0000000 -0.0000000 -0.0000000
                      -0.0000000 -0.0000000 -0.0000000    -0.0000000 -0.0000000 -0.0000000
                      -0.0000000 -0.0000000 -0.0000000    -0.0000000 -0.0000000 -0.0000000
                      -0.0000000 -0.0000000 -0.0000000    -0.0000000 -0.0000000 -0.0000000
                      -0.0000000 -0.0000000 -0.0000000    -0.0000000 -0.0000000 -0.0000000
                      -0.0000000 -0.0000000 -0.0000000    -0.0000000 -0.0000000 -0.0000000
                      -0.0000000 -0.0000000 -0.0000000    -0.0000000 -0.0000000 -0.0000000
                      -0.0000000 -0.0000000 -0.0000000    -0.0000000 -0.0000000 -0.0000000
                       0.5000000  0.5000000  0.0000000     0.5000000  0.5000000  0.0000000
                       0.5000000  0.5000000  0.0000000     0.5000000  0.5000000  0.0000000
                       0.5000000  0.5000000  0.0000000     0.5000000  0.5000000  0.0000000
                       0.5000000  0.5000000  0.0000000     0.5000000  0.5000000  0.0000000
                       0.5000000  0.5000000  0.0000000     0.5000000  0.5000000  0.0000000
                       0.5000000  0.5000000  0.0000000     0.5000000  0.5000000  0.0000000
                       0.5000000  0.5000000  0.0000000     0.5000000  0.5000000  0.0000000
                       0.5000000  0.5000000  0.0000000     0.5000000  0.5000000  0.0000000
                       0.5000000  0.5000000  0.0000000     0.5000000  0.5000000  0.0000000
                       0.5000000  0.5000000  0.0000000     0.5000000  0.5000000  0.0000000
                       0.5000000  0.5000000  0.0000000     0.5000000  0.5000000  0.0000000
                       0.5000000  0.5000000  0.0000000     0.5000000  0.5000000  0.0000000
                       0.5000000  0.5000000 -0.0000000     0.5000000  0.5000000 -0.0000000
                       0.5000000  0.5000000 -0.0000000     0.5000000  0.5000000 -0.0000000
                       0.5000000  0.5000000 -0.0000000     0.5000000  0.5000000 -0.0000000
                       0.5000000  0.5000000 -0.0000000     0.5000000  0.5000000 -0.0000000
                       0.5000000  0.5000000 -0.0000000     0.5000000  0.5000000 -0.0000000
                       0.5000000  0.5000000 -0.0000000     0.5000000  0.5000000 -0.0000000
                       0.5000000  0.5000000 -0.0000000     0.5000000  0.5000000 -0.0000000
                       0.5000000  0.5000000 -0.0000000     0.5000000  0.5000000 -0.0000000
                       0.5000000  0.5000000 -0.0000000     0.5000000  0.5000000 -0.0000000
                       0.5000000  0.5000000 -0.0000000     0.5000000  0.5000000 -0.0000000
                       0.5000000  0.5000000 -0.0000000     0.5000000  0.5000000 -0.0000000
                       0.5000000  0.5000000 -0.0000000     0.5000000  0.5000000 -0.0000000
                       0.0000000  0.5000000  0.5000000     0.0000000  0.5000000  0.5000000
                       0.0000000  0.5000000  0.5000000     0.0000000  0.5000000  0.5000000
                       0.0000000  0.5000000  0.5000000     0.0000000  0.5000000  0.5000000
                       0.0000000  0.5000000  0.5000000     0.0000000  0.5000000  0.5000000
                       0.0000000  0.5000000  0.5000000     0.0000000  0.5000000  0.5000000
                       0.0000000  0.5000000  0.5000000     0.0000000  0.5000000  0.5000000
                       0.0000000  0.5000000  0.5000000     0.0000000  0.5000000  0.5000000
                       0.0000000  0.5000000  0.5000000     0.0000000  0.5000000  0.5000000
                       0.0000000  0.5000000  0.5000000     0.0000000  0.5000000  0.5000000
                       0.0000000  0.5000000  0.5000000     0.0000000  0.5000000  0.5000000
                       0.0000000  0.5000000  0.5000000     0.0000000  0.5000000  0.5000000
                       0.0000000  0.5000000  0.5000000     0.0000000  0.5000000  0.5000000
                      -0.0000000  0.5000000  0.5000000    -0.0000000  0.5000000  0.5000000
                      -0.0000000  0.5000000  0.5000000    -0.0000000  0.5000000  0.5000000
                      -0.0000000  0.5000000  0.5000000    -0.0000000  0.5000000  0.5000000
                      -0.0000000  0.5000000  0.5000000    -0.0000000  0.5000000  0.5000000
                      -0.0000000  0.5000000  0.5000000    -0.0000000  0.5000000  0.5000000
                      -0.0000000  0.5000000  0.5000000    -0.0000000  0.5000000  0.5000000
                      -0.0000000  0.5000000  0.5000000    -0.0000000  0.5000000  0.5000000
                      -0.0000000  0.5000000  0.5000000    -0.0000000  0.5000000  0.5000000
                      -0.0000000  0.5000000  0.5000000    -0.0000000  0.5000000  0.5000000
                      -0.0000000  0.5000000  0.5000000    -0.0000000  0.5000000  0.5000000
                      -0.0000000  0.5000000  0.5000000    -0.0000000  0.5000000  0.5000000
                      -0.0000000  0.5000000  0.5000000    -0.0000000  0.5000000  0.5000000
                       0.5000000  0.0000000  0.5000000     0.5000000  0.0000000  0.5000000
                       0.5000000  0.0000000  0.5000000     0.5000000  0.0000000  0.5000000
                       0.5000000  0.0000000  0.5000000     0.5000000  0.0000000  0.5000000
                       0.5000000  0.0000000  0.5000000     0.5000000  0.0000000  0.5000000
                       0.5000000  0.0000000  0.5000000     0.5000000  0.0000000  0.5000000
                       0.5000000  0.0000000  0.5000000     0.5000000  0.0000000  0.5000000
                       0.5000000  0.0000000  0.5000000     0.5000000  0.0000000  0.5000000
                       0.5000000  0.0000000  0.5000000     0.5000000  0.0000000  0.5000000
                       0.5000000  0.0000000  0.5000000     0.5000000  0.0000000  0.5000000
                       0.5000000  0.0000000  0.5000000     0.5000000  0.0000000  0.5000000
                       0.5000000  0.0000000  0.5000000     0.5000000  0.0000000  0.5000000
                       0.5000000  0.0000000  0.5000000     0.5000000  0.0000000  0.5000000
                       0.5000000 -0.0000000  0.5000000     0.5000000 -0.0000000  0.5000000
                       0.5000000 -0.0000000  0.5000000     0.5000000 -0.0000000  0.5000000
                       0.5000000 -0.0000000  0.5000000     0.5000000 -0.0000000  0.5000000
                       0.5000000 -0.0000000  0.5000000     0.5000000 -0.0000000  0.5000000
                       0.5000000 -0.0000000  0.5000000     0.5000000 -0.0000000  0.5000000
                       0.5000000 -0.0000000  0.5000000     0.5000000 -0.0000000  0.5000000
                       0.5000000 -0.0000000  0.5000000     0.5000000 -0.0000000  0.5000000
                       0.5000000 -0.0000000  0.5000000     0.5000000 -0.0000000  0.5000000
                       0.5000000 -0.0000000  0.5000000     0.5000000 -0.0000000  0.5000000
                       0.5000000 -0.0000000  0.5000000     0.5000000 -0.0000000  0.5000000
                       0.5000000 -0.0000000  0.5000000     0.5000000 -0.0000000  0.5000000
                       0.5000000 -0.0000000  0.5000000     0.5000000 -0.0000000  0.5000000
            tnons2     0.0000000  0.0000000  0.0000000     0.0000000  0.0000000  0.0000000
                       0.0000000  0.0000000  0.0000000     0.0000000  0.0000000  0.0000000
                       0.0000000  0.0000000  0.0000000     0.0000000  0.0000000  0.0000000
                       0.0000000  0.0000000  0.0000000     0.0000000  0.0000000  0.0000000
                       0.0000000  0.0000000  0.0000000     0.0000000  0.0000000  0.0000000
                       0.0000000  0.0000000  0.0000000     0.0000000  0.0000000  0.0000000
                       0.0000000  0.0000000  0.0000000     0.0000000  0.0000000  0.0000000
                       0.0000000  0.0000000  0.0000000     0.0000000  0.0000000  0.0000000
                       0.0000000  0.0000000  0.0000000     0.0000000  0.0000000  0.0000000
                       0.0000000  0.0000000  0.0000000     0.0000000  0.0000000  0.0000000
                       0.0000000  0.0000000  0.0000000     0.0000000  0.0000000  0.0000000
                       0.0000000  0.0000000  0.0000000     0.0000000  0.0000000  0.0000000
                       0.0000000  0.0000000  0.0000000     0.0000000  0.0000000  0.0000000
                       0.0000000  0.0000000  0.0000000     0.0000000  0.0000000  0.0000000
                       0.0000000  0.0000000  0.0000000     0.0000000  0.0000000  0.0000000
                       0.0000000  0.0000000  0.0000000     0.0000000  0.0000000  0.0000000
                       0.0000000  0.0000000  0.0000000     0.0000000  0.0000000  0.0000000
                       0.0000000  0.0000000  0.0000000     0.0000000  0.0000000  0.0000000
                       0.0000000  0.0000000  0.0000000     0.0000000  0.0000000  0.0000000
                       0.0000000  0.0000000  0.0000000     0.0000000  0.0000000  0.0000000
                       0.0000000  0.0000000  0.0000000     0.0000000  0.0000000  0.0000000
                       0.0000000  0.0000000  0.0000000     0.0000000  0.0000000  0.0000000
                       0.0000000  0.0000000  0.0000000     0.0000000  0.0000000  0.0000000
                       0.0000000  0.0000000  0.0000000     0.0000000  0.0000000  0.0000000
           toldfe      1.00000000E-06 Hartree
            typat1     1  1  1  1
            typat2     1
              wtk1       1.00000
              wtk2       0.75000    0.25000
           xangst1     0.0000000000E+00  0.0000000000E+00  0.0000000000E+00
                       2.0108733926E+00  2.0108733926E+00  0.0000000000E+00
                       0.0000000000E+00  2.0108733926E+00  2.0108733926E+00
                       2.0108733926E+00  0.0000000000E+00  2.0108733926E+00
           xangst2     0.0000000000E+00  0.0000000000E+00  0.0000000000E+00
            xcart1     0.0000000000E+00  0.0000000000E+00  0.0000000000E+00
                       3.8000000000E+00  3.8000000000E+00  0.0000000000E+00
                       0.0000000000E+00  3.8000000000E+00  3.8000000000E+00
                       3.8000000000E+00  0.0000000000E+00  3.8000000000E+00
            xcart2     0.0000000000E+00  0.0000000000E+00  0.0000000000E+00
             xred1     0.0000000000E+00  0.0000000000E+00  0.0000000000E+00
                       5.0000000000E-01  5.0000000000E-01  0.0000000000E+00
                       0.0000000000E+00  5.0000000000E-01  5.0000000000E-01
                       5.0000000000E-01  0.0000000000E+00  5.0000000000E-01
             xred2     0.0000000000E+00  0.0000000000E+00  0.0000000000E+00
            znucl       13.00000

================================================================================

 Test the timer : 
  a combined call timab(*,1,tsec) + timab(*,2,tsec) is 
- CPU time =    6.9883E-07 sec,    Wall time =    7.0087E-07 sec

- Total cpu        time (s,m,h):          1.0        0.02      0.000
- Total wall clock time (s,m,h):          1.0        0.02      0.000
-
- For major independent code sections, cpu and wall times (sec),
-  as well as % of the time and number of calls for node 0-
-<BEGIN_TIMER mpi_nprocs = 1, omp_nthreads = 1, mpi_rank = 0>
- cpu_time =            1.0, wall_time =            1.0
-
- routine                        cpu     %       wall     %      number of calls  Gflops 
-                                                                  (-1=no count)
- pspini                         0.184  19.1      0.184  19.0              2      -1.00    
- invars2                        0.155  16.1      0.156  16.2              2      -1.00    
- timing timab                   0.136  14.1      0.136  14.1             14      -1.00    
- fourwf%(pot)                   0.096  10.0      0.100  10.3            451      -1.00    
- abinit(2)                      0.067   7.0      0.067   7.0              1      -1.00    
- setsym                         0.033   3.4      0.032   3.3              2      -1.00    
- fourdp                         0.017   1.8      0.015   1.5            100      -1.00    
- nonlop(apply)                  0.016   1.7      0.016   1.7            451      -1.00    
- xc:pot/=fourdp                 0.015   1.6      0.016   1.6             12      -1.00    
- projbd                         0.011   1.1      0.010   1.1            706      -1.00    
- fourwf%(den)                   0.009   0.9      0.008   0.9             65      -1.00    
- ewald                          0.006   0.6      0.006   0.6              2      -1.00    
- getghc-other                   0.005   0.5      0.004   0.4             -1      -1.00    
- forces                         0.005   0.5      0.004   0.4              2      -1.00    
- stress                         0.005   0.5      0.005   0.5              2      -1.00    
- ewald2 (+vdw_dftd2)            0.005   0.5      0.004   0.4              2      -1.00    
- vtowfk(ssdiag)                 0.004   0.4      0.003   0.3             -1      -1.00    
- mkrho/=                        0.002   0.2      0.001   0.1             20      -1.00    
- symrhg(no FFT)                 0.002   0.2      0.004   0.4             10      -1.00    
- nonlop(forstr)                 0.001   0.1      0.001   0.1             13      -1.00    
- vtowfk(contrib)                0.001   0.1      0.000   0.0             15      -1.00    
- kpgsph                         0.000   0.0      0.000   0.0              6      -1.00    
- vtowfk  (1)                    0.000   0.0      0.000   0.0             15      -1.00    
- scfcv-scprqt                   0.000   0.0      0.000   0.0             10      -1.00    
- status                         0.000   0.0      0.000   0.0             36      -1.00    
- vtowfk3(contrib)               0.000   0.0      0.000   0.0             -1      -1.00    
- cgwf3-O(npw)                   0.000   0.0      0.000   0.0             -1      -1.00    
- inwffil(excl. calls)           0.000   0.0      0.000   0.0              2      -1.00    
- newkpt(excl. rwwf   )          0.000   0.0      0.000   0.0             -1      -1.00    
- vtorho(MPI)                    0.000   0.0      0.000   0.0             10      -1.00    
- others (75)                    0.000   0.0      0.000   0.0             -1      -1.00    
-<END_TIMER>
-
- subtotal                       0.775  80.4      0.774  80.1

- For major independent code sections, cpu and wall times (sec),
- as well as % of the total time and number of calls 

-<BEGIN_TIMER mpi_nprocs = 1, omp_nthreads = 1, mpi_rank = world>
- cpu_time =           1.0, wall_time =           1.0
-
- routine                         cpu     %       wall     %      number of calls Gflops 
-                                                                  (-1=no count)
- pspini                         0.184  19.1      0.184  19.0              2      -1.00    
- invars2                        0.155  16.1      0.156  16.2              2      -1.00    
- timing timab                   0.136  14.1      0.136  14.1             14      -1.00    
- fourwf%(pot)                   0.096  10.0      0.100  10.3            451      -1.00    
- abinit(2)                      0.067   7.0      0.067   7.0              1      -1.00    
- setsym                         0.033   3.4      0.032   3.3              2      -1.00    
- fourdp                         0.017   1.8      0.015   1.5            100      -1.00    
- nonlop(apply)                  0.016   1.7      0.016   1.7            451      -1.00    
- xc:pot/=fourdp                 0.015   1.6      0.016   1.6             12      -1.00    
- projbd                         0.011   1.1      0.010   1.1            706      -1.00    
- fourwf%(den)                   0.009   0.9      0.008   0.9             65      -1.00    
- ewald                          0.006   0.6      0.006   0.6              2      -1.00    
- getghc-other                   0.005   0.5      0.004   0.4             -1      -1.00    
- forces                         0.005   0.5      0.004   0.4              2      -1.00    
- stress                         0.005   0.5      0.005   0.5              2      -1.00    
- ewald2 (+vdw_dftd2)            0.005   0.5      0.004   0.4              2      -1.00    
- vtowfk(ssdiag)                 0.004   0.4      0.003   0.3             -1      -1.00    
- mkrho/=                        0.002   0.2      0.001   0.1             20      -1.00    
- symrhg(no FFT)                 0.002   0.2      0.004   0.4             10      -1.00    
- nonlop(forstr)                 0.001   0.1      0.001   0.1             13      -1.00    
- vtowfk(contrib)                0.001   0.1      0.000   0.0             15      -1.00    
- kpgsph                         0.000   0.0      0.000   0.0              6      -1.00    
- vtowfk  (1)                    0.000   0.0      0.000   0.0             15      -1.00    
- scfcv-scprqt                   0.000   0.0      0.000   0.0             10      -1.00    
- status                         0.000   0.0      0.000   0.0             36      -1.00    
- vtowfk3(contrib)               0.000   0.0      0.000   0.0             -1      -1.00    
- cgwf3-O(npw)                   0.000   0.0      0.000   0.0             -1      -1.00    
- inwffil(excl. calls)           0.000   0.0      0.000   0.0              2      -1.00    
- newkpt(excl. rwwf   )          0.000   0.0      0.000   0.0             -1      -1.00    
- vtorho(MPI)                    0.000   0.0      0.000   0.0             10      -1.00    
- others (75)                    0.000   0.0      0.000   0.0             -1      -1.00    
-<END_TIMER>

- subtotal                       0.775  80.4      0.774  80.1

 Partitioning of abinit
- abinit                         0.964 100.0      0.966 100.0              1
 
- abinit(1)                      0.012   1.2      0.012   1.2              1
- abinit(2)                      0.067   7.0      0.067   7.0              1
- indefo+macroin+invars2m        0.156  16.2      0.157  16.2              1
- abinit(4)                      0.019   2.0      0.019   1.9              1
- abinit(5)                      0.016   1.7      0.016   1.6              1
- driver                         0.549  57.0      0.550  57.0              1
- abinit(6)                      0.009   0.9      0.009   0.9              1
- timing timab                   0.136  14.1      0.136  14.1             14

- subtotal                       0.964 100.0      0.966 100.0

 Partitioning of driver
- driver                         0.549  57.0      0.550  57.0              1
 
- driver(bef. select case)       0.000   0.0      0.000   0.0              2
- gstateimg                      0.549  57.0      0.550  56.9              2

- subtotal                       0.549  57.0      0.550  57.0

 Partitioning of gstateimg+gstate
- gstateimg                      0.549  57.0      0.550  56.9              2
 
- gstate->kpgsph                 0.033   3.4      0.033   3.4              4
- gstate(pspini)                 0.184  19.1      0.184  19.0              2
- gstate  (2)                    0.002   0.2      0.001   0.1              2
- gstate(...scfcv)               0.327  33.9      0.328  34.0              2
- gstate  (3)                    0.003   0.3      0.003   0.4              2

- subtotal                       0.549  57.0      0.550  56.9

 Partitioning of scfcv
- scfcv                          0.327  33.9      0.328  34.0              2
 
- scfcv(iniloop, setvtr  )       0.011   1.1      0.012   1.2             10
- scfcv(vtorho(f))               0.273  28.3      0.274  28.4             10
- scfcv-scprqt                   0.000   0.0      0.000   0.0             10
- scfcv(rhotov)                  0.022   2.3      0.022   2.3             10
- scfcv(mix pot)                 0.007   0.7      0.006   0.6              8
- scfcv(afterscfloop)            0.011   1.1      0.011   1.1              2
- scfcv(outscfcv)                0.003   0.3      0.003   0.3              2

- subtotal                       0.327  33.9      0.328  34.0

 Partitioning of rhotov
- rhotov                         0.022   2.3      0.022   2.3             10
 
- rhotov(rhohxc)                 0.021   2.2      0.021   2.2             10
- rhotov(other)                  0.001   0.1      0.001   0.1             10

- subtotal                       0.022   2.3      0.022   2.3

 Partitioning of vtorho
- vtorho                         0.273  28.3      0.274  28.4             10
 
- vtorho(bef. spin loop)         0.000   0.0      0.000   0.0             10
- vtorho(bef. kpt  loop)         0.000   0.0      0.000   0.0             10
- vtorho(bef. vtowfk)            0.002   0.2      0.001   0.1             15
- vtowfk                         0.145  15.0      0.146  15.1             15
- vtorho(newocc)                 0.108  11.2      0.109  11.3             10
- vtorho(mkrho 1)                0.017   1.8      0.017   1.7             10
- vtorho(mkrho 2)                0.001   0.1      0.001   0.1             10

- subtotal                       0.273  28.3      0.274  28.4

 Partitioning of vtowfk
- vtowfk                         0.145  15.0      0.146  15.1             15
 
- cgwf                           0.140  14.5      0.143  14.8             21
- vtowfk(subdiago)               0.001   0.1      0.001   0.1             21
- vtowfk(pw_orthon)              0.003   0.3      0.001   0.1             21
- vtowfk(2)                      0.000   0.0      0.000   0.0             -1

- subtotal                       0.145  15.0      0.146  15.1

 Partitioning of cgwf
- cgwf                           0.140  14.5      0.143  14.8             21
 
- getghc%cgwf                    0.117  12.1      0.120  12.4            451
- cgwf-O(npw)                    0.012   1.2      0.013   1.4             -1
- projbd%cgwf                    0.011   1.1      0.010   1.1            706

- subtotal                       0.140  14.5      0.143  14.8

 Partitioning of getghc
- getghc                         0.117  12.1      0.120  12.4            451
 
- fourwf%getghc                  0.096  10.0      0.100  10.3            451
- nonlop%getghc                  0.016   1.7      0.016   1.7            451
- getghc-other                   0.005   0.5      0.004   0.4             -1

- subtotal                       0.117  12.1      0.120  12.4

 Partitioning of fourwf (upwards partitioning)
- fourwf                         0.105  10.9      0.108  11.2            516
 
- fourwf%getghc                  0.096  10.0      0.100  10.3            451
- fourwf%mkrho                   0.009   0.9      0.008   0.9             65

- subtotal                       0.105  10.9      0.108  11.2

 Partitioning of mkrho (upwards partitioning)
- mkrho                          0.017   1.8      0.017   1.7             10
 
- mkrho%vtorho                   0.017   1.8      0.017   1.7             10

- subtotal                       0.017   1.8      0.017   1.7

 Partitioning of inwffil
- inwffil                        0.000   0.0      0.000   0.0              2
 
- inwffil(call newkpt)           0.000   0.0      0.000   0.0              2

- subtotal                       0.000   0.0      0.000   0.0

 Partitioning of newkpt
- newkpt                         0.000   0.0      0.000   0.0              2
 
- newkpt(call wfconv)            0.000   0.0      0.000   0.0              3

- subtotal                       0.000   0.0      0.000   0.0

 Partitioning of newvtr
- newvtr                         0.007   0.7      0.005   0.6              8
 
- newvtr(call prcref_PMA)        0.005   0.5      0.003   0.3              8
- newvtr(aft. prcref_PMA)        0.002   0.2      0.002   0.2              8
- (other)                        0.000   0.0      0.000   0.0             -1

- subtotal                       0.007   0.7      0.005   0.6

 Partitioning of  fourdp (upwards partitioning)
- fourdp                         0.017   1.8      0.015   1.5            100
 
- fourdp%(other)                 0.017   1.8      0.015   1.5            100

- subtotal                       0.017   1.8      0.015   1.5

 Partitioning of afterscfloop
- afterscfloop                   0.011   1.1      0.011   1.1              2
 
- afterscfloop(forstr)           0.011   1.1      0.011   1.1              2

- subtotal                       0.011   1.1      0.011   1.1

 Partitioning of forstr
- forstr                         0.011   1.1      0.011   1.1              2
 
- forstr(forstrnps)              0.001   0.1      0.002   0.2              2
- forstr(forces)                 0.005   0.5      0.004   0.4              2
- forstr(stress)                 0.005   0.5      0.005   0.5              2

- subtotal                       0.011   1.1      0.011   1.1

 Partitioning of forstrnps
- forstrnps                      0.001   0.1      0.002   0.2              2
 
- forstrnps(bef.loop band)       0.000   0.0      0.000   0.0              3
- forstrnps(nonlop+prep_ba       0.001   0.1      0.001   0.1             13

- subtotal                       0.001   0.1      0.002   0.2

 Partitioning of outscfcv
- outscfcv                       0.003   0.3      0.003   0.3              2
 
- outscfcv([PAW]prtden)          0.001   0.1      0.001   0.1              2

- subtotal                       0.001   0.1      0.001   0.1
-
-Synchronisation (=leave_test) and MPI calls 
- communic.MPI                   0.000   0.0      0.000   0.0            760
-
- forstrnps:synchr               0.000   0.0      0.000   0.0              4
- mkrho :MPIrhor                 0.000   0.0      0.000   0.0             10
-
- subtotal                       0.000   0.0      0.000   0.0

 Additional information
- ingeo/symgroup                 0.000   0.0      0.000   0.0              2
- timana(1)                      0.000   0.0      0.000   0.0              1
- total timab                    0.139  14.4      0.139  14.4         198548
- fourwf                         0.105  10.9      0.108  11.2            516
- mklocl(2)                      0.001   0.1      0.001   0.1              2
- status                         0.000   0.0      0.000   0.0             36
- newocc                         0.108  11.2      0.109  11.3             10
- nonlop(forstr)                 0.001   0.1      0.001   0.1             13
- nonlop(total)                  0.017   1.8      0.018   1.8            464
- xc:fourdp                      0.006   0.6      0.007   0.8             48

 timana : in multi dataset mode, the more detailed analysis is not done.

================================================================================

 Suggested references for the acknowledgment of ABINIT usage.

 The users of ABINIT have little formal obligations with respect to the ABINIT group
 (those specified in the GNU General Public License, http://www.gnu.org/copyleft/gpl.txt).
 However, it is common practice in the scientific literature,
 to acknowledge the efforts of people that have made the research possible.
 In this spirit, please find below suggested citations of work written by ABINIT developers,
 corresponding to implementations inside of ABINIT that you have used in the present run.
 Note also that it will be of great value to readers of publications presenting these results,
 to read papers enabling them to understand the theoretical formalism and details
 of the ABINIT implementation.
 For information on why they are suggested, see also http://www.abinit.org/about/?text=acknowledgments.

 [1] Ab initio pseudopotentials for electronic structure calculations of poly-atomic systems, 
 using density-functional theory.
 M. Fuchs, M. Scheffler, Comput. Phys. Commun. 119, 67 (1999).
 Comment : Some pseudopotential generated using the FHI code were used.

 [2] ABINIT : First-principles approach of materials and nanosystem properties.
 X. Gonze, B. Amadon, P.-M. Anglade, J.-M. Beuken, F. Bottin, P. Boulanger, F. Bruneval,
 D. Caliste, R. Caracas, M. Cote, T. Deutsch, L. Genovese, Ph. Ghosez, M. Giantomassi
 S. Goedecker, D.R. Hamann, P. Hermet, F. Jollet, G. Jomard, S. Leroux, M. Mancini, S. Mazevet,
 M.J.T. Oliveira, G. Onida, Y. Pouillon, T. Rangel, G.-M. Rignanese, D. Sangalli, R. Shaltaf,
 M. Torrent, M.J. Verstraete, G. Zerah, J.W. Zwanziger
 Computer Phys. Comm. 180, 2582-2615 (2009).
 Comment : the third generic paper describing the ABINIT project.
 Note that a version of this paper, that is not formatted for Computer Phys. Comm. 
 is available at http://www.abinit.org/about/ABINIT_CPC_v10.pdf .
 The licence allows the authors to put it on the Web.

 [3] A brief introduction to the ABINIT software package.
 X. Gonze, G.-M. Rignanese, M. Verstraete, J.-M. Beuken, Y. Pouillon, R. Caracas, F. Jollet,
 M. Torrent, G. Zerah, M. Mikami, Ph. Ghosez, M. Veithen, J.-Y. Raty, V. Olevano, F. Bruneval,
 L. Reining, R. Godby, G. Onida, D.R. Hamann, and D.C. Allan.
 Z. Kristallogr. 220, 558-562 (2005).
 Comment : the second generic paper describing the ABINIT project. Note that this paper
 should be cited especially if you are using the GW part of ABINIT, as several authors
 of this part are not in the list of authors of the first or third paper.
 The .pdf of the latter paper is available at http://www.abinit.org/about/zfk_0505-06_558-562.pdf.
 Note that it should not redistributed (Copyright by Oldenburg Wissenshaftverlag,
 the licence allows the authors to put it on the Web).


 And optionally :

 [4] First-principles computation of material properties : the ABINIT software project. 
 X. Gonze, J.-M. Beuken, R. Caracas, F. Detraux, M. Fuchs, G.-M. Rignanese, L. Sindic,
 M. Verstraete, G. Zerah, F. Jollet, M. Torrent, A. Roy, M. Mikami, Ph. Ghosez, J.-Y. Raty, D.C. Allan.
 Computational Materials Science 25, 478-492 (2002). http://dx.doi.org/10.1016/S0927-0256(02)00325-7
 Comment : the original paper describing the ABINIT project.

 [5] Fast radix 2, 3, 4 and 5 kernels for Fast Fourier Transformations
 on computers with overlapping multiply-add instructions.
 S. Goedecker, SIAM J. on Scientific Computing 18, 1605 (1997).
-
- Proc.   0 individual time (sec): cpu=          1.0  wall=          1.0

================================================================================

 Calculation completed.
.Delivered    1 WARNINGs and   3 COMMENTs to log file.
+Overall time at end (sec) : cpu=          1.0  wall=          1.0
