
.Version 7.9.3 of ABINIT 
.(MPI version, prepared for a x86_64_linux_gnu4.7 computer) 

.Copyright (C) 1998-2014 ABINIT group . 
 ABINIT comes with ABSOLUTELY NO WARRANTY.
 It is free software, and you are welcome to redistribute it
 under certain conditions (GNU General Public License,
 see ~abinit/COPYING or http://www.gnu.org/copyleft/gpl.txt).

 ABINIT is a project of the Universite Catholique de Louvain,
 Corning Inc. and other collaborators, see ~abinit/doc/developers/contributors.txt .
 Please read ~abinit/doc/users/acknowledgments.html for suggested
 acknowledgments of the ABINIT effort.
 For more information, see http://www.abinit.org .

.Starting date : Sat 30 Aug 2014.
- ( at 22h26 )
  
- input  file    -> tbasepar_2.in
- output file    -> tbasepar_2.out
- root for input  files -> tbasepar_2i
- root for output files -> tbasepar_2o


 Symmetries : space group P-4 3 m (#215); Bravais cP (primitive cubic)
================================================================================
 Values of the parameters that define the memory need of the present run
   intxc =         0  ionmov =         0    iscf =         5 xclevel =         1
  lmnmax =         6   lnmax =         6   mband =        40  mffmem =         1
P  mgfft =        36   mkmem =         1 mpssoang=         3     mpw =      2698
  mqgrid =      3001   natom =         4    nfft =     46656    nkpt =         1
  nloalg =         4  nspden =         2 nspinor =         1  nsppol =         2
    nsym =        24  n1xccc =         0  ntypat =         1  occopt =         7
================================================================================
P This job should need less than                      21.123 Mbytes of memory.
  Rough estimation (10% accuracy) of disk space for files :
_ WF disk file :      3.295 Mbytes ; DEN or POT disk file :      0.714 Mbytes.
================================================================================

--------------------------------------------------------------------------------
------------- Echo of variables that govern the present computation ------------
--------------------------------------------------------------------------------
-
- outvars: echo of selected default values                                      
-   accesswff0 =  0 , fftalg0 =112 , wfoptalg0 =  0
-
- outvars: echo of global parameters not present in the input file              
-  max_nthreads =    0
-
 -outvars: echo values of preprocessed input variables --------
            acell      7.0000000000E+00  7.0000000000E+00  7.0000000000E+00 Bohr
              amu      5.58470000E+01
             ecut      3.00000000E+01 Hartree
-          fftalg         112
             iscf           5
              kpt      2.50000000E-01  2.50000000E-01  2.50000000E-01
         kptrlatt        2    0    0      0    2    0      0    0    2
          kptrlen      1.40000000E+01
P           mkmem           1
            natom           4
            nband          40
            ngfft          36      36      36
             nkpt           1
            nline           5
           nspden           2
           nsppol           2
            nstep           5
             nsym          24
           ntypat           1
              occ      1.000000  1.000000  1.000000  1.000000  1.000000  1.000000
                       1.000000  1.000000  1.000000  1.000000  1.000000  1.000000
                       1.000000  1.000000  1.000000  1.000000  0.000000  0.000000
                       0.000000  0.000000  0.000000  0.000000  0.000000  0.000000
                       0.000000  0.000000  0.000000  0.000000  0.000000  0.000000
                       0.000000  0.000000  0.000000  0.000000  0.000000  0.000000
                       0.000000  0.000000  0.000000  0.000000
                       1.000000  1.000000  1.000000  1.000000  1.000000  1.000000
                       1.000000  1.000000  1.000000  1.000000  1.000000  1.000000
                       1.000000  1.000000  1.000000  1.000000  0.000000  0.000000
                       0.000000  0.000000  0.000000  0.000000  0.000000  0.000000
                       0.000000  0.000000  0.000000  0.000000  0.000000  0.000000
                       0.000000  0.000000  0.000000  0.000000  0.000000  0.000000
                       0.000000  0.000000  0.000000  0.000000
           occopt           7
        optforces           1
           shiftk      5.00000000E-01  5.00000000E-01  5.00000000E-01
          spgroup         215
           spinat      0.0000000000E+00  0.0000000000E+00  3.0000000000E+00
                       0.0000000000E+00  0.0000000000E+00  3.0000000000E+00
                       0.0000000000E+00  0.0000000000E+00  3.0000000000E+00
                       0.0000000000E+00  0.0000000000E+00  3.0000000000E+00
           symrel      1  0  0   0  1  0   0  0  1      -1  0  0   0  1  0   0  0 -1
                      -1  0  0   0 -1  0   0  0  1       1  0  0   0 -1  0   0  0 -1
                       0  1  0   1  0  0   0  0  1       0 -1  0   1  0  0   0  0 -1
                       0 -1  0  -1  0  0   0  0  1       0  1  0  -1  0  0   0  0 -1
                       0  0  1   1  0  0   0  1  0       0  0 -1   1  0  0   0 -1  0
                       0  0 -1  -1  0  0   0  1  0       0  0  1  -1  0  0   0 -1  0
                       1  0  0   0  0  1   0  1  0      -1  0  0   0  0  1   0 -1  0
                      -1  0  0   0  0 -1   0  1  0       1  0  0   0  0 -1   0 -1  0
                       0  1  0   0  0  1   1  0  0       0 -1  0   0  0  1  -1  0  0
                       0 -1  0   0  0 -1   1  0  0       0  1  0   0  0 -1  -1  0  0
                       0  0  1   0  1  0   1  0  0       0  0 -1   0  1  0  -1  0  0
                       0  0 -1   0 -1  0   1  0  0       0  0  1   0 -1  0  -1  0  0
            tnons      0.0000000  0.0000000  0.0000000     0.5000000  0.0000000  0.5000000
                       0.5000000  0.5000000  0.0000000     0.0000000  0.5000000  0.5000000
                       0.0000000  0.0000000  0.0000000     0.0000000  0.5000000  0.5000000
                       0.5000000  0.5000000  0.0000000     0.5000000  0.0000000  0.5000000
                       0.0000000  0.0000000  0.0000000     0.0000000  0.5000000  0.5000000
                       0.5000000  0.0000000  0.5000000     0.5000000  0.5000000  0.0000000
                       0.0000000  0.0000000  0.0000000     0.5000000  0.5000000  0.0000000
                       0.5000000  0.0000000  0.5000000     0.0000000  0.5000000  0.5000000
                       0.0000000  0.0000000  0.0000000     0.5000000  0.5000000  0.0000000
                       0.0000000  0.5000000  0.5000000     0.5000000  0.0000000  0.5000000
                       0.0000000  0.0000000  0.0000000     0.5000000  0.0000000  0.5000000
                       0.0000000  0.5000000  0.5000000     0.5000000  0.5000000  0.0000000
           tolvrs      1.00000000E-13
            typat      1  1  1  1
           xangst      3.7042404601E-02  3.7042404601E-02  3.7042404601E-02
                       1.8150778255E+00  1.8150778255E+00  3.7042404601E-02
                       1.8150778255E+00  3.7042404601E-02  1.8150778255E+00
                       3.7042404601E-02  1.8150778255E+00  1.8150778255E+00
            xcart      7.0000000000E-02  7.0000000000E-02  7.0000000000E-02
                       3.4300000000E+00  3.4300000000E+00  7.0000000000E-02
                       3.4300000000E+00  7.0000000000E-02  3.4300000000E+00
                       7.0000000000E-02  3.4300000000E+00  3.4300000000E+00
             xred      1.0000000000E-02  1.0000000000E-02  1.0000000000E-02
                       4.9000000000E-01  4.9000000000E-01  1.0000000000E-02
                       4.9000000000E-01  1.0000000000E-02  4.9000000000E-01
                       1.0000000000E-02  4.9000000000E-01  4.9000000000E-01
            znucl       26.00000

================================================================================

 chkinp: Checking input parameters for consistency.

================================================================================
== DATASET  1 ==================================================================
-   nproc =    1

 Exchange-correlation functional for the present dataset will be:
  LDA: new Teter (4/93) with spin-polarized option - ixc=1
 Citation for XC functional:
  S. Goedecker, M. Teter, J. Huetter, PRB 54, 1703 (1996)

 Real(R)+Recip(G) space primitive vectors, cartesian coordinates (Bohr,Bohr^-1):
 R(1)=  7.0000000  0.0000000  0.0000000  G(1)=  0.1428571  0.0000000  0.0000000
 R(2)=  0.0000000  7.0000000  0.0000000  G(2)=  0.0000000  0.1428571  0.0000000
 R(3)=  0.0000000  0.0000000  7.0000000  G(3)=  0.0000000  0.0000000  0.1428571
 Unit cell volume ucvol=  3.4300000E+02 bohr^3
 Angles (23,13,12)=  9.00000000E+01  9.00000000E+01  9.00000000E+01 degrees

 getcut: wavevector=  0.0000  0.0000  0.0000  ngfft=  36  36  36
         ecut(hartree)=     30.000   => boxcut(ratio)=   2.08583

--- Pseudopotential description ------------------------------------------------
- pspini: atom type   1  psp file is /home/gonze/ABINIT/ABINITv7.9.3/trunk/7.9.3-private/tests/Psps_for_tests/HGH/26fe.8.hgh
- pspatm: opening atomic psp file    /home/gonze/ABINIT/ABINITv7.9.3/trunk/7.9.3-private/tests/Psps_for_tests/HGH/26fe.8.hgh
- Hartwigsen-Goedecker-Hutter psp for Fe,  from PRB58, 3641 (1998)
- 26.00000   8.00000     10605                znucl, zion, pspdat
    3    1    2    0      2001   0.00000      pspcod,pspxc,lmax,lloc,mmax,r2well
 rloc=   0.6100000
 cc1 =   0.0000000; cc2 =   0.0000000; cc3 =   0.0000000; cc4 =   0.0000000
 rrs =   0.4544820; h11s=   3.0166400; h22s=   2.5830380; h33s=   3.2576350
 rrp =   0.6389030; h11p=   1.4996420; h22p=   0.3268740; h33p=   0.0000000
                    k11p=  -0.0149090; k22p=   0.0497930; k33p=   0.0000000
 rrd =   0.3087320; h11d=  -9.1453540; h22d=   0.0000000; h33d=   0.0000000
                    k11d=   0.0057220; k22d=   0.0000000; k33d=   0.0000000
-  Local part computed in reciprocal space.

 pspatm : COMMENT -
  the projectors are not normalized,
  so that the KB energies are not consistent with 
  definition in PRB44, 8503 (1991). 
  However, this does not influence the results obtained hereafter.
 pspatm: epsatm=   18.70378602
         --- l  ekb(1:nproj) -->
             0    0.268589    0.812381    1.866551
             1    0.234598    1.143985
             2   -0.034669
 pspatm: atomic psp has been read  and splines computed

   2.39408461E+03                                ecore*ucvol(ha*bohr**3)
--------------------------------------------------------------------------------

P newkpt: treating     40 bands with npw=    2698 for ikpt=   1 by node    0
P newkpt: treating     40 bands with npw=    2698 for ikpt=   1 by node    0

_setup2: Arith. and geom. avg. npw (full set) are    2698.000    2698.000

================================================================================

     iter   Etot(hartree)     deltaE(h) residm    vres2   diffor   maxfor   magn
 ETOT  1  -71.209220089713    -7.12E+01 2.09E-02 2.93E+04 4.1E-01 4.15E-01 8.000
 ETOT  2  -70.934958509441     2.74E-01 8.20E-05 2.73E+04 6.0E-01 1.89E-01 2.753
 ETOT  3  -79.950178320174    -9.02E+00 6.53E-02 3.44E+02 1.7E-01 1.80E-02 9.587
 ETOT  4  -80.005261997828    -5.51E-02 2.99E-03 2.75E+02 8.7E-03 2.67E-02 10.48
 ETOT  5  -80.084810710965    -7.95E-02 2.21E-03 1.35E+02 4.2E-02 1.50E-02 10.99

 Cartesian components of stress tensor (hartree/bohr^3)
  sigma(1 1)=  2.37971568E-02  sigma(3 2)=  0.00000000E+00
  sigma(2 2)=  2.37971568E-02  sigma(3 1)=  0.00000000E+00
  sigma(3 3)=  2.37971568E-02  sigma(2 1)=  0.00000000E+00


 scprqt:  WARNING -
  nstep=    5 was not enough SCF cycles to converge;
  potential residual=  1.355E+02 exceeds tolvrs=  1.000E-13

================================================================================

 ----iterations are completed or convergence reached----

 Mean square residual over all n,k,spin=   8.4310E-04; max=  2.2126E-03
   0.2500  0.2500  0.2500    1  2.21265E-03 kpt; spin; max resid(k); each band:
  1.81E-04 2.20E-03 2.21E-03 2.21E-03 1.97E-03 2.03E-03 2.03E-03 1.98E-03
  1.89E-03 1.89E-03 1.81E-03 7.21E-04 7.21E-04 5.91E-04 5.85E-04 5.85E-04
  1.21E-04 1.21E-04 3.29E-05 3.29E-05 3.51E-05 1.94E-03 1.92E-03 1.92E-03
  1.59E-03 1.59E-03 1.58E-03 1.36E-03 1.47E-03 1.47E-03 1.61E-03 6.07E-04
  6.23E-04 6.23E-04 1.32E-03 1.32E-03 1.27E-03 4.25E-04 7.17E-04 7.17E-04
   0.2500  0.2500  0.2500    2  8.66106E-04 kpt; spin; max resid(k); each band:
  4.45E-05 5.52E-04 5.39E-04 5.39E-04 7.92E-04 8.17E-04 8.17E-04 8.66E-04
  8.14E-04 8.14E-04 7.80E-04 3.38E-04 3.38E-04 3.07E-04 3.07E-04 3.12E-04
  4.73E-05 4.73E-05 2.79E-05 2.79E-05 2.97E-05 5.13E-04 4.95E-04 4.95E-04
  7.38E-04 7.38E-04 7.41E-04 6.46E-04 6.81E-04 6.81E-04 7.53E-04 3.22E-04
  3.31E-04 3.31E-04 5.03E-04 6.03E-04 6.03E-04 3.75E-04 3.54E-04 3.54E-04
 reduced coordinates (array xred) for    4 atoms
       0.010000000000      0.010000000000      0.010000000000
       0.490000000000      0.490000000000      0.010000000000
       0.490000000000      0.010000000000      0.490000000000
       0.010000000000      0.490000000000      0.490000000000
 rms dE/dt=  1.0469E-01; max dE/dt=  1.0469E-01; dE/dt below (all hartree)
    1       0.104690033017      0.104690033017      0.104690033017
    2      -0.104690033017     -0.104690033017      0.104690033017
    3      -0.104690033017      0.104690033017     -0.104690033017
    4       0.104690033017     -0.104690033017     -0.104690033017

 cartesian coordinates (angstrom) at end:
    1      0.03704240460130     0.03704240460130     0.03704240460130
    2      1.81507782546370     1.81507782546370     0.03704240460130
    3      1.81507782546370     0.03704240460130     1.81507782546370
    4      0.03704240460130     1.81507782546370     1.81507782546370

 cartesian forces (hartree/bohr) at end:
    1     -0.01495571900239    -0.01495571900239    -0.01495571900239
    2      0.01495571900239     0.01495571900239    -0.01495571900239
    3      0.01495571900239    -0.01495571900239     0.01495571900239
    4     -0.01495571900239     0.01495571900239     0.01495571900239
 frms,max,avg= 1.4955719E-02 1.4955719E-02   0.000E+00  0.000E+00  0.000E+00 h/b

 cartesian forces (eV/Angstrom) at end:
    1     -0.76905392762630    -0.76905392762630    -0.76905392762630
    2      0.76905392762630     0.76905392762630    -0.76905392762630
    3      0.76905392762630    -0.76905392762630     0.76905392762630
    4     -0.76905392762630     0.76905392762630     0.76905392762630
 frms,max,avg= 7.6905393E-01 7.6905393E-01   0.000E+00  0.000E+00  0.000E+00 e/A
 length scales=  7.000000000000  7.000000000000  7.000000000000 bohr
              =  3.704240460130  3.704240460130  3.704240460130 angstroms
 prteigrs : about to open file tbasepar_2o_EIG
 Fermi (or HOMO) energy (hartree) =   0.24477   Average Vxc (hartree)=  -0.44819
 Magnetization (Bohr magneton)=  1.09932435E+01
 Total spin up =  2.14966217E+01   Total spin down =  1.05033783E+01
 Eigenvalues (hartree) for nkpt=   1  k points, SPIN UP:
 kpt#   1, nband= 40, wtk=  1.00000, kpt=  0.2500  0.2500  0.2500 (reduced coord)
  -0.03061   0.03450   0.03681   0.03681   0.05526   0.05639   0.05639   0.09334
   0.09468   0.09468   0.09854   0.10624   0.10624   0.11527   0.11668   0.11668
   0.13072   0.13072   0.15467   0.15467   0.16083   0.27110   0.27267   0.27267
   0.48883   0.48883   0.48917   0.68330   0.69957   0.69957   0.71636   0.80212
   0.80356   0.80356   0.95092   0.95092   0.95218   1.00898   1.04771   1.04771
      occupation numbers for kpt#   1
   1.00000   1.00000   1.00000   1.00000   1.00000   1.00000   1.00000   1.00000
   1.00000   1.00000   1.00000   1.00000   1.00000   1.00000   1.00000   1.00000
   0.99997   0.99997   0.99928   0.99928   0.99850   0.17587   0.16188   0.16188
   0.00000   0.00000   0.00000   0.00000   0.00000   0.00000   0.00000   0.00000
   0.00000   0.00000   0.00000   0.00000   0.00000   0.00000   0.00000   0.00000
 Eigenvalues (hartree) for nkpt=   1  k points, SPIN DOWN:
 kpt#   1, nband= 40, wtk=  1.00000, kpt=  0.2500  0.2500  0.2500 (reduced coord)
  -0.00375   0.13415   0.13556   0.13556   0.17587   0.17762   0.17762   0.22448
   0.22907   0.22907   0.23299   0.26519   0.26519   0.28701   0.28701   0.28864
   0.31294   0.31294   0.34201   0.34201   0.34600   0.38769   0.39030   0.39030
   0.56044   0.56044   0.56052   0.74669   0.76572   0.76572   0.78213   0.84719
   0.84853   0.84853   1.00088   1.00109   1.00109   1.02704   1.10073   1.10073
      occupation numbers for kpt#   1
   1.00000   0.99995   0.99994   0.99994   0.99257   0.99120   0.99120   0.76334
   0.71057   0.71057   0.66135   0.23514   0.23514   0.06766   0.06766   0.06044
   0.00797   0.00797   0.00029   0.00029   0.00017   0.00000   0.00000   0.00000
   0.00000   0.00000   0.00000   0.00000   0.00000   0.00000   0.00000   0.00000
   0.00000   0.00000   0.00000   0.00000   0.00000   0.00000   0.00000   0.00000
 Total charge density [el/Bohr^3]
,     Maximum=    9.8860E-01  at reduced coord.    0.4167    0.4444    0.9722
,Next maximum=    9.8860E-01  at reduced coord.    0.4444    0.4167    0.9722
,     Minimum=    7.8160E-03  at reduced coord.    0.0000    0.0000    0.0000
,Next minimum=    7.8160E-03  at reduced coord.    0.5000    0.5000    0.0000
,  Integrated=    3.2000E+01
 Spin up density      [el/Bohr^3]
,     Maximum=    7.7764E-01  at reduced coord.    0.5000    0.5000    0.9167
,Next maximum=    7.7764E-01  at reduced coord.    0.0000    0.0000    0.9167
,     Minimum=    5.9372E-03  at reduced coord.    0.0000    0.0000    0.0000
,Next minimum=    5.9372E-03  at reduced coord.    0.5000    0.5000    0.0000
,  Integrated=    2.1497E+01
 Spin down density    [el/Bohr^3]
,     Maximum=    2.3486E-01  at reduced coord.    0.0556    0.9444    0.9444
,Next maximum=    2.3486E-01  at reduced coord.    0.4444    0.5556    0.9444
,     Minimum=    1.8788E-03  at reduced coord.    0.0000    0.0000    0.0000
,Next minimum=    1.8788E-03  at reduced coord.    0.5000    0.5000    0.0000
,  Integrated=    1.0503E+01
 Magnetization (spin up - spin down) [el/Bohr^3]
,     Maximum=    6.1681E-01  at reduced coord.    0.5000    0.5000    0.9167
,Next maximum=    6.1681E-01  at reduced coord.    0.0000    0.0000    0.9167
,     Minimum=   -7.0326E-03  at reduced coord.    0.2500    0.2500    0.2500
,Next minimum=   -6.9455E-03  at reduced coord.    0.2500    0.2500    0.2222
,  Integrated=    1.0993E+01
 Relative magnetization (=zeta, between -1 and 1)
,     Maximum=    6.6454E-01  at reduced coord.    0.1111    0.5000    0.5000
,Next maximum=    6.6454E-01  at reduced coord.    0.0000    0.3889    0.5000
,     Minimum=   -1.9790E-01  at reduced coord.    0.5000    0.0000    0.0000
,Next minimum=   -1.9790E-01  at reduced coord.    0.0000    0.5000    0.0000

--------------------------------------------------------------------------------
 Components of total free energy (in Hartree) :

    Kinetic energy  =  1.25650794248527E+02
    Hartree energy  =  1.44063774642961E+01
    XC energy       = -1.70626672615726E+01
    Ewald energy    = -8.36499227815283E+01
    PspCore energy  =  6.97983851565236E+00
    Loc. psp. energy= -4.83382491267453E+01
    NL   psp  energy= -7.79796526379080E+01
    >>>>> Internal E= -7.99934815792784E+01

    -kT*entropy     = -9.13291316865397E-02
    >>>>>>>>> Etotal= -8.00848107109649E+01

 Other information on the energy :
    Total energy(eV)= -2.17921852561151E+03 ; Band energy (Ha)=   3.8204142247E+00
--------------------------------------------------------------------------------

 Cartesian components of stress tensor (hartree/bohr^3)
  sigma(1 1)=  2.37971568E-02  sigma(3 2)=  0.00000000E+00
  sigma(2 2)=  2.37971568E-02  sigma(3 1)=  0.00000000E+00
  sigma(3 3)=  2.37971568E-02  sigma(2 1)=  0.00000000E+00

-Cartesian components of stress tensor (GPa)         [Pressure= -7.0014E+02 GPa]
- sigma(1 1)=  7.00136408E+02  sigma(3 2)=  0.00000000E+00
- sigma(2 2)=  7.00136408E+02  sigma(3 1)=  0.00000000E+00
- sigma(3 3)=  7.00136408E+02  sigma(2 1)=  0.00000000E+00

== END DATASET(S) ==============================================================
================================================================================
  
 -outvars: echo values of variables after computation  --------
            acell      7.0000000000E+00  7.0000000000E+00  7.0000000000E+00 Bohr
              amu      5.58470000E+01
             ecut      3.00000000E+01 Hartree
           etotal     -8.0084810711E+01
            fcart     -1.4955719002E-02 -1.4955719002E-02 -1.4955719002E-02
                       1.4955719002E-02  1.4955719002E-02 -1.4955719002E-02
                       1.4955719002E-02 -1.4955719002E-02  1.4955719002E-02
                      -1.4955719002E-02  1.4955719002E-02  1.4955719002E-02
-          fftalg         112
             iscf           5
              kpt      2.50000000E-01  2.50000000E-01  2.50000000E-01
         kptrlatt        2    0    0      0    2    0      0    0    2
          kptrlen      1.40000000E+01
P           mkmem           1
            natom           4
            nband          40
            ngfft          36      36      36
             nkpt           1
            nline           5
           nspden           2
           nsppol           2
            nstep           5
             nsym          24
           ntypat           1
              occ      1.000000  1.000000  1.000000  1.000000  1.000000  1.000000
                       1.000000  1.000000  1.000000  1.000000  1.000000  1.000000
                       1.000000  0.999998  0.999997  0.999997  0.999972  0.999972
                       0.999277  0.999277  0.998500  0.175872  0.161881  0.161881
                       0.000000  0.000000  0.000000  0.000000  0.000000  0.000000
                       0.000000  0.000000  0.000000  0.000000  0.000000  0.000000
                       0.000000  0.000000  0.000000  0.000000
                       1.000000  0.999954  0.999944  0.999944  0.992571  0.991200
                       0.991200  0.763335  0.710573  0.710573  0.661355  0.235137
                       0.235137  0.067663  0.067663  0.060440  0.007965  0.007965
                       0.000293  0.000293  0.000172  0.000000  0.000000  0.000000
                       0.000000  0.000000  0.000000  0.000000  0.000000  0.000000
                       0.000000  0.000000  0.000000  0.000000  0.000000  0.000000
                       0.000000  0.000000  0.000000  0.000000
           occopt           7
        optforces           1
           shiftk      5.00000000E-01  5.00000000E-01  5.00000000E-01
          spgroup         215
           spinat      0.0000000000E+00  0.0000000000E+00  3.0000000000E+00
                       0.0000000000E+00  0.0000000000E+00  3.0000000000E+00
                       0.0000000000E+00  0.0000000000E+00  3.0000000000E+00
                       0.0000000000E+00  0.0000000000E+00  3.0000000000E+00
           strten      2.3797156816E-02  2.3797156816E-02  2.3797156816E-02
                       0.0000000000E+00  0.0000000000E+00  0.0000000000E+00
           symrel      1  0  0   0  1  0   0  0  1      -1  0  0   0  1  0   0  0 -1
                      -1  0  0   0 -1  0   0  0  1       1  0  0   0 -1  0   0  0 -1
                       0  1  0   1  0  0   0  0  1       0 -1  0   1  0  0   0  0 -1
                       0 -1  0  -1  0  0   0  0  1       0  1  0  -1  0  0   0  0 -1
                       0  0  1   1  0  0   0  1  0       0  0 -1   1  0  0   0 -1  0
                       0  0 -1  -1  0  0   0  1  0       0  0  1  -1  0  0   0 -1  0
                       1  0  0   0  0  1   0  1  0      -1  0  0   0  0  1   0 -1  0
                      -1  0  0   0  0 -1   0  1  0       1  0  0   0  0 -1   0 -1  0
                       0  1  0   0  0  1   1  0  0       0 -1  0   0  0  1  -1  0  0
                       0 -1  0   0  0 -1   1  0  0       0  1  0   0  0 -1  -1  0  0
                       0  0  1   0  1  0   1  0  0       0  0 -1   0  1  0  -1  0  0
                       0  0 -1   0 -1  0   1  0  0       0  0  1   0 -1  0  -1  0  0
            tnons      0.0000000  0.0000000  0.0000000     0.5000000  0.0000000  0.5000000
                       0.5000000  0.5000000  0.0000000     0.0000000  0.5000000  0.5000000
                       0.0000000  0.0000000  0.0000000     0.0000000  0.5000000  0.5000000
                       0.5000000  0.5000000  0.0000000     0.5000000  0.0000000  0.5000000
                       0.0000000  0.0000000  0.0000000     0.0000000  0.5000000  0.5000000
                       0.5000000  0.0000000  0.5000000     0.5000000  0.5000000  0.0000000
                       0.0000000  0.0000000  0.0000000     0.5000000  0.5000000  0.0000000
                       0.5000000  0.0000000  0.5000000     0.0000000  0.5000000  0.5000000
                       0.0000000  0.0000000  0.0000000     0.5000000  0.5000000  0.0000000
                       0.0000000  0.5000000  0.5000000     0.5000000  0.0000000  0.5000000
                       0.0000000  0.0000000  0.0000000     0.5000000  0.0000000  0.5000000
                       0.0000000  0.5000000  0.5000000     0.5000000  0.5000000  0.0000000
           tolvrs      1.00000000E-13
            typat      1  1  1  1
           xangst      3.7042404601E-02  3.7042404601E-02  3.7042404601E-02
                       1.8150778255E+00  1.8150778255E+00  3.7042404601E-02
                       1.8150778255E+00  3.7042404601E-02  1.8150778255E+00
                       3.7042404601E-02  1.8150778255E+00  1.8150778255E+00
            xcart      7.0000000000E-02  7.0000000000E-02  7.0000000000E-02
                       3.4300000000E+00  3.4300000000E+00  7.0000000000E-02
                       3.4300000000E+00  7.0000000000E-02  3.4300000000E+00
                       7.0000000000E-02  3.4300000000E+00  3.4300000000E+00
             xred      1.0000000000E-02  1.0000000000E-02  1.0000000000E-02
                       4.9000000000E-01  4.9000000000E-01  1.0000000000E-02
                       4.9000000000E-01  1.0000000000E-02  4.9000000000E-01
                       1.0000000000E-02  4.9000000000E-01  4.9000000000E-01
            znucl       26.00000

================================================================================


- Timing analysis has been suppressed with timopt=0



================================================================================

 Suggested references for the acknowledgment of ABINIT usage.

 The users of ABINIT have little formal obligations with respect to the ABINIT group
 (those specified in the GNU General Public License, http://www.gnu.org/copyleft/gpl.txt).
 However, it is common practice in the scientific literature,
 to acknowledge the efforts of people that have made the research possible.
 In this spirit, please find below suggested citations of work written by ABINIT developers,
 corresponding to implementations inside of ABINIT that you have used in the present run.
 Note also that it will be of great value to readers of publications presenting these results,
 to read papers enabling them to understand the theoretical formalism and details
 of the ABINIT implementation.
 For information on why they are suggested, see also http://www.abinit.org/about/?text=acknowledgments.

 [1] ABINIT : First-principles approach of materials and nanosystem properties.
 X. Gonze, B. Amadon, P.-M. Anglade, J.-M. Beuken, F. Bottin, P. Boulanger, F. Bruneval,
 D. Caliste, R. Caracas, M. Cote, T. Deutsch, L. Genovese, Ph. Ghosez, M. Giantomassi
 S. Goedecker, D.R. Hamann, P. Hermet, F. Jollet, G. Jomard, S. Leroux, M. Mancini, S. Mazevet,
 M.J.T. Oliveira, G. Onida, Y. Pouillon, T. Rangel, G.-M. Rignanese, D. Sangalli, R. Shaltaf,
 M. Torrent, M.J. Verstraete, G. Zerah, J.W. Zwanziger
 Computer Phys. Comm. 180, 2582-2615 (2009).
 Comment : the third generic paper describing the ABINIT project.
 Note that a version of this paper, that is not formatted for Computer Phys. Comm. 
 is available at http://www.abinit.org/about/ABINIT_CPC_v10.pdf .
 The licence allows the authors to put it on the Web.

 [2] A brief introduction to the ABINIT software package.
 X. Gonze, G.-M. Rignanese, M. Verstraete, J.-M. Beuken, Y. Pouillon, R. Caracas, F. Jollet,
 M. Torrent, G. Zerah, M. Mikami, Ph. Ghosez, M. Veithen, J.-Y. Raty, V. Olevano, F. Bruneval,
 L. Reining, R. Godby, G. Onida, D.R. Hamann, and D.C. Allan.
 Z. Kristallogr. 220, 558-562 (2005).
 Comment : the second generic paper describing the ABINIT project. Note that this paper
 should be cited especially if you are using the GW part of ABINIT, as several authors
 of this part are not in the list of authors of the first or third paper.
 The .pdf of the latter paper is available at http://www.abinit.org/about/zfk_0505-06_558-562.pdf.
 Note that it should not redistributed (Copyright by Oldenburg Wissenshaftverlag,
 the licence allows the authors to put it on the Web).


 And optionally :

 [3] First-principles computation of material properties : the ABINIT software project. 
 X. Gonze, J.-M. Beuken, R. Caracas, F. Detraux, M. Fuchs, G.-M. Rignanese, L. Sindic,
 M. Verstraete, G. Zerah, F. Jollet, M. Torrent, A. Roy, M. Mikami, Ph. Ghosez, J.-Y. Raty, D.C. Allan.
 Computational Materials Science 25, 478-492 (2002). http://dx.doi.org/10.1016/S0927-0256(02)00325-7
 Comment : the original paper describing the ABINIT project.

 [4] Fast radix 2, 3, 4 and 5 kernels for Fast Fourier Transformations
 on computers with overlapping multiply-add instructions.
 S. Goedecker, SIAM J. on Scientific Computing 18, 1605 (1997).

 [5] Towards a potential-based conjugate gradient algorithm for order-N self-consistent
 total energy calculations.
 X. Gonze, Phys. Rev. B 54, 4383 (1996).
 Comment : The potential-based conjugate-gradient algorithm, used when iscf=5, is not published.
 However, many elements of this algorithm have been explained in the paper above.
-
- Proc.   0 individual time (sec): cpu=          9.6  wall=          9.6

================================================================================

 Calculation completed.
.Delivered    1 WARNINGs and   1 COMMENTs to log file.
+Overall time at end (sec) : cpu=          9.6  wall=          9.6
