
.Version 7.10.4 of ABINIT 
.(MPI version, prepared for a x86_64_linux_gnu4.7 computer) 

.Copyright (C) 1998-2014 ABINIT group . 
 ABINIT comes with ABSOLUTELY NO WARRANTY.
 It is free software, and you are welcome to redistribute it
 under certain conditions (GNU General Public License,
 see ~abinit/COPYING or http://www.gnu.org/copyleft/gpl.txt).

 ABINIT is a project of the Universite Catholique de Louvain,
 Corning Inc. and other collaborators, see ~abinit/doc/developers/contributors.txt .
 Please read ~abinit/doc/users/acknowledgments.html for suggested
 acknowledgments of the ABINIT effort.
 For more information, see http://www.abinit.org .

.Starting date : Wed 11 Mar 2015.
- ( at 10h21 )
  
- input  file    -> tgw1_1.in
- output file    -> tgw1_1.out
- root for input  files -> tgw1_1i
- root for output files -> tgw1_1o


 DATASET    1 : space group Fd -3 m (#227); Bravais cF (face-center cubic)
================================================================================
 Values of the parameters that define the memory need for DATASET  1.
   intxc =         0  ionmov =         0    iscf =         5 xclevel =         1
  lmnmax =         2   lnmax =         2   mband =        40  mffmem =         1
P  mgfft =        20   mkmem =        10 mpssoang=         3     mpw =       295
  mqgrid =      3001   natom =         2    nfft =      8000    nkpt =        10
  nloalg =         4  nspden =         1 nspinor =         1  nsppol =         1
    nsym =        24  n1xccc =      2501  ntypat =         1  occopt =         1
================================================================================
P This job should need less than                       4.425 Mbytes of memory.
  Rough estimation (10% accuracy) of disk space for files :
_ WF disk file :      1.803 Mbytes ; DEN or POT disk file :      0.063 Mbytes.
================================================================================


 DATASET    2 : space group Fd -3 m (#227); Bravais cF (face-center cubic)
================================================================================
 Values of the parameters that define the memory need for DATASET  2.
   intxc =         0  ionmov =         0    iscf =         5 xclevel =         1
  lmnmax =         2   lnmax =         2   mband =        17  mffmem =         1
P  mgfft =        10   mkmem =        10 mpssoang=         3     mpw =        42
  mqgrid =      3001   natom =         2    nfft =      1000    nkpt =        10
  nloalg =         4  nspden =         1 nspinor =         1  nsppol =         1
    nsym =        24  n1xccc =      2501  ntypat =         1  occopt =         1
================================================================================
P This job should need less than                       0.963 Mbytes of memory.
  Rough estimation (10% accuracy) of disk space for files :
_ WF disk file :      0.111 Mbytes ; DEN or POT disk file :      0.010 Mbytes.
================================================================================


 DATASET    3 : space group Fd -3 m (#227); Bravais cF (face-center cubic)
================================================================================
 Values of the parameters that define the memory need for DATASET  3.
   intxc =         0  ionmov =         0    iscf =         5 xclevel =         1
  lmnmax =         2   lnmax =         2   mband =        30  mffmem =         1
P  mgfft =        15   mkmem =        10 mpssoang=         3     mpw =       128
  mqgrid =      3001   natom =         2    nfft =      3375    nkpt =        10
  nloalg =         4  nspden =         1 nspinor =         1  nsppol =         1
    nsym =        24  n1xccc =      2501  ntypat =         1  occopt =         1
================================================================================
P This job should need less than                       2.022 Mbytes of memory.
  Rough estimation (10% accuracy) of disk space for files :
_ WF disk file :      0.588 Mbytes ; DEN or POT disk file :      0.028 Mbytes.
================================================================================

--------------------------------------------------------------------------------
------------- Echo of variables that govern the present computation ------------
--------------------------------------------------------------------------------
-
- outvars: echo of selected default values                                      
-   accesswff0 =  0 , fftalg0 =112 , wfoptalg0 =  0
-
- outvars: echo of global parameters not present in the input file              
-  max_nthreads =    0
-
 -outvars: echo values of preprocessed input variables --------
            acell      1.0217000000E+01  1.0217000000E+01  1.0217000000E+01 Bohr
              amu      2.80855000E+01
             awtr1          1
             awtr2          0
             awtr3          1
             bdgw3          4       5
           diemac      1.20000000E+01
             ecut1     8.00000000E+00 Hartree
             ecut2     2.08005893E+00 Hartree
             ecut3     4.53831040E+00 Hartree
          ecuteps1     0.00000000E+00 Hartree
          ecuteps2     3.59282906E+00 Hartree
          ecuteps3     0.00000000E+00 Hartree
         ecutsigx1     0.00000000E+00 Hartree
         ecutsigx2     0.00000000E+00 Hartree
         ecutsigx3     5.10559920E+00 Hartree
          ecutwfn1     0.00000000E+00 Hartree
          ecutwfn2     2.08005893E+00 Hartree
          ecutwfn3     4.53831040E+00 Hartree
-          fftalg         112
           getkss1          0
           getkss2         -1
           getkss3         -2
           getscr1          0
           getscr2          0
           getscr3         -1
         icutcoul1          6
         icutcoul2          6
         icutcoul3          3
             iscf           5
           jdtset        1    2    3
              kpt     -1.25000000E-01 -2.50000000E-01  0.00000000E+00
                      -1.25000000E-01  5.00000000E-01  0.00000000E+00
                      -2.50000000E-01 -3.75000000E-01  0.00000000E+00
                      -1.25000000E-01 -3.75000000E-01  1.25000000E-01
                      -1.25000000E-01  2.50000000E-01  0.00000000E+00
                      -2.50000000E-01  3.75000000E-01  0.00000000E+00
                      -3.75000000E-01  5.00000000E-01  0.00000000E+00
                      -2.50000000E-01  5.00000000E-01  1.25000000E-01
                      -1.25000000E-01  0.00000000E+00  0.00000000E+00
                      -3.75000000E-01  0.00000000E+00  0.00000000E+00
            kptgw3    -1.25000000E-01  0.00000000E+00  0.00000000E+00
         kptrlatt        4   -4    4     -4    4    4     -4   -4    4
          kptrlen      4.08680000E+01
          kssform1          3
          kssform2          1
          kssform3          1
P           mkmem          10
            natom           2
            nband1         40
            nband2         17
            nband3         30
         nbandkss1         35
         nbandkss2          0
         nbandkss3          0
           nbdbuf1          5
           nbdbuf2          0
           nbdbuf3          0
           ndtset           3
            ngfft1         20      20      20
            ngfft2         10      10      10
            ngfft3         15      15      15
             nkpt          10
           nkptgw1          0
           nkptgw2          0
           nkptgw3          1
           npweps1          0
           npweps2         89
           npweps3          0
          npwsigx1          0
          npwsigx2          0
          npwsigx3        169
           npwwfn1          0
           npwwfn2         51
           npwwfn3        137
           nsheps1          0
           nsheps2         12
           nsheps3          0
          nshsigx1          0
          nshsigx2          0
          nshsigx3         19
            nstep          20
             nsym          24
           ntypat           1
              occ1     2.000000  2.000000  2.000000  2.000000  0.000000  0.000000
                       0.000000  0.000000  0.000000  0.000000  0.000000  0.000000
                       0.000000  0.000000  0.000000  0.000000  0.000000  0.000000
                       0.000000  0.000000  0.000000  0.000000  0.000000  0.000000
                       0.000000  0.000000  0.000000  0.000000  0.000000  0.000000
                       0.000000  0.000000  0.000000  0.000000  0.000000  0.000000
                       0.000000  0.000000  0.000000  0.000000
              occ2     2.000000  2.000000  2.000000  2.000000  0.000000  0.000000
                       0.000000  0.000000  0.000000  0.000000  0.000000  0.000000
                       0.000000  0.000000  0.000000  0.000000  0.000000
              occ3     2.000000  2.000000  2.000000  2.000000  0.000000  0.000000
                       0.000000  0.000000  0.000000  0.000000  0.000000  0.000000
                       0.000000  0.000000  0.000000  0.000000  0.000000  0.000000
                       0.000000  0.000000  0.000000  0.000000  0.000000  0.000000
                       0.000000  0.000000  0.000000  0.000000  0.000000  0.000000
        optdriver1          0
        optdriver2          3
        optdriver3          4
           ppmfrq1     0.00000000E+00 Hartree
           ppmfrq2     6.13713734E-01 Hartree
           ppmfrq3     0.00000000E+00 Hartree
            rprim      0.0000000000E+00  5.0000000000E-01  5.0000000000E-01
                       5.0000000000E-01  0.0000000000E+00  5.0000000000E-01
                       5.0000000000E-01  5.0000000000E-01  0.0000000000E+00
           shiftk      5.00000000E-01  5.00000000E-01  5.00000000E-01
          spgroup         227
        symmorphi           0
           symrel      1  0  0   0  1  0   0  0  1       0 -1  1   0 -1  0   1 -1  0
                      -1  0  0  -1  0  1  -1  1  0       0  1 -1   1  0 -1   0  0 -1
                      -1  0  0  -1  1  0  -1  0  1       0 -1  1   1 -1  0   0 -1  0
                       1  0  0   0  0  1   0  1  0       0  1 -1   0  0 -1   1  0 -1
                      -1  0  1  -1  1  0  -1  0  0       0 -1  0   1 -1  0   0 -1  1
                       1  0 -1   0  0 -1   0  1 -1       0  1  0   0  0  1   1  0  0
                       1  0 -1   0  1 -1   0  0 -1       0 -1  0   0 -1  1   1 -1  0
                      -1  0  1  -1  0  0  -1  1  0       0  1  0   1  0  0   0  0  1
                       0  0 -1   0  1 -1   1  0 -1       1 -1  0   0 -1  1   0 -1  0
                       0  0  1   1  0  0   0  1  0      -1  1  0  -1  0  0  -1  0  1
                       0  0  1   0  1  0   1  0  0       1 -1  0   0 -1  0   0 -1  1
                       0  0 -1   1  0 -1   0  1 -1      -1  1  0  -1  0  1  -1  0  0
           tolwfr1     1.00000000E-18
           tolwfr2     0.00000000E+00
           tolwfr3     0.00000000E+00
            typat      1  1
              wtk        0.09375    0.09375    0.09375    0.18750    0.09375    0.09375
                         0.09375    0.18750    0.03125    0.03125
           xangst      0.0000000000E+00  0.0000000000E+00  0.0000000000E+00
                       1.3516508850E+00  1.3516508850E+00  1.3516508850E+00
            xcart      0.0000000000E+00  0.0000000000E+00  0.0000000000E+00
                       2.5542500000E+00  2.5542500000E+00  2.5542500000E+00
             xred      0.0000000000E+00  0.0000000000E+00  0.0000000000E+00
                       2.5000000000E-01  2.5000000000E-01  2.5000000000E-01
            znucl       14.00000

================================================================================

 chkinp: Checking input parameters for consistency, jdtset=   1.

 chkinp: Checking input parameters for consistency, jdtset=   2.

 chkinp: Checking input parameters for consistency, jdtset=   3.

================================================================================
== DATASET  1 ==================================================================
-   nproc =    1

 Exchange-correlation functional for the present dataset will be:
  LDA: new Teter (4/93) with spin-polarized option - ixc=1
 Citation for XC functional:
  S. Goedecker, M. Teter, J. Huetter, PRB 54, 1703 (1996)

 Real(R)+Recip(G) space primitive vectors, cartesian coordinates (Bohr,Bohr^-1):
 R(1)=  0.0000000  5.1085000  5.1085000  G(1)= -0.0978761  0.0978761  0.0978761
 R(2)=  5.1085000  0.0000000  5.1085000  G(2)=  0.0978761 -0.0978761  0.0978761
 R(3)=  5.1085000  5.1085000  0.0000000  G(3)=  0.0978761  0.0978761 -0.0978761
 Unit cell volume ucvol=  2.6663072E+02 bohr^3
 Angles (23,13,12)=  6.00000000E+01  6.00000000E+01  6.00000000E+01 degrees

 getcut: wavevector=  0.0000  0.0000  0.0000  ngfft=  20  20  20
         ecut(hartree)=      8.000   => boxcut(ratio)=   2.17426

--- Pseudopotential description ------------------------------------------------
- pspini: atom type   1  psp file is /home/gonze/ABINIT/ABINITv7.10.4/trunk/7.10.4-private/tests/Psps_for_tests/14si.pspnc
- pspatm: opening atomic psp file    /home/gonze/ABINIT/ABINITv7.10.4/trunk/7.10.4-private/tests/Psps_for_tests/14si.pspnc
-  Troullier-Martins psp for element  Si        Thu Oct 27 17:31:21 EDT 1994
- 14.00000   4.00000    940714                znucl, zion, pspdat
    1    1    2    2      2001   0.00000      pspcod,pspxc,lmax,lloc,mmax,r2well
    0   5.907  14.692    1   2.0872718        l,e99.0,e99.9,nproj,rcpsp
   0.00000000   0.00000000   0.00000000   0.00000000     rms, ekb1, ekb2, epsatm
    1   2.617   4.181    1   2.0872718        l,e99.0,e99.9,nproj,rcpsp
   0.00000000   0.00000000   0.00000000   0.00000000     rms, ekb1, ekb2, epsatm
    2   0.000   0.000    0   2.0872718        l,e99.0,e99.9,nproj,rcpsp
   0.00000000   0.00000000   0.00000000   0.00000000     rms, ekb1, ekb2, epsatm
    1.80626423934776    0.22824404341771    1.17378968127746   rchrg,fchrg,qchrg
 pspatm: epsatm=    1.43386982
         --- l  ekb(1:nproj) -->
             0    3.287949
             1    1.849886
 pspatm: atomic psp has been read  and splines computed

   2.29419171E+01                                ecore*ucvol(ha*bohr**3)
--------------------------------------------------------------------------------

P newkpt: treating     40 bands with npw=     295 for ikpt=   1 by node    0
P newkpt: treating     40 bands with npw=     283 for ikpt=   2 by node    0
P newkpt: treating     40 bands with npw=     292 for ikpt=   3 by node    0
P newkpt: treating     40 bands with npw=     289 for ikpt=   4 by node    0
P newkpt: treating     40 bands with npw=     292 for ikpt=   5 by node    0
P newkpt: treating     40 bands with npw=     286 for ikpt=   6 by node    0
P newkpt: treating     40 bands with npw=     291 for ikpt=   7 by node    0
P newkpt: treating     40 bands with npw=     286 for ikpt=   8 by node    0
P newkpt: treating     40 bands with npw=     295 for ikpt=   9 by node    0
P newkpt: treating     40 bands with npw=     287 for ikpt=  10 by node    0

_setup2: Arith. and geom. avg. npw (full set) are     289.031     289.009

================================================================================

     iter   Etot(hartree)      deltaE(h)  residm     vres2
 ETOT  1  -8.8676394764192    -8.868E+00 3.984E-03 5.836E+00
 ETOT  2  -8.8724875609554    -4.848E-03 7.034E-06 1.449E-01
 ETOT  3  -8.8725416536139    -5.409E-05 3.918E-06 4.356E-02
 ETOT  4  -8.8725555626570    -1.391E-05 2.042E-06 4.404E-03
 ETOT  5  -8.8725568679797    -1.305E-06 2.689E-07 5.111E-04
 ETOT  6  -8.8725570672899    -1.993E-07 8.150E-08 1.737E-05
 ETOT  7  -8.8725570746037    -7.314E-09 1.914E-09 8.852E-08
 ETOT  8  -8.8725570746449    -4.122E-11 5.712E-12 1.041E-08
 ETOT  9  -8.8725570746502    -5.356E-12 3.531E-13 1.062E-08
 ETOT 10  -8.8725570746532    -2.974E-12 6.484E-13 9.357E-10
 ETOT 11  -8.8725570746535    -2.913E-13 9.702E-14 2.742E-12
 ETOT 12  -8.8725570746536    -7.461E-14 1.839E-16 2.294E-13
 ETOT 13  -8.8725570746536    -3.020E-14 4.440E-18 2.738E-13
 ETOT 14  -8.8725570746535     4.974E-14 1.530E-17 2.064E-14
 ETOT 15  -8.8725570746536    -1.954E-14 1.812E-18 4.149E-17
 ETOT 16  -8.8725570746536     1.066E-14 8.934E-19 4.941E-17

 At SCF step   16   max residual=  8.93E-19 < tolwfr=  1.00E-18 =>converged.

 Cartesian components of stress tensor (hartree/bohr^3)
  sigma(1 1)=  3.02339301E-05  sigma(3 2)=  0.00000000E+00
  sigma(2 2)=  3.02339301E-05  sigma(3 1)=  0.00000000E+00
  sigma(3 3)=  3.02339301E-05  sigma(2 1)=  0.00000000E+00


======================================================================
 Calculating and writing out Kohn-Sham electronic Structure file
 Using conjugate gradient wavefunctions and energies (kssform=3)
 number of Gamma centered plane waves    471
 number of Gamma centered shells     40
 number of bands     35
 maximum angular momentum components      3
 Conjugate gradient eigenvalues
   k    eigenvalues [Hartree]
   1     -0.1991  0.0975  0.1677  0.1705  0.2939  0.3520  0.3815  0.3905  0.4912
          0.5231  0.5786  0.6390  0.7015  0.7482  0.8676  0.8817  0.9225  1.0101
          1.0185  1.0663  1.1816  1.2171  1.2623  1.3114  1.3780  1.3975  1.3991
          1.4388  1.4579  1.4896  1.5278  1.5472  1.6190  1.6300  1.6371
   2     -0.1362 -0.0341  0.1318  0.1588  0.2956  0.3449  0.3676  0.4869  0.5450
          0.6088  0.6388  0.6489  0.6732  0.7690  0.8892  0.9449  0.9631  0.9982
          1.0339  1.0440  1.1249  1.1708  1.1931  1.2355  1.2542  1.3045  1.3193
          1.3240  1.4227  1.4520  1.4660  1.4779  1.5769  1.5991  1.6361
   3     -0.1599  0.0345  0.1168  0.1344  0.2636  0.3210  0.4371  0.4484  0.5875
          0.5902  0.6421  0.7084  0.7190  0.7639  0.8017  0.8446  0.8998  0.9433
          1.0259  1.1075  1.1434  1.1899  1.1935  1.2215  1.2792  1.3002  1.3371
          1.4333  1.4551  1.5205  1.5496  1.5712  1.5887  1.5892  1.6691
   4     -0.1439  0.0005  0.0925  0.1447  0.3209  0.3463  0.4003  0.4357  0.5501
          0.5739  0.6565  0.6929  0.7397  0.7738  0.8532  0.8891  0.9210  0.9922
          1.0234  1.0583  1.1102  1.1610  1.1720  1.2154  1.2770  1.3085  1.3684
          1.3737  1.4107  1.4436  1.4890  1.5385  1.5612  1.6518  1.6627
   5     -0.1801  0.0453  0.1303  0.1883  0.3151  0.3516  0.3578  0.4460  0.4574
          0.5730  0.5890  0.6707  0.7342  0.7828  0.8266  0.8790  0.9133  1.0109
          1.0332  1.0640  1.1786  1.1986  1.2150  1.3059  1.3091  1.3512  1.3688
          1.4057  1.4484  1.4889  1.4961  1.5940  1.5945  1.6362  1.6412
   6     -0.1174 -0.0293  0.0672  0.1466  0.2819  0.4169  0.4190  0.4723  0.5093
          0.5141  0.6765  0.7668  0.7693  0.8081  0.8221  0.9007  0.9331  0.9519
          1.0207  1.0340  1.1320  1.1433  1.1700  1.1894  1.2368  1.2669  1.2961
          1.3248  1.4478  1.4807  1.5140  1.5355  1.5703  1.6148  1.6161
   7     -0.1039 -0.0355  0.0880  0.1167  0.2462  0.2866  0.5220  0.5234  0.6124
          0.6189  0.6769  0.6844  0.7628  0.7748  0.8025  0.9037  0.9067  0.9312
          0.9793  1.0397  1.0470  1.0835  1.1062  1.1765  1.2989  1.3223  1.3890
          1.4172  1.4411  1.4826  1.5404  1.5413  1.5908  1.6503  1.6586
   8     -0.0971 -0.0394  0.0644  0.1059  0.3024  0.3730  0.4102  0.4901  0.5274
          0.6273  0.6673  0.7400  0.7845  0.8071  0.8628  0.8899  0.9089  0.9349
          0.9918  1.0191  1.0562  1.1091  1.1337  1.2335  1.2464  1.2762  1.3472
          1.3635  1.3995  1.4163  1.4797  1.5618  1.6334  1.6585  1.6866
   9     -0.2192  0.1575  0.2064  0.2064  0.3071  0.3263  0.3263  0.3869  0.4877
          0.4877  0.5293  0.6062  0.6737  0.6737  0.8192  0.9978  0.9978  1.0028
          1.1047  1.1047  1.1771  1.1771  1.2103  1.3117  1.3853  1.3853  1.4154
          1.4956  1.4956  1.5392  1.5850  1.5850  1.6475  1.6475  1.7049
  10     -0.1634 -0.0043  0.1766  0.1766  0.2760  0.3434  0.3434  0.5005  0.5362
          0.5362  0.5666  0.7262  0.7284  0.7284  0.8279  0.9020  0.9020  1.0553
          1.0965  1.1084  1.1084  1.2031  1.2031  1.2634  1.2634  1.3006  1.3581
          1.4197  1.4197  1.4579  1.4579  1.4682  1.5604  1.5997  1.7303
 Test on the normalization of the wavefunctions
  min sum_G |a(n,k,G)| =  1.000000
  max sum_G |a(n,k,G)| =  1.000000
 Test on the orthogonalization of the wavefunctions
  min sum_G a(n,k,G)a(n',k,G) =  0.000000
  max sum_G a(n,k,G)a(n',k,G) =  0.000000

================================================================================

 ----iterations are completed or convergence reached----

 Mean square residual over all n,k,spin=   1.3071E-08; max=  1.0500E-06
  -0.1250 -0.2500  0.0000    1  5.90113E-07 kpt; spin; max resid(k); each band:
  1.03E-19 1.52E-19 1.91E-19 1.68E-19 1.46E-20 2.39E-19 2.61E-19 1.67E-20
  2.52E-19 3.59E-19 2.66E-20 2.72E-20 2.62E-20 3.19E-20 2.20E-20 2.22E-20
  3.37E-20 3.33E-20 4.18E-19 3.69E-20 4.14E-20 5.86E-19 5.94E-20 2.03E-20
  1.44E-19 4.77E-19 1.14E-19 1.11E-19 1.39E-19 8.22E-19 8.30E-19 8.36E-20
  2.60E-19 7.69E-20 8.93E-19 1.62E-19 1.12E-19 6.17E-19 2.63E-13 5.90E-07
  -0.1250  0.5000  0.0000    1  1.97205E-10 kpt; spin; max resid(k); each band:
  1.39E-19 1.38E-19 1.96E-19 1.91E-19 1.46E-20 2.12E-20 3.03E-19 1.87E-20
  2.59E-20 3.83E-19 1.95E-20 3.44E-19 2.25E-20 2.34E-20 2.04E-20 3.16E-20
  2.11E-20 3.10E-20 4.89E-19 3.34E-20 3.54E-20 3.24E-20 3.04E-20 5.31E-19
  6.30E-20 8.03E-20 8.76E-20 1.28E-19 1.22E-19 4.22E-19 1.38E-19 9.50E-20
  1.26E-19 8.13E-20 7.15E-20 1.87E-19 9.80E-20 4.50E-19 8.22E-15 1.97E-10
  -0.2500 -0.3750  0.0000    1  4.75439E-12 kpt; spin; max resid(k); each band:
  1.19E-19 1.67E-19 1.91E-19 1.88E-19 1.81E-20 1.86E-20 2.57E-19 2.71E-19
  2.55E-19 3.26E-19 2.53E-20 3.58E-19 2.95E-20 2.89E-20 2.93E-20 2.28E-20
  4.65E-19 5.06E-19 4.23E-20 2.31E-20 2.07E-20 2.12E-20 5.08E-20 8.22E-20
  6.64E-20 3.59E-20 8.42E-20 8.51E-19 6.56E-20 6.81E-20 1.14E-19 6.90E-20
  9.61E-20 6.79E-20 1.36E-19 2.65E-19 1.45E-19 7.99E-20 4.75E-19 4.75E-12
  -0.1250 -0.3750  0.1250    1  3.03131E-09 kpt; spin; max resid(k); each band:
  1.20E-19 1.51E-19 2.03E-19 2.06E-19 1.53E-20 2.25E-20 2.34E-20 2.63E-19
  3.63E-19 1.87E-20 2.34E-20 2.92E-19 2.11E-20 1.77E-20 1.97E-20 4.51E-19
  4.56E-19 3.71E-20 2.95E-20 4.22E-20 5.58E-19 6.19E-20 2.32E-20 3.99E-20
  7.42E-20 6.67E-20 1.14E-19 9.46E-20 9.41E-20 9.09E-20 8.39E-20 8.06E-20
  7.65E-20 8.95E-20 1.27E-19 8.35E-20 1.05E-19 2.34E-19 8.92E-19 3.03E-09
  -0.1250  0.2500  0.0000    1  1.76787E-11 kpt; spin; max resid(k); each band:
  1.03E-19 1.51E-19 2.01E-19 1.63E-19 2.46E-19 2.99E-19 1.42E-20 1.76E-20
  2.13E-20 2.57E-20 2.96E-19 2.67E-20 2.70E-20 2.88E-20 4.86E-19 3.06E-20
  2.67E-20 3.16E-20 5.29E-19 2.56E-20 3.10E-20 5.84E-19 1.92E-20 3.82E-20
  1.42E-19 1.21E-19 4.85E-20 9.48E-20 5.36E-19 1.81E-19 1.34E-19 9.62E-20
  8.22E-19 3.03E-20 8.63E-19 2.63E-19 2.54E-19 2.58E-19 2.40E-19 1.77E-11
  -0.2500  0.3750  0.0000    1  6.56871E-12 kpt; spin; max resid(k); each band:
  1.57E-19 1.63E-19 1.72E-20 2.03E-19 1.77E-20 1.62E-20 2.97E-19 2.05E-20
  1.54E-20 4.02E-19 2.56E-20 1.69E-20 3.08E-19 1.67E-20 2.26E-20 2.85E-19
  2.81E-20 2.54E-20 2.88E-20 4.52E-20 5.36E-20 4.59E-20 8.42E-19 6.29E-20
  2.37E-20 2.86E-20 5.87E-19 8.48E-20 7.08E-20 1.43E-19 1.06E-19 1.02E-19
  1.01E-19 5.02E-19 2.43E-19 1.15E-19 3.51E-19 5.15E-19 6.61E-18 6.57E-12
  -0.3750  0.5000  0.0000    1  8.71192E-18 kpt; spin; max resid(k); each band:
  1.71E-19 1.69E-19 2.09E-19 1.86E-19 2.02E-20 1.86E-20 2.91E-19 2.81E-19
  1.95E-20 3.53E-19 3.08E-19 2.28E-20 1.92E-20 3.25E-19 2.76E-20 3.15E-20
  2.44E-20 2.52E-20 3.73E-20 4.00E-20 2.00E-20 3.19E-20 5.58E-20 4.46E-20
  5.87E-19 5.75E-20 5.59E-20 7.28E-20 6.18E-20 6.37E-20 1.09E-19 9.14E-20
  3.08E-20 5.80E-20 9.76E-20 9.11E-20 9.96E-20 1.92E-19 4.66E-19 8.71E-18
  -0.2500  0.5000  0.1250    1  1.05004E-06 kpt; spin; max resid(k); each band:
  1.63E-19 1.72E-19 1.87E-20 2.38E-19 1.76E-20 1.80E-20 3.19E-19 1.77E-20
  3.11E-19 3.42E-19 3.95E-19 2.67E-20 4.05E-19 3.78E-19 2.85E-20 2.07E-20
  3.92E-19 4.56E-19 5.11E-20 2.50E-20 2.95E-20 6.36E-20 4.46E-20 7.91E-20
  5.16E-20 4.59E-20 5.80E-20 5.27E-20 8.04E-20 1.93E-20 7.08E-20 8.16E-20
  7.15E-20 1.03E-19 3.18E-20 2.37E-19 2.17E-19 2.07E-19 3.20E-19 1.05E-06
  -0.1250  0.0000  0.0000    1  3.58485E-06 kpt; spin; max resid(k); each band:
  8.69E-20 1.68E-19 1.57E-19 1.57E-19 2.11E-19 2.43E-19 2.67E-19 1.82E-19
  3.52E-19 3.48E-19 2.60E-20 5.07E-20 2.60E-20 2.52E-20 6.00E-20 2.51E-20
  2.68E-20 4.28E-20 3.86E-19 3.81E-19 3.99E-20 4.41E-20 7.29E-20 3.45E-19
  5.17E-19 5.19E-19 2.21E-20 1.94E-19 2.20E-19 2.92E-20 6.92E-20 6.76E-20
  9.69E-20 9.55E-20 2.26E-19 3.01E-19 3.62E-19 2.03E-19 7.45E-19 3.58E-06
  -0.3750  0.0000  0.0000    1  6.28822E-11 kpt; spin; max resid(k); each band:
  1.22E-19 1.51E-19 1.73E-19 1.73E-19 1.41E-20 3.14E-19 3.14E-19 2.95E-20
  3.85E-19 3.85E-19 1.99E-20 2.30E-20 3.56E-19 3.56E-19 2.88E-20 2.72E-20
  2.72E-20 3.31E-20 2.00E-20 4.70E-19 4.70E-19 5.28E-19 5.28E-19 8.85E-19
  8.85E-19 2.16E-20 1.70E-19 1.95E-19 1.95E-19 8.48E-20 8.48E-20 9.21E-20
  3.37E-20 8.61E-19 2.10E-19 2.85E-19 5.62E-17 8.15E-16 5.14E-15 6.29E-11
 reduced coordinates (array xred) for    2 atoms
       0.000000000000      0.000000000000      0.000000000000
       0.250000000000      0.250000000000      0.250000000000
 rms dE/dt=  0.0000E+00; max dE/dt=  0.0000E+00; dE/dt below (all hartree)
    1       0.000000000000      0.000000000000      0.000000000000
    2       0.000000000000      0.000000000000      0.000000000000

 cartesian coordinates (angstrom) at end:
    1      0.00000000000000     0.00000000000000     0.00000000000000
    2      1.35165088504101     1.35165088504101     1.35165088504101

 cartesian forces (hartree/bohr) at end:
    1     -0.00000000000000    -0.00000000000000    -0.00000000000000
    2     -0.00000000000000    -0.00000000000000    -0.00000000000000
 frms,max,avg= 0.0000000E+00 0.0000000E+00   0.000E+00  0.000E+00  0.000E+00 h/b

 cartesian forces (eV/Angstrom) at end:
    1     -0.00000000000000    -0.00000000000000    -0.00000000000000
    2     -0.00000000000000    -0.00000000000000    -0.00000000000000
 frms,max,avg= 0.0000000E+00 0.0000000E+00   0.000E+00  0.000E+00  0.000E+00 e/A
 length scales= 10.217000000000 10.217000000000 10.217000000000 bohr
              =  5.406603540164  5.406603540164  5.406603540164 angstroms
 prteigrs : about to open file tgw1_1o_DS1_EIG
 Fermi (or HOMO) energy (hartree) =   0.20639   Average Vxc (hartree)=  -0.35452
 Eigenvalues (hartree) for nkpt=  10  k points:
 kpt#   1, nband= 40, wtk=  0.09375, kpt= -0.1250 -0.2500  0.0000 (reduced coord)
  -0.19910   0.09746   0.16768   0.17054   0.29392   0.35200   0.38147   0.39054
   0.49123   0.52314   0.57863   0.63895   0.70153   0.74820   0.86760   0.88168
   0.92245   1.01008   1.01854   1.06635   1.18157   1.21714   1.26226   1.31144
   1.37799   1.39746   1.39906   1.43884   1.45789   1.48964   1.52779   1.54720
   1.61900   1.62998   1.63707   1.70663   1.70693   1.74181   1.78226   1.81093
 kpt#   2, nband= 40, wtk=  0.09375, kpt= -0.1250  0.5000  0.0000 (reduced coord)
  -0.13615  -0.03410   0.13177   0.15876   0.29555   0.34492   0.36760   0.48692
   0.54497   0.60878   0.63875   0.64894   0.67317   0.76904   0.88925   0.94494
   0.96314   0.99817   1.03393   1.04402   1.12492   1.17080   1.19312   1.23553
   1.25415   1.30450   1.31934   1.32396   1.42268   1.45201   1.46605   1.47787
   1.57689   1.59909   1.63606   1.69088   1.73916   1.81170   1.85926   1.88350
 kpt#   3, nband= 40, wtk=  0.09375, kpt= -0.2500 -0.3750  0.0000 (reduced coord)
  -0.15990   0.03449   0.11681   0.13442   0.26364   0.32100   0.43711   0.44836
   0.58749   0.59017   0.64208   0.70844   0.71901   0.76391   0.80166   0.84456
   0.89978   0.94330   1.02586   1.10748   1.14338   1.18989   1.19353   1.22148
   1.27918   1.30021   1.33709   1.43330   1.45514   1.52048   1.54960   1.57119
   1.58869   1.58924   1.66906   1.68618   1.71709   1.75882   1.78072   1.83931
 kpt#   4, nband= 40, wtk=  0.18750, kpt= -0.1250 -0.3750  0.1250 (reduced coord)
  -0.14389   0.00051   0.09248   0.14469   0.32094   0.34626   0.40031   0.43566
   0.55012   0.57387   0.65646   0.69286   0.73975   0.77382   0.85316   0.88906
   0.92097   0.99221   1.02338   1.05833   1.11016   1.16099   1.17196   1.21535
   1.27696   1.30850   1.36839   1.37371   1.41072   1.44362   1.48901   1.53849
   1.56123   1.65177   1.66265   1.71593   1.73696   1.76499   1.79326   1.85040
 kpt#   5, nband= 40, wtk=  0.09375, kpt= -0.1250  0.2500  0.0000 (reduced coord)
  -0.18008   0.04529   0.13033   0.18831   0.31515   0.35160   0.35784   0.44598
   0.45736   0.57302   0.58900   0.67067   0.73416   0.78283   0.82661   0.87902
   0.91325   1.01091   1.03321   1.06397   1.17862   1.19857   1.21503   1.30592
   1.30906   1.35120   1.36880   1.40571   1.44835   1.48890   1.49614   1.59404
   1.59451   1.63622   1.64115   1.65553   1.68100   1.69932   1.75378   1.79769
 kpt#   6, nband= 40, wtk=  0.09375, kpt= -0.2500  0.3750  0.0000 (reduced coord)
  -0.11740  -0.02927   0.06716   0.14656   0.28192   0.41693   0.41901   0.47226
   0.50928   0.51408   0.67651   0.76682   0.76932   0.80807   0.82209   0.90072
   0.93308   0.95187   1.02069   1.03397   1.13197   1.14333   1.16995   1.18942
   1.23684   1.26694   1.29614   1.32482   1.44781   1.48074   1.51401   1.53555
   1.57032   1.61480   1.61614   1.69362   1.79006   1.79361   1.83439   1.87234
 kpt#   7, nband= 40, wtk=  0.09375, kpt= -0.3750  0.5000  0.0000 (reduced coord)
  -0.10393  -0.03546   0.08802   0.11675   0.24618   0.28658   0.52200   0.52344
   0.61238   0.61892   0.67694   0.68439   0.76283   0.77479   0.80246   0.90371
   0.90665   0.93121   0.97934   1.03966   1.04703   1.08347   1.10615   1.17647
   1.29895   1.32229   1.38902   1.41717   1.44106   1.48265   1.54044   1.54132
   1.59076   1.65033   1.65864   1.67451   1.71449   1.77891   1.79598   1.81045
 kpt#   8, nband= 40, wtk=  0.18750, kpt= -0.2500  0.5000  0.1250 (reduced coord)
  -0.09712  -0.03937   0.06437   0.10586   0.30237   0.37302   0.41015   0.49010
   0.52739   0.62732   0.66731   0.73998   0.78451   0.80713   0.86285   0.88986
   0.90889   0.93488   0.99181   1.01909   1.05624   1.10909   1.13371   1.23354
   1.24643   1.27625   1.34720   1.36355   1.39954   1.41633   1.47975   1.56182
   1.63337   1.65849   1.68657   1.73611   1.76497   1.78445   1.80142   1.87920
 kpt#   9, nband= 40, wtk=  0.03125, kpt= -0.1250  0.0000  0.0000 (reduced coord)
  -0.21917   0.15754   0.20639   0.20639   0.30711   0.32625   0.32625   0.38695
   0.48775   0.48775   0.52928   0.60622   0.67374   0.67374   0.81921   0.99777
   0.99777   1.00277   1.10473   1.10473   1.17712   1.17712   1.21033   1.31175
   1.38528   1.38528   1.41536   1.49559   1.49559   1.53916   1.58502   1.58502
   1.64752   1.64752   1.70486   1.74903   1.74903   1.76307   1.78385   1.84649
 kpt#  10, nband= 40, wtk=  0.03125, kpt= -0.3750  0.0000  0.0000 (reduced coord)
  -0.16342  -0.00429   0.17658   0.17658   0.27595   0.34341   0.34341   0.50049
   0.53621   0.53621   0.56659   0.72623   0.72841   0.72841   0.82786   0.90196
   0.90196   1.05529   1.09646   1.10837   1.10837   1.20310   1.20310   1.26337
   1.26337   1.30061   1.35807   1.41971   1.41971   1.45794   1.45794   1.46824
   1.56042   1.59966   1.73031   1.73031   1.75778   1.76757   1.76757   1.78909
 Total charge density [el/Bohr^3]
,     Maximum=    8.5805E-02  at reduced coord.    0.1000    0.1000    0.7000
,Next maximum=    8.5805E-02  at reduced coord.    0.1000    0.7000    0.1000
,     Minimum=    3.5223E-03  at reduced coord.    0.5000    0.5000    0.5000
,Next minimum=    3.5223E-03  at reduced coord.    0.7500    0.7500    0.7500
,  Integrated=    8.0000E+00

--------------------------------------------------------------------------------
 Components of total free energy (in Hartree) :

    Kinetic energy  =  3.02548295019462E+00
    Hartree energy  =  5.38001990533071E-01
    XC energy       = -3.53865860089048E+00
    Ewald energy    = -8.43581958561899E+00
    PspCore energy  =  8.60437873148613E-02
    Loc. psp. energy= -2.43059793812107E+00
    NL   psp  energy=  1.88299032193443E+00
    >>>>>>>>> Etotal= -8.87255707465356E+00

 Other information on the energy :
    Total energy(eV)= -2.41434556378157E+02 ; Band energy (Ha)=   2.3116505057E-01
--------------------------------------------------------------------------------

 Cartesian components of stress tensor (hartree/bohr^3)
  sigma(1 1)=  3.02339301E-05  sigma(3 2)=  0.00000000E+00
  sigma(2 2)=  3.02339301E-05  sigma(3 1)=  0.00000000E+00
  sigma(3 3)=  3.02339301E-05  sigma(2 1)=  0.00000000E+00

-Cartesian components of stress tensor (GPa)         [Pressure= -8.8951E-01 GPa]
- sigma(1 1)=  8.89512785E-01  sigma(3 2)=  0.00000000E+00
- sigma(2 2)=  8.89512785E-01  sigma(3 1)=  0.00000000E+00
- sigma(3 3)=  8.89512785E-01  sigma(2 1)=  0.00000000E+00

================================================================================
== DATASET  2 ==================================================================
-   nproc =    1

 mkfilename : getkss/=0, take file _KSS from output of DATASET   1.

 Exchange-correlation functional for the present dataset will be:
  LDA: new Teter (4/93) with spin-polarized option - ixc=1
 Citation for XC functional:
  S. Goedecker, M. Teter, J. Huetter, PRB 54, 1703 (1996)

 SCREENING: Calculation of the susceptibility and dielectric matrices 

 Based on a program developped by R.W. Godby, V. Olevano, G. Onida, and L. Reining.
 Incorporated in ABINIT by V. Olevano, G.-M. Rignanese, and M. Torrent.
.Using double precision arithmetic ; gwpc =  8

 Real(R)+Recip(G) space primitive vectors, cartesian coordinates (Bohr,Bohr^-1):
 R(1)=  0.0000000  5.1085000  5.1085000  G(1)= -0.0978761  0.0978761  0.0978761
 R(2)=  5.1085000  0.0000000  5.1085000  G(2)=  0.0978761 -0.0978761  0.0978761
 R(3)=  5.1085000  5.1085000  0.0000000  G(3)=  0.0978761  0.0978761 -0.0978761
 Unit cell volume ucvol=  2.6663072E+02 bohr^3
 Angles (23,13,12)=  6.00000000E+01  6.00000000E+01  6.00000000E+01 degrees

--- Pseudopotential description ------------------------------------------------
- pspini: atom type   1  psp file is /home/gonze/ABINIT/ABINITv7.10.4/trunk/7.10.4-private/tests/Psps_for_tests/14si.pspnc
- pspatm: opening atomic psp file    /home/gonze/ABINIT/ABINITv7.10.4/trunk/7.10.4-private/tests/Psps_for_tests/14si.pspnc
-  Troullier-Martins psp for element  Si        Thu Oct 27 17:31:21 EDT 1994
- 14.00000   4.00000    940714                znucl, zion, pspdat
    1    1    2    2      2001   0.00000      pspcod,pspxc,lmax,lloc,mmax,r2well
    0   5.907  14.692    1   2.0872718        l,e99.0,e99.9,nproj,rcpsp
   0.00000000   0.00000000   0.00000000   0.00000000     rms, ekb1, ekb2, epsatm
    1   2.617   4.181    1   2.0872718        l,e99.0,e99.9,nproj,rcpsp
   0.00000000   0.00000000   0.00000000   0.00000000     rms, ekb1, ekb2, epsatm
    2   0.000   0.000    0   2.0872718        l,e99.0,e99.9,nproj,rcpsp
   0.00000000   0.00000000   0.00000000   0.00000000     rms, ekb1, ekb2, epsatm
    1.80626423934776    0.22824404341771    1.17378968127746   rchrg,fchrg,qchrg
 pspatm: epsatm=    1.43386982
         --- l  ekb(1:nproj) -->
             0    3.287949
             1    1.849886
 pspatm: atomic psp has been read  and splines computed

--------------------------------------------------------------------------------

 ==== K-mesh for the wavefunctions ====
 Number of points in the irreducible wedge :    10
 Reduced coordinates and weights : 

     1)    -1.25000000E-01 -2.50000000E-01  0.00000000E+00       0.09375
     2)    -1.25000000E-01  5.00000000E-01  0.00000000E+00       0.09375
     3)    -2.50000000E-01 -3.75000000E-01  0.00000000E+00       0.09375
     4)    -1.25000000E-01 -3.75000000E-01  1.25000000E-01       0.18750
     5)    -1.25000000E-01  2.50000000E-01  0.00000000E+00       0.09375
     6)    -2.50000000E-01  3.75000000E-01  0.00000000E+00       0.09375
     7)    -3.75000000E-01  5.00000000E-01  0.00000000E+00       0.09375
     8)    -2.50000000E-01  5.00000000E-01  1.25000000E-01       0.18750
     9)    -1.25000000E-01  0.00000000E+00  0.00000000E+00       0.03125
    10)    -3.75000000E-01  0.00000000E+00  0.00000000E+00       0.03125

 Together with 24 symmetry operations and time-reversal symmetry 
 yields   256 points in the full Brillouin Zone.


 ==== Q-mesh for the screening function ====
 Number of points in the irreducible wedge :    19
 Reduced coordinates and weights : 

     1)     0.00000000E+00  0.00000000E+00  0.00000000E+00       0.00391
     2)     3.75000000E-01  5.00000000E-01  1.25000000E-01       0.09375
     3)    -1.25000000E-01  1.25000000E-01  0.00000000E+00       0.04688
     4)    -1.25000000E-01  2.50000000E-01 -1.25000000E-01       0.09375
     5)     0.00000000E+00  2.50000000E-01 -2.50000000E-01       0.04688
     6)     2.50000000E-01  5.00000000E-01  0.00000000E+00       0.09375
     7)    -1.25000000E-01  0.00000000E+00 -1.25000000E-01       0.02344
     8)     3.75000000E-01  3.75000000E-01  0.00000000E+00       0.02344
     9)     0.00000000E+00  3.75000000E-01 -1.25000000E-01       0.09375
    10)     3.75000000E-01  2.50000000E-01  1.25000000E-01       0.09375
    11)     2.50000000E-01  2.50000000E-01  2.50000000E-01       0.03125
    12)    -3.75000000E-01 -2.50000000E-01  3.75000000E-01       0.09375
    13)    -3.75000000E-01  3.75000000E-01  0.00000000E+00       0.04688
    14)    -3.75000000E-01  2.50000000E-01  1.25000000E-01       0.09375
    15)     5.00000000E-01 -3.75000000E-01  1.25000000E-01       0.04688
    16)     5.00000000E-01  5.00000000E-01  0.00000000E+00       0.01172
    17)     2.50000000E-01  5.00000000E-01 -2.50000000E-01       0.02344
    18)     2.50000000E-01  0.00000000E+00  2.50000000E-01       0.02344
    19)     5.00000000E-01  5.00000000E-01  5.00000000E-01       0.01563

 Together with 24 symmetry operations and time-reversal symmetry 
 yields   256 points in the full Brillouin Zone.


 setmesh: FFT mesh size selected  =  12x 12x 12
          total number of points  =     1728


 k       eigenvalues [eV]
  1         -5.42   2.65   4.56   4.64   8.00   9.58  10.38  10.63  13.37  14.24
            15.75  17.39  19.09  20.36  23.61  23.99  25.10
  2         -3.70  -0.93   3.59   4.32   8.04   9.39  10.00  13.25  14.83  16.57
            17.38  17.66  18.32  20.93  24.20  25.71  26.21
  3         -4.35   0.94   3.18   3.66   7.17   8.73  11.89  12.20  15.99  16.06
            17.47  19.28  19.57  20.79  21.81  22.98  24.48
  4         -3.92   0.01   2.52   3.94   8.73   9.42  10.89  11.85  14.97  15.62
            17.86  18.85  20.13  21.06  23.22  24.19  25.06
  5         -4.90   1.23   3.55   5.12   8.58   9.57   9.74  12.14  12.45  15.59
            16.03  18.25  19.98  21.30  22.49  23.92  24.85
  6         -3.19  -0.80   1.83   3.99   7.67  11.35  11.40  12.85  13.86  13.99
            18.41  20.87  20.93  21.99  22.37  24.51  25.39
  7         -2.83  -0.96   2.40   3.18   6.70   7.80  14.20  14.24  16.66  16.84
            18.42  18.62  20.76  21.08  21.84  24.59  24.67
  8         -2.64  -1.07   1.75   2.88   8.23  10.15  11.16  13.34  14.35  17.07
            18.16  20.14  21.35  21.96  23.48  24.21  24.73
  9         -5.96   4.29   5.62   5.62   8.36   8.88   8.88  10.53  13.27  13.27
            14.40  16.50  18.33  18.33  22.29  27.15  27.15
 10         -4.45  -0.12   4.81   4.81   7.51   9.34   9.34  13.62  14.59  14.59
            15.42  19.76  19.82  19.82  22.53  24.54  24.54
 Number of electrons calculated from density =    7.9465; Expected =    8.0000
 average of density, n =  0.029803
 r_s =    2.0009
 omega_plasma =   16.6528 [eV]


 calculating chi0 at frequencies [eV] :
  1    0.000000E+00    0.000000E+00
  2    0.000000E+00    1.670000E+01


--------------------------------------------------------------------------------
  q-point number  1        q = ( 0.000000, 0.000000, 0.000000) [r.l.u.]
--------------------------------------------------------------------------------
  chi0(G,G') at the    1 th omega   0.0000   0.0000 [eV]
       1       2       3       4       5       6       7       8       9
    1  -0.000   0.000  -0.000   0.000  -0.000  -0.000   0.000  -0.000   0.000
        0.000   0.000  -0.000   0.000  -0.000   0.000  -0.000   0.000  -0.000

    2   0.000 -15.325  -0.005  -0.005  -0.005  -0.000  -0.000  -0.000  -0.000
       -0.000  -0.000  -0.000   0.000   0.000  -4.478  -0.330  -0.330  -0.330

  chi0(G,G') at the    2 th omega   0.0000  16.7000 [eV]
       1       2       3       4       5       6       7       8       9
    1  -0.000   0.000  -0.000   0.000  -0.000  -0.000   0.000  -0.000   0.000
        0.000   0.000  -0.000   0.000  -0.000   0.000  -0.000   0.000  -0.000

    2   0.000  -5.333   0.088   0.088   0.088   0.000  -0.000   0.000   0.000
       -0.000  -0.000   0.000   0.000  -0.000  -1.025  -0.152  -0.152  -0.152

 For q-point:  0.000010 0.000020 0.000030
  dielectric constant =  13.9412
  dielectric constant without local fields =  15.6048

  Average fulfillment of the sum rule on Im[epsilon] for q-point    1 :     35.30  [%]
  Heads and wings of the symmetrical epsilon^-1(G,G') 

   Upper and lower wings at the    1 th omega   0.0000   0.0000 [eV]
       1       2       3       4       5       6       7       8       9
      0.072   0.006  -0.018   0.018  -0.006  -0.006   0.018  -0.018   0.006
     -0.000   0.006  -0.018   0.018  -0.006   0.006  -0.018   0.018  -0.006
       1       2       3       4       5       6       7       8       9
      0.072   0.006  -0.018   0.018  -0.006  -0.006   0.018  -0.018   0.006
     -0.000  -0.006   0.018  -0.018   0.006  -0.006   0.018  -0.018   0.006


   Upper and lower wings at the    2 th omega   0.0000  16.7000 [eV]
       1       2       3       4       5       6       7       8       9
      0.551   0.009  -0.026   0.026  -0.009  -0.009   0.026  -0.026   0.009
      0.000   0.009  -0.026   0.026  -0.009   0.009  -0.026   0.026  -0.009
       1       2       3       4       5       6       7       8       9
      0.551   0.009  -0.026   0.026  -0.009  -0.009   0.026  -0.026   0.009
      0.000  -0.009   0.026  -0.026   0.009  -0.009   0.026  -0.026   0.009




--------------------------------------------------------------------------------
  q-point number  2        q = ( 0.375000, 0.500000, 0.125000) [r.l.u.]
--------------------------------------------------------------------------------
  chi0(G,G') at the    1 th omega   0.0000   0.0000 [eV]
       1       2       3       4       5       6       7       8       9
    1 -16.211  -2.289  -1.510  -0.561  -2.319  -1.510  -2.289  -2.319  -0.561
        0.000  -2.289  -1.510  -0.561  -2.319   1.510   2.289   2.319   0.561

    2  -2.289 -13.338   0.062   0.048   0.352  -0.000  -0.000  -0.000   0.000
        2.289  -0.000  -0.000  -0.000   0.000  -2.059  -0.030   0.135  -0.182

  chi0(G,G') at the    2 th omega   0.0000  16.7000 [eV]
       1       2       3       4       5       6       7       8       9
    1  -2.965  -0.555  -0.244   0.118  -0.593  -0.244  -0.555  -0.593   0.118
        0.000  -0.555  -0.244   0.118  -0.593   0.244   0.555   0.593  -0.118

    2  -0.555  -4.684   0.029   0.019   0.152   0.000  -0.000  -0.000  -0.000
        0.555   0.000  -0.000  -0.000   0.000  -0.678  -0.044  -0.058  -0.100

  Average fulfillment of the sum rule on Im[epsilon] for q-point    2 :     60.79  [%]


--------------------------------------------------------------------------------
  q-point number  3        q = (-0.125000, 0.125000, 0.000000) [r.l.u.]
--------------------------------------------------------------------------------
  chi0(G,G') at the    1 th omega   0.0000   0.0000 [eV]
       1       2       3       4       5       6       7       8       9
    1  -7.593   1.064  -1.196  -1.196  -1.672  -1.672  -1.196  -1.196   1.064
       -0.000   1.064  -1.196  -1.196  -1.672   1.672   1.196   1.196  -1.064

    2   1.064 -16.521   0.662   0.662  -0.075  -0.000  -0.000  -0.000  -0.000
       -1.064  -0.000   0.000   0.000   0.000  -3.754  -0.392  -0.392  -1.274

  chi0(G,G') at the    2 th omega   0.0000  16.7000 [eV]
       1       2       3       4       5       6       7       8       9
    1  -0.731   0.232  -0.108  -0.108  -0.309  -0.309  -0.108  -0.108   0.232
        0.000   0.232  -0.108  -0.108  -0.309   0.309   0.108   0.108  -0.232

    2   0.232  -5.372   0.090   0.090   0.074   0.000   0.000   0.000   0.000
       -0.232  -0.000   0.000   0.000   0.000  -0.964  -0.174  -0.174  -0.200

  Average fulfillment of the sum rule on Im[epsilon] for q-point    3 :     76.97  [%]


--------------------------------------------------------------------------------
  q-point number  4        q = (-0.125000, 0.250000,-0.125000) [r.l.u.]
--------------------------------------------------------------------------------
  chi0(G,G') at the    1 th omega   0.0000   0.0000 [eV]
       1       2       3       4       5       6       7       8       9
    1 -12.783  -1.070  -1.070  -1.964  -1.751  -2.300  -2.300  -1.448   1.742
       -0.000  -1.070  -1.070  -1.964  -1.751   2.300   2.300   1.448  -1.742

    2  -1.070 -17.161   1.043   0.126   0.025  -0.000  -0.000  -0.000  -0.000
        1.070  -0.000   0.000   0.000   0.000  -2.718   0.017  -0.023  -0.944

  chi0(G,G') at the    2 th omega   0.0000  16.7000 [eV]
       1       2       3       4       5       6       7       8       9
    1  -1.965  -0.033  -0.033  -0.303  -0.520  -0.448  -0.448  -0.299   0.413
       -0.000  -0.033  -0.033  -0.303  -0.520   0.448   0.448   0.299  -0.413

    2  -0.033  -5.429   0.083   0.046   0.073   0.000  -0.000  -0.000   0.000
        0.033   0.000   0.000   0.000   0.000  -0.818  -0.088  -0.112  -0.149

  Average fulfillment of the sum rule on Im[epsilon] for q-point    4 :     65.52  [%]


--------------------------------------------------------------------------------
  q-point number  5        q = ( 0.000000, 0.250000,-0.250000) [r.l.u.]
--------------------------------------------------------------------------------
  chi0(G,G') at the    1 th omega   0.0000   0.0000 [eV]
       1       2       3       4       5       6       7       8       9
    1 -14.897  -2.147   0.290  -2.147  -2.059  -2.147  -2.059  -2.147   0.290
        0.000  -2.147   0.290  -2.147  -2.059   2.147   2.059   2.147  -0.290

    2  -2.147 -15.214   0.715   0.086   0.067  -0.000  -0.000  -0.000  -0.000
        2.147  -0.000  -0.000   0.000   0.000  -2.204   0.030   0.014  -0.124

  chi0(G,G') at the    2 th omega   0.0000  16.7000 [eV]
       1       2       3       4       5       6       7       8       9
    1  -2.490  -0.381   0.256  -0.381  -0.560  -0.381  -0.560  -0.381   0.256
        0.000  -0.381   0.256  -0.381  -0.560   0.381   0.560   0.381  -0.256

    2  -0.381  -5.197   0.057   0.035   0.106   0.000  -0.000  -0.000  -0.000
        0.381   0.000   0.000  -0.000   0.000  -0.733  -0.055  -0.062  -0.132

  Average fulfillment of the sum rule on Im[epsilon] for q-point    5 :     62.91  [%]


--------------------------------------------------------------------------------
  q-point number  6        q = ( 0.250000, 0.500000, 0.000000) [r.l.u.]
--------------------------------------------------------------------------------
  chi0(G,G') at the    1 th omega   0.0000   0.0000 [eV]
       1       2       3       4       5       6       7       8       9
    1 -16.290  -2.218  -1.560  -1.560  -2.051  -1.485  -2.445  -2.445   0.404
        0.000  -2.218  -1.560  -1.560  -2.051   1.485   2.445   2.445  -0.404

    2  -2.218 -14.000   0.061   0.061   0.437   0.000  -0.000  -0.000  -0.000
        2.218  -0.000  -0.000  -0.000   0.000  -1.962   0.030   0.030  -0.367

  chi0(G,G') at the    2 th omega   0.0000  16.7000 [eV]
       1       2       3       4       5       6       7       8       9
    1  -3.175  -0.542  -0.143  -0.143  -0.610  -0.401  -0.595  -0.595   0.300
       -0.000  -0.542  -0.143  -0.143  -0.610   0.401   0.595   0.595  -0.300

    2  -0.542  -4.910   0.009   0.009   0.151   0.000  -0.000  -0.000  -0.000
        0.542  -0.000  -0.000  -0.000   0.000  -0.635  -0.041  -0.041  -0.123

  Average fulfillment of the sum rule on Im[epsilon] for q-point    6 :     60.45  [%]


--------------------------------------------------------------------------------
  q-point number  7        q = (-0.125000, 0.000000,-0.125000) [r.l.u.]
--------------------------------------------------------------------------------
  chi0(G,G') at the    1 th omega   0.0000   0.0000 [eV]
       1       2       3       4       5       6       7       8       9
    1  -4.785   0.376   0.376  -1.311  -1.311  -1.311  -1.311   0.376   0.376
       -0.000   0.376   0.376  -1.311  -1.311   1.311   1.311  -0.376  -0.376

    2   0.376 -16.129   1.063  -0.134  -0.134  -0.000  -0.000  -0.000  -0.000
       -0.376  -0.000   0.000   0.000   0.000  -3.946  -0.345  -0.536  -0.536

  chi0(G,G') at the    2 th omega   0.0000  16.7000 [eV]
       1       2       3       4       5       6       7       8       9
    1  -0.377   0.106   0.106  -0.175  -0.175  -0.175  -0.175   0.106   0.106
        0.000   0.106   0.106  -0.175  -0.175   0.175   0.175  -0.106  -0.106

    2   0.106  -5.406   0.103   0.081   0.081   0.000  -0.000   0.000   0.000
       -0.106  -0.000   0.000   0.000   0.000  -0.994  -0.142  -0.184  -0.184

  Average fulfillment of the sum rule on Im[epsilon] for q-point    7 :     81.80  [%]


--------------------------------------------------------------------------------
  q-point number  8        q = ( 0.375000, 0.375000, 0.000000) [r.l.u.]
--------------------------------------------------------------------------------
  chi0(G,G') at the    1 th omega   0.0000   0.0000 [eV]
       1       2       3       4       5       6       7       8       9
    1 -15.158  -2.297  -0.766  -0.766  -2.297  -0.766  -2.297  -2.297  -0.766
        0.000  -2.297  -0.766  -0.766  -2.297   0.766   2.297   2.297   0.766

    2  -2.297 -12.639  -0.100  -0.100   0.401  -0.000  -0.000  -0.000   0.000
        2.297  -0.000  -0.000  -0.000   0.000  -2.369   0.139   0.139  -0.249

  chi0(G,G') at the    2 th omega   0.0000  16.7000 [eV]
       1       2       3       4       5       6       7       8       9
    1  -2.742  -0.561  -0.027  -0.027  -0.561  -0.027  -0.561  -0.561  -0.027
       -0.000  -0.561  -0.027  -0.027  -0.561   0.027   0.561   0.561   0.027

    2  -0.561  -4.466   0.035   0.035   0.149   0.000  -0.000  -0.000  -0.000
        0.561   0.000  -0.000  -0.000   0.000  -0.724  -0.060  -0.060  -0.073

  Average fulfillment of the sum rule on Im[epsilon] for q-point    8 :     61.27  [%]


--------------------------------------------------------------------------------
  q-point number  9        q = ( 0.000000, 0.375000,-0.125000) [r.l.u.]
--------------------------------------------------------------------------------
  chi0(G,G') at the    1 th omega   0.0000   0.0000 [eV]
       1       2       3       4       5       6       7       8       9
    1 -14.298  -2.063  -0.907  -2.063  -1.728  -2.065  -2.320  -2.065   1.840
        0.000  -2.063  -0.907  -2.063  -1.728   2.065   2.320   2.065  -1.840

    2  -2.063 -16.075   0.494   0.046   0.286  -0.000  -0.000  -0.000  -0.000
        2.063   0.000  -0.000   0.000   0.000  -2.258   0.119   0.049  -0.442

  chi0(G,G') at the    2 th omega   0.0000  16.7000 [eV]
       1       2       3       4       5       6       7       8       9
    1  -2.725  -0.325  -0.030  -0.325  -0.585  -0.481  -0.557  -0.481   0.459
        0.000  -0.325  -0.030  -0.325  -0.585   0.481   0.557   0.481  -0.459

    2  -0.325  -5.356   0.050   0.018   0.107   0.000  -0.000  -0.000  -0.000
        0.325  -0.000  -0.000  -0.000   0.000  -0.702  -0.046  -0.056  -0.133

  Average fulfillment of the sum rule on Im[epsilon] for q-point    9 :     61.91  [%]


--------------------------------------------------------------------------------
  q-point number 10        q = ( 0.375000, 0.250000, 0.125000) [r.l.u.]
--------------------------------------------------------------------------------
  chi0(G,G') at the    1 th omega   0.0000   0.0000 [eV]
       1       2       3       4       5       6       7       8       9
    1 -12.659  -2.115  -1.260   0.390  -2.100   0.390  -2.100  -2.115  -1.260
       -0.000  -2.115  -1.260   0.390  -2.100  -0.390   2.100   2.115   1.260

    2  -2.115 -12.885  -0.225  -0.130  -0.091  -0.000  -0.000  -0.000  -0.000
        2.115   0.000  -0.000  -0.000  -0.000  -3.072   0.070   0.126  -0.200

  chi0(G,G') at the    2 th omega   0.0000  16.7000 [eV]
       1       2       3       4       5       6       7       8       9
    1  -1.684  -0.465  -0.132   0.234  -0.351   0.234  -0.351  -0.465  -0.132
        0.000  -0.465  -0.132   0.234  -0.351  -0.234   0.351   0.465   0.132

    2  -0.465  -4.598   0.073   0.054   0.103   0.000  -0.000  -0.000  -0.000
        0.465   0.000  -0.000  -0.000  -0.000  -0.866  -0.068  -0.077  -0.076

  Average fulfillment of the sum rule on Im[epsilon] for q-point   10 :     67.60  [%]


--------------------------------------------------------------------------------
  q-point number 11        q = ( 0.250000, 0.250000, 0.250000) [r.l.u.]
--------------------------------------------------------------------------------
  chi0(G,G') at the    1 th omega   0.0000   0.0000 [eV]
       1       2       3       4       5       6       7       8       9
    1  -8.794  -1.743  -1.743   2.410  -1.743  -0.876  -0.876  -1.418  -0.876
       -0.000  -1.743  -1.743   2.410  -1.743   0.876   0.876   1.418   0.876

    2  -1.743 -14.686  -0.329   0.540  -0.329   0.000  -0.000  -0.000  -0.000
        1.743   0.000   0.000  -0.000   0.000  -3.269  -0.009  -0.111  -0.009

  chi0(G,G') at the    2 th omega   0.0000  16.7000 [eV]
       1       2       3       4       5       6       7       8       9
    1  -1.064  -0.267  -0.267   0.390  -0.267  -0.021  -0.021  -0.406  -0.021
       -0.000  -0.267  -0.267   0.390  -0.267   0.021   0.021   0.406   0.021

    2  -0.267  -5.110   0.075   0.077   0.075   0.000  -0.000  -0.000  -0.000
        0.267   0.000   0.000   0.000  -0.000  -0.919  -0.114  -0.083  -0.114

  Average fulfillment of the sum rule on Im[epsilon] for q-point   11 :     72.96  [%]


--------------------------------------------------------------------------------
  q-point number 12        q = (-0.375000,-0.250000, 0.375000) [r.l.u.]
--------------------------------------------------------------------------------
  chi0(G,G') at the    1 th omega   0.0000   0.0000 [eV]
       1       2       3       4       5       6       7       8       9
    1 -18.217  -2.027  -1.952  -2.353  -2.369  -2.167  -0.532  -2.015  -2.313
       -0.000  -2.027  -1.952  -2.353  -2.369   2.167   0.532   2.015   2.313

    2  -2.027 -18.378   0.396   0.041   1.012  -0.000  -0.000  -0.000  -0.000
        2.027  -0.000   0.000   0.000   0.000  -1.752   0.000   0.000   0.213

  chi0(G,G') at the    2 th omega   0.0000  16.7000 [eV]
       1       2       3       4       5       6       7       8       9
    1  -4.702  -0.304  -0.625  -0.709  -0.564  -0.665   0.156  -0.666  -0.697
        0.000  -0.304  -0.625  -0.709  -0.564   0.665  -0.156   0.666   0.697

    2  -0.304  -5.266   0.088  -0.038   0.051   0.000  -0.000  -0.000  -0.000
        0.304  -0.000   0.000   0.000   0.000  -0.413  -0.000  -0.000  -0.030

  Average fulfillment of the sum rule on Im[epsilon] for q-point   12 :     59.84  [%]


--------------------------------------------------------------------------------
  q-point number 13        q = (-0.375000, 0.375000, 0.000000) [r.l.u.]
--------------------------------------------------------------------------------
  chi0(G,G') at the    1 th omega   0.0000   0.0000 [eV]
       1       2       3       4       5       6       7       8       9
    1 -17.667  -0.614  -2.490  -2.490  -1.905  -1.905  -2.490  -2.490  -0.614
        0.000  -0.614  -2.490  -2.490  -1.905   1.905   2.490   2.490   0.614

    2  -0.614 -17.896   0.489   0.489   0.107  -0.000  -0.000  -0.000  -0.000
        0.614   0.000  -0.000  -0.000   0.000  -2.350   0.147   0.147  -1.117

  chi0(G,G') at the    2 th omega   0.0000  16.7000 [eV]
       1       2       3       4       5       6       7       8       9
    1  -4.360   0.081  -0.653  -0.653  -0.640  -0.640  -0.653  -0.653   0.081
        0.000   0.081  -0.653  -0.653  -0.640   0.640   0.653   0.653  -0.081

    2   0.081  -4.357   0.006   0.006   0.039   0.000  -0.000  -0.000  -0.000
       -0.081   0.000  -0.000  -0.000   0.000  -0.505  -0.055  -0.055  -0.046

  Average fulfillment of the sum rule on Im[epsilon] for q-point   13 :     58.89  [%]


--------------------------------------------------------------------------------
  q-point number 14        q = (-0.375000, 0.250000, 0.125000) [r.l.u.]
--------------------------------------------------------------------------------
  chi0(G,G') at the    1 th omega   0.0000   0.0000 [eV]
       1       2       3       4       5       6       7       8       9
    1 -16.805   0.673  -2.406  -1.899  -2.299  -1.905  -2.206  -2.405  -1.389
       -0.000   0.673  -2.406  -1.899  -2.299   1.905   2.206   2.405   1.389

    2   0.673 -16.805   0.103   1.538  -0.291  -0.000  -0.000  -0.000  -0.000
       -0.673  -0.000   0.000   0.000   0.000  -2.726  -0.283  -0.172  -1.000

  chi0(G,G') at the    2 th omega   0.0000  16.7000 [eV]
       1       2       3       4       5       6       7       8       9
    1  -3.742   0.366  -0.624  -0.563  -0.638  -0.627  -0.422  -0.570  -0.126
        0.000   0.366  -0.624  -0.563  -0.638   0.627   0.422   0.570   0.126

    2   0.366  -3.742   0.003   0.038   0.007   0.000  -0.000  -0.000  -0.000
       -0.366   0.000  -0.000  -0.000   0.000  -0.616  -0.072  -0.105  -0.069

  Average fulfillment of the sum rule on Im[epsilon] for q-point   14 :     60.12  [%]


--------------------------------------------------------------------------------
  q-point number 15        q = ( 0.500000,-0.375000, 0.125000) [r.l.u.]
--------------------------------------------------------------------------------
  chi0(G,G') at the    1 th omega   0.0000   0.0000 [eV]
       1       2       3       4       5       6       7       8       9
    1 -18.094  -1.821  -2.482  -2.376  -1.307  -1.307  -2.376  -2.482  -1.821
       -0.000  -1.821  -2.482  -2.376  -1.307   1.307   2.376   2.482   1.821

    2  -1.821  -8.534   0.971   1.086   0.200  -0.000  -0.000  -0.000  -0.000
        1.821  -0.000  -0.000  -0.000  -0.000  -1.833   0.158   0.105  -0.582

  chi0(G,G') at the    2 th omega   0.0000  16.7000 [eV]
       1       2       3       4       5       6       7       8       9
    1  -5.025  -0.616  -0.730  -0.720  -0.092  -0.092  -0.720  -0.730  -0.616
       -0.000  -0.616  -0.730  -0.720  -0.092   0.092   0.720   0.730   0.616

    2  -0.616  -2.879   0.218   0.194   0.058   0.000  -0.000  -0.000  -0.000
        0.616   0.000  -0.000  -0.000  -0.000  -0.349  -0.059  -0.076  -0.162

  Average fulfillment of the sum rule on Im[epsilon] for q-point   15 :     58.74  [%]


--------------------------------------------------------------------------------
  q-point number 16        q = ( 0.500000, 0.500000, 0.000000) [r.l.u.]
--------------------------------------------------------------------------------
  chi0(G,G') at the    1 th omega   0.0000   0.0000 [eV]
       1       2       3       4       5       6       7       8       9
    1 -17.029  -2.253  -1.301  -1.301  -2.253  -1.301  -2.253  -2.253  -1.301
        0.000  -2.253  -1.301  -1.301  -2.253   1.301   2.253   2.253   1.301

    2  -2.253 -11.145   0.123   0.123   0.661   0.000  -0.000  -0.000   0.000
        2.253   0.000  -0.000  -0.000  -0.000  -1.846   0.119   0.119  -0.097

  chi0(G,G') at the    2 th omega   0.0000  16.7000 [eV]
       1       2       3       4       5       6       7       8       9
    1  -4.083  -0.662  -0.230  -0.230  -0.662  -0.230  -0.662  -0.662  -0.230
       -0.000  -0.662  -0.230  -0.230  -0.662   0.230   0.662   0.662   0.230

    2  -0.662  -3.969   0.028   0.028   0.201   0.000  -0.000  -0.000  -0.000
        0.662   0.000  -0.000  -0.000  -0.000  -0.526  -0.072  -0.072  -0.032

  Average fulfillment of the sum rule on Im[epsilon] for q-point   16 :     58.48  [%]


--------------------------------------------------------------------------------
  q-point number 17        q = ( 0.250000, 0.500000,-0.250000) [r.l.u.]
--------------------------------------------------------------------------------
  chi0(G,G') at the    1 th omega   0.0000   0.0000 [eV]
       1       2       3       4       5       6       7       8       9
    1 -18.547  -2.374  -1.427  -2.254  -2.067  -2.254  -2.067  -2.374  -1.427
       -0.000  -2.374  -1.427  -2.254  -2.067   2.254   2.067   2.374   1.427

    2  -2.374 -12.251   0.044   0.319   0.751  -0.000  -0.000  -0.000  -0.000
        2.374   0.000  -0.000  -0.000  -0.000  -1.238   0.086  -0.137   0.131

  chi0(G,G') at the    2 th omega   0.0000  16.7000 [eV]
       1       2       3       4       5       6       7       8       9
    1  -4.601  -0.699  -0.043  -0.608  -0.645  -0.608  -0.645  -0.699  -0.043
       -0.000  -0.699  -0.043  -0.608  -0.645   0.608   0.645   0.699   0.043

    2  -0.699  -4.352  -0.025   0.037   0.209   0.000  -0.000  -0.000  -0.000
        0.699  -0.000  -0.000  -0.000   0.000  -0.394  -0.071  -0.028  -0.054

  Average fulfillment of the sum rule on Im[epsilon] for q-point   17 :     58.91  [%]


--------------------------------------------------------------------------------
  q-point number 18        q = ( 0.250000, 0.000000, 0.250000) [r.l.u.]
--------------------------------------------------------------------------------
  chi0(G,G') at the    1 th omega   0.0000   0.0000 [eV]
       1       2       3       4       5       6       7       8       9
    1 -11.307  -2.084  -2.084  -0.160  -0.160  -0.160  -0.160  -2.084  -2.084
       -0.000  -2.084  -2.084  -0.160  -0.160   0.160   0.160   2.084   2.084

    2  -2.084 -13.853  -0.052  -0.213  -0.213  -0.000  -0.000  -0.000  -0.000
        2.084  -0.000  -0.000  -0.000  -0.000  -3.064  -0.353   0.077   0.077

  chi0(G,G') at the    2 th omega   0.0000  16.7000 [eV]
       1       2       3       4       5       6       7       8       9
    1  -1.386  -0.384  -0.384   0.093   0.093   0.093   0.093  -0.384  -0.384
       -0.000  -0.384  -0.384   0.093   0.093  -0.093  -0.093   0.384   0.384

    2  -0.384  -4.869   0.102   0.059   0.059   0.000  -0.000  -0.000  -0.000
        0.384   0.000  -0.000  -0.000  -0.000  -0.889  -0.113  -0.074  -0.074

  Average fulfillment of the sum rule on Im[epsilon] for q-point   18 :     70.02  [%]


--------------------------------------------------------------------------------
  q-point number 19        q = ( 0.500000, 0.500000, 0.500000) [r.l.u.]
--------------------------------------------------------------------------------
  chi0(G,G') at the    1 th omega   0.0000   0.0000 [eV]
       1       2       3       4       5       6       7       8       9
    1 -14.080  -2.136  -2.136   2.856  -2.136  -1.851  -1.851  -1.595  -1.851
        0.000  -2.136  -2.136   2.856  -2.136   1.851   1.851   1.595   1.851

    2  -2.136 -12.756   0.248   0.477   0.248   0.000  -0.000  -0.000  -0.000
        2.136  -0.000  -0.000  -0.000   0.000  -2.229   0.132   0.083   0.132

  chi0(G,G') at the    2 th omega   0.0000  16.7000 [eV]
       1       2       3       4       5       6       7       8       9
    1  -3.362  -0.587  -0.587   0.533  -0.587  -0.337  -0.337  -0.615  -0.337
       -0.000  -0.587  -0.587   0.533  -0.587   0.337   0.337   0.615   0.337

    2  -0.587  -4.593   0.123   0.016   0.123   0.000  -0.000  -0.000  -0.000
        0.587  -0.000  -0.000   0.000   0.000  -0.613  -0.041  -0.082  -0.041

  Average fulfillment of the sum rule on Im[epsilon] for q-point   19 :     60.80  [%]

================================================================================
== DATASET  3 ==================================================================
-   nproc =    1

 mkfilename : getscr/=0, take file _SCR from output of DATASET   2.

 mkfilename : getkss/=0, take file _KSS from output of DATASET   1.

 Exchange-correlation functional for the present dataset will be:
  LDA: new Teter (4/93) with spin-polarized option - ixc=1
 Citation for XC functional:
  S. Goedecker, M. Teter, J. Huetter, PRB 54, 1703 (1996)

 SIGMA: Calculation of the GW corrections 

 Based on a program developped by R.W. Godby, V. Olevano, G. Onida, and L. Reining.
 Incorporated in ABINIT by V. Olevano, G.-M. Rignanese, and M. Torrent.
.Using double precision arithmetic ; gwpc =  8

 Real(R)+Recip(G) space primitive vectors, cartesian coordinates (Bohr,Bohr^-1):
 R(1)=  0.0000000  5.1085000  5.1085000  G(1)= -0.0978761  0.0978761  0.0978761
 R(2)=  5.1085000  0.0000000  5.1085000  G(2)=  0.0978761 -0.0978761  0.0978761
 R(3)=  5.1085000  5.1085000  0.0000000  G(3)=  0.0978761  0.0978761 -0.0978761
 Unit cell volume ucvol=  2.6663072E+02 bohr^3
 Angles (23,13,12)=  6.00000000E+01  6.00000000E+01  6.00000000E+01 degrees

--- Pseudopotential description ------------------------------------------------
- pspini: atom type   1  psp file is /home/gonze/ABINIT/ABINITv7.10.4/trunk/7.10.4-private/tests/Psps_for_tests/14si.pspnc
- pspatm: opening atomic psp file    /home/gonze/ABINIT/ABINITv7.10.4/trunk/7.10.4-private/tests/Psps_for_tests/14si.pspnc
-  Troullier-Martins psp for element  Si        Thu Oct 27 17:31:21 EDT 1994
- 14.00000   4.00000    940714                znucl, zion, pspdat
    1    1    2    2      2001   0.00000      pspcod,pspxc,lmax,lloc,mmax,r2well
    0   5.907  14.692    1   2.0872718        l,e99.0,e99.9,nproj,rcpsp
   0.00000000   0.00000000   0.00000000   0.00000000     rms, ekb1, ekb2, epsatm
    1   2.617   4.181    1   2.0872718        l,e99.0,e99.9,nproj,rcpsp
   0.00000000   0.00000000   0.00000000   0.00000000     rms, ekb1, ekb2, epsatm
    2   0.000   0.000    0   2.0872718        l,e99.0,e99.9,nproj,rcpsp
   0.00000000   0.00000000   0.00000000   0.00000000     rms, ekb1, ekb2, epsatm
    1.80626423934776    0.22824404341771    1.17378968127746   rchrg,fchrg,qchrg
 pspatm: epsatm=    1.43386982
         --- l  ekb(1:nproj) -->
             0    3.287949
             1    1.849886
 pspatm: atomic psp has been read  and splines computed

--------------------------------------------------------------------------------

 ==== K-mesh for the wavefunctions ====
 Number of points in the irreducible wedge :    10
 Reduced coordinates and weights : 

     1)    -1.25000000E-01 -2.50000000E-01  0.00000000E+00       0.09375
     2)    -1.25000000E-01  5.00000000E-01  0.00000000E+00       0.09375
     3)    -2.50000000E-01 -3.75000000E-01  0.00000000E+00       0.09375
     4)    -1.25000000E-01 -3.75000000E-01  1.25000000E-01       0.18750
     5)    -1.25000000E-01  2.50000000E-01  0.00000000E+00       0.09375
     6)    -2.50000000E-01  3.75000000E-01  0.00000000E+00       0.09375
     7)    -3.75000000E-01  5.00000000E-01  0.00000000E+00       0.09375
     8)    -2.50000000E-01  5.00000000E-01  1.25000000E-01       0.18750
     9)    -1.25000000E-01  0.00000000E+00  0.00000000E+00       0.03125
    10)    -3.75000000E-01  0.00000000E+00  0.00000000E+00       0.03125

 Together with 24 symmetry operations and time-reversal symmetry 
 yields   256 points in the full Brillouin Zone.


 ==== Q-mesh for screening function ====
 Number of points in the irreducible wedge :    19
 Reduced coordinates and weights : 

     1)     0.00000000E+00  0.00000000E+00  0.00000000E+00       0.00391
     2)     3.75000000E-01  5.00000000E-01  1.25000000E-01       0.09375
     3)    -1.25000000E-01  1.25000000E-01  0.00000000E+00       0.04688
     4)    -1.25000000E-01  2.50000000E-01 -1.25000000E-01       0.09375
     5)     0.00000000E+00  2.50000000E-01 -2.50000000E-01       0.04688
     6)     2.50000000E-01  5.00000000E-01  0.00000000E+00       0.09375
     7)    -1.25000000E-01  0.00000000E+00 -1.25000000E-01       0.02344
     8)     3.75000000E-01  3.75000000E-01  0.00000000E+00       0.02344
     9)     0.00000000E+00  3.75000000E-01 -1.25000000E-01       0.09375
    10)     3.75000000E-01  2.50000000E-01  1.25000000E-01       0.09375
    11)     2.50000000E-01  2.50000000E-01  2.50000000E-01       0.03125
    12)    -3.75000000E-01 -2.50000000E-01  3.75000000E-01       0.09375
    13)    -3.75000000E-01  3.75000000E-01  0.00000000E+00       0.04688
    14)    -3.75000000E-01  2.50000000E-01  1.25000000E-01       0.09375
    15)     5.00000000E-01 -3.75000000E-01  1.25000000E-01       0.04688
    16)     5.00000000E-01  5.00000000E-01  0.00000000E+00       0.01172
    17)     2.50000000E-01  5.00000000E-01 -2.50000000E-01       0.02344
    18)     2.50000000E-01  0.00000000E+00  2.50000000E-01       0.02344
    19)     5.00000000E-01  5.00000000E-01  5.00000000E-01       0.01563

 Together with 24 symmetry operations and time-reversal symmetry 
 yields   256 points in the full Brillouin Zone.


 setmesh: FFT mesh size selected  =  15x 15x 15
          total number of points  =     3375


 k       eigenvalues [eV]
  1         -5.42   2.65   4.56   4.64   8.00   9.58  10.38  10.63  13.37  14.24
            15.75  17.39  19.09  20.36  23.61  23.99  25.10  27.49  27.72  29.02
            32.15  33.12  34.35  35.69  37.50  38.03  38.07  39.15  39.67  40.54

  2         -3.70  -0.93   3.59   4.32   8.04   9.39  10.00  13.25  14.83  16.57
            17.38  17.66  18.32  20.93  24.20  25.71  26.21  27.16  28.13  28.41
            30.61  31.86  32.47  33.62  34.13  35.50  35.90  36.03  38.71  39.51

  3         -4.35   0.94   3.18   3.66   7.17   8.73  11.89  12.20  15.99  16.06
            17.47  19.28  19.57  20.79  21.81  22.98  24.48  25.67  27.92  30.14
            31.11  32.38  32.48  33.24  34.81  35.38  36.38  39.00  39.60  41.37

  4         -3.92   0.01   2.52   3.94   8.73   9.42  10.89  11.85  14.97  15.62
            17.86  18.85  20.13  21.06  23.22  24.19  25.06  27.00  27.85  28.80
            30.21  31.59  31.89  33.07  34.75  35.61  37.24  37.38  38.39  39.28

  5         -4.90   1.23   3.55   5.12   8.58   9.57   9.74  12.14  12.45  15.59
            16.03  18.25  19.98  21.30  22.49  23.92  24.85  27.51  28.12  28.95
            32.07  32.61  33.06  35.54  35.62  36.77  37.25  38.25  39.41  40.51

  6         -3.19  -0.80   1.83   3.99   7.67  11.35  11.40  12.85  13.86  13.99
            18.41  20.87  20.93  21.99  22.37  24.51  25.39  25.90  27.77  28.14
            30.80  31.11  31.84  32.37  33.66  34.48  35.27  36.05  39.40  40.29

  7         -2.83  -0.96   2.40   3.18   6.70   7.80  14.20  14.24  16.66  16.84
            18.42  18.62  20.76  21.08  21.84  24.59  24.67  25.34  26.65  28.29
            28.49  29.48  30.10  32.01  35.35  35.98  37.80  38.56  39.21  40.34

  8         -2.64  -1.07   1.75   2.88   8.23  10.15  11.16  13.34  14.35  17.07
            18.16  20.14  21.35  21.96  23.48  24.21  24.73  25.44  26.99  27.73
            28.74  30.18  30.85  33.57  33.92  34.73  36.66  37.10  38.08  38.54

  9         -5.96   4.29   5.62   5.62   8.36   8.88   8.88  10.53  13.27  13.27
            14.40  16.50  18.33  18.33  22.29  27.15  27.15  27.29  30.06  30.06
            32.03  32.03  32.93  35.69  37.70  37.70  38.51  40.70  40.70  41.88

 10         -4.45  -0.12   4.81   4.81   7.51   9.34   9.34  13.62  14.59  14.59
            15.42  19.76  19.82  19.82  22.53  24.54  24.54  28.72  29.84  30.16
            30.16  32.74  32.74  34.38  34.38  35.39  36.96  38.63  38.63  39.67

 Number of electrons calculated from density =    7.9937; Expected =    8.0000
 average of density, n =  0.029980
 r_s =    1.9969
 omega_plasma =   16.7022 [eV]


 === KS Band Gaps ===
  >>>> For spin  1
   Minimum optical gap =   2.7040 [eV], located at k-point      :  -0.3750  0.0000  0.0000
   Fundamental gap     =   1.0826 [eV], Top of valence bands at :  -0.1250  0.0000  0.0000
                                        Bottom of conduction at :  -0.3750  0.5000  0.0000
 SIGMA fundamental parameters:
 PLASMON POLE MODEL  1
 number of plane-waves for SigmaX                  169
 number of plane-waves for SigmaC and W             89
 number of plane-waves for wavefunctions           137
 number of bands                                    30
 number of independent spin polarizations            1
 number of spinorial components                      1
 number of k-points in IBZ                          10
 number of q-points in IBZ                          19
 number of symmetry operations                      24
 number of k-points in BZ                          256
 number of q-points in BZ                          256
 number of frequencies for dSigma/dE                 9
 frequency step for dSigma/dE [eV]                0.25
 number of omega for Sigma on real axis              0
 max omega for Sigma on real axis  [eV]           0.00
 zcut for avoiding poles [eV]                     0.10

 EPSILON^-1 parameters (SCR file):
 dimension of the eps^-1 matrix on file             89
 dimension of the eps^-1 matrix used                89
 number of plane-waves for wavefunctions            51
 number of bands                                    17
 number of q-points in IBZ                          19
 number of frequencies                               2
 number of real frequencies                          1
 number of imag frequencies                          1

 matrix elements of self-energy operator (all in [eV])

 Perturbative Calculation

 k =   -0.125   0.000   0.000
 Band     E0 <VxcLDA>   SigX SigC(E0)      Z dSigC/dE  Sig(E)    E-E0       E
    4   5.616 -11.114 -12.334   1.264   0.775  -0.290 -11.080   0.034   5.651
    5   8.357 -10.141  -5.952  -3.338   0.778  -0.285  -9.479   0.662   9.019

 E^0_gap          2.741
 E^GW_gap         3.369
 DeltaE^GW_gap    0.628


== END DATASET(S) ==============================================================
================================================================================
  
 -outvars: echo values of variables after computation  --------
            acell      1.0217000000E+01  1.0217000000E+01  1.0217000000E+01 Bohr
              amu      2.80855000E+01
             awtr1          1
             awtr2          0
             awtr3          1
             bdgw3          4       5
           diemac      1.20000000E+01
             ecut1     8.00000000E+00 Hartree
             ecut2     2.08005893E+00 Hartree
             ecut3     4.53831040E+00 Hartree
          ecuteps1     0.00000000E+00 Hartree
          ecuteps2     3.59282906E+00 Hartree
          ecuteps3     0.00000000E+00 Hartree
         ecutsigx1     0.00000000E+00 Hartree
         ecutsigx2     0.00000000E+00 Hartree
         ecutsigx3     5.10559920E+00 Hartree
          ecutwfn1     0.00000000E+00 Hartree
          ecutwfn2     2.08005893E+00 Hartree
          ecutwfn3     4.53831040E+00 Hartree
           etotal1    -8.8725570747E+00
           etotal2     0.0000000000E+00
           etotal3     0.0000000000E+00
            fcart1    -0.0000000000E+00 -0.0000000000E+00 -0.0000000000E+00
                      -0.0000000000E+00 -0.0000000000E+00 -0.0000000000E+00
            fcart2     0.0000000000E+00  0.0000000000E+00  0.0000000000E+00
                       0.0000000000E+00  0.0000000000E+00  0.0000000000E+00
            fcart3     0.0000000000E+00  0.0000000000E+00  0.0000000000E+00
                       0.0000000000E+00  0.0000000000E+00  0.0000000000E+00
-          fftalg         112
           getkss1          0
           getkss2         -1
           getkss3         -2
           getscr1          0
           getscr2          0
           getscr3         -1
         icutcoul1          6
         icutcoul2          6
         icutcoul3          3
             iscf           5
           jdtset        1    2    3
              kpt     -1.25000000E-01 -2.50000000E-01  0.00000000E+00
                      -1.25000000E-01  5.00000000E-01  0.00000000E+00
                      -2.50000000E-01 -3.75000000E-01  0.00000000E+00
                      -1.25000000E-01 -3.75000000E-01  1.25000000E-01
                      -1.25000000E-01  2.50000000E-01  0.00000000E+00
                      -2.50000000E-01  3.75000000E-01  0.00000000E+00
                      -3.75000000E-01  5.00000000E-01  0.00000000E+00
                      -2.50000000E-01  5.00000000E-01  1.25000000E-01
                      -1.25000000E-01  0.00000000E+00  0.00000000E+00
                      -3.75000000E-01  0.00000000E+00  0.00000000E+00
            kptgw3    -1.25000000E-01  0.00000000E+00  0.00000000E+00
         kptrlatt        4   -4    4     -4    4    4     -4   -4    4
          kptrlen      4.08680000E+01
          kssform1          3
          kssform2          1
          kssform3          1
P           mkmem          10
            natom           2
            nband1         40
            nband2         17
            nband3         30
         nbandkss1         35
         nbandkss2          0
         nbandkss3          0
           nbdbuf1          5
           nbdbuf2          0
           nbdbuf3          0
           ndtset           3
            ngfft1         20      20      20
            ngfft2         10      10      10
            ngfft3         15      15      15
             nkpt          10
           nkptgw1          0
           nkptgw2          0
           nkptgw3          1
           npweps1          0
           npweps2         89
           npweps3          0
          npwsigx1          0
          npwsigx2          0
          npwsigx3        169
           npwwfn1          0
           npwwfn2         51
           npwwfn3        137
           nsheps1          0
           nsheps2         12
           nsheps3          0
          nshsigx1          0
          nshsigx2          0
          nshsigx3         19
            nstep          20
             nsym          24
           ntypat           1
              occ1     2.000000  2.000000  2.000000  2.000000  0.000000  0.000000
                       0.000000  0.000000  0.000000  0.000000  0.000000  0.000000
                       0.000000  0.000000  0.000000  0.000000  0.000000  0.000000
                       0.000000  0.000000  0.000000  0.000000  0.000000  0.000000
                       0.000000  0.000000  0.000000  0.000000  0.000000  0.000000
                       0.000000  0.000000  0.000000  0.000000  0.000000  0.000000
                       0.000000  0.000000  0.000000  0.000000
              occ2     2.000000  2.000000  2.000000  2.000000  0.000000  0.000000
                       0.000000  0.000000  0.000000  0.000000  0.000000  0.000000
                       0.000000  0.000000  0.000000  0.000000  0.000000
              occ3     2.000000  2.000000  2.000000  2.000000  0.000000  0.000000
                       0.000000  0.000000  0.000000  0.000000  0.000000  0.000000
                       0.000000  0.000000  0.000000  0.000000  0.000000  0.000000
                       0.000000  0.000000  0.000000  0.000000  0.000000  0.000000
                       0.000000  0.000000  0.000000  0.000000  0.000000  0.000000
        optdriver1          0
        optdriver2          3
        optdriver3          4
           ppmfrq1     0.00000000E+00 Hartree
           ppmfrq2     6.13713734E-01 Hartree
           ppmfrq3     0.00000000E+00 Hartree
            rprim      0.0000000000E+00  5.0000000000E-01  5.0000000000E-01
                       5.0000000000E-01  0.0000000000E+00  5.0000000000E-01
                       5.0000000000E-01  5.0000000000E-01  0.0000000000E+00
           shiftk      5.00000000E-01  5.00000000E-01  5.00000000E-01
          spgroup         227
           strten1     3.0233930128E-05  3.0233930128E-05  3.0233930128E-05
                       0.0000000000E+00  0.0000000000E+00  0.0000000000E+00
           strten2     0.0000000000E+00  0.0000000000E+00  0.0000000000E+00
                       0.0000000000E+00  0.0000000000E+00  0.0000000000E+00
           strten3     0.0000000000E+00  0.0000000000E+00  0.0000000000E+00
                       0.0000000000E+00  0.0000000000E+00  0.0000000000E+00
        symmorphi           0
           symrel      1  0  0   0  1  0   0  0  1       0 -1  1   0 -1  0   1 -1  0
                      -1  0  0  -1  0  1  -1  1  0       0  1 -1   1  0 -1   0  0 -1
                      -1  0  0  -1  1  0  -1  0  1       0 -1  1   1 -1  0   0 -1  0
                       1  0  0   0  0  1   0  1  0       0  1 -1   0  0 -1   1  0 -1
                      -1  0  1  -1  1  0  -1  0  0       0 -1  0   1 -1  0   0 -1  1
                       1  0 -1   0  0 -1   0  1 -1       0  1  0   0  0  1   1  0  0
                       1  0 -1   0  1 -1   0  0 -1       0 -1  0   0 -1  1   1 -1  0
                      -1  0  1  -1  0  0  -1  1  0       0  1  0   1  0  0   0  0  1
                       0  0 -1   0  1 -1   1  0 -1       1 -1  0   0 -1  1   0 -1  0
                       0  0  1   1  0  0   0  1  0      -1  1  0  -1  0  0  -1  0  1
                       0  0  1   0  1  0   1  0  0       1 -1  0   0 -1  0   0 -1  1
                       0  0 -1   1  0 -1   0  1 -1      -1  1  0  -1  0  1  -1  0  0
           tolwfr1     1.00000000E-18
           tolwfr2     0.00000000E+00
           tolwfr3     0.00000000E+00
            typat      1  1
              wtk        0.09375    0.09375    0.09375    0.18750    0.09375    0.09375
                         0.09375    0.18750    0.03125    0.03125
           xangst      0.0000000000E+00  0.0000000000E+00  0.0000000000E+00
                       1.3516508850E+00  1.3516508850E+00  1.3516508850E+00
            xcart      0.0000000000E+00  0.0000000000E+00  0.0000000000E+00
                       2.5542500000E+00  2.5542500000E+00  2.5542500000E+00
             xred      0.0000000000E+00  0.0000000000E+00  0.0000000000E+00
                       2.5000000000E-01  2.5000000000E-01  2.5000000000E-01
            znucl       14.00000

================================================================================


- Timing analysis has been suppressed with timopt=0



================================================================================

 Suggested references for the acknowledgment of ABINIT usage.

 The users of ABINIT have little formal obligations with respect to the ABINIT group
 (those specified in the GNU General Public License, http://www.gnu.org/copyleft/gpl.txt).
 However, it is common practice in the scientific literature,
 to acknowledge the efforts of people that have made the research possible.
 In this spirit, please find below suggested citations of work written by ABINIT developers,
 corresponding to implementations inside of ABINIT that you have used in the present run.
 Note also that it will be of great value to readers of publications presenting these results,
 to read papers enabling them to understand the theoretical formalism and details
 of the ABINIT implementation.
 For information on why they are suggested, see also http://www.abinit.org/about/?text=acknowledgments.

 [1] ABINIT : First-principles approach of materials and nanosystem properties.
 X. Gonze, B. Amadon, P.-M. Anglade, J.-M. Beuken, F. Bottin, P. Boulanger, F. Bruneval,
 D. Caliste, R. Caracas, M. Cote, T. Deutsch, L. Genovese, Ph. Ghosez, M. Giantomassi
 S. Goedecker, D.R. Hamann, P. Hermet, F. Jollet, G. Jomard, S. Leroux, M. Mancini, S. Mazevet,
 M.J.T. Oliveira, G. Onida, Y. Pouillon, T. Rangel, G.-M. Rignanese, D. Sangalli, R. Shaltaf,
 M. Torrent, M.J. Verstraete, G. Zerah, J.W. Zwanziger
 Computer Phys. Comm. 180, 2582-2615 (2009).
 Comment : the third generic paper describing the ABINIT project.
 Note that a version of this paper, that is not formatted for Computer Phys. Comm. 
 is available at http://www.abinit.org/about/ABINIT_CPC_v10.pdf .
 The licence allows the authors to put it on the Web.

 [2] A brief introduction to the ABINIT software package.
 X. Gonze, G.-M. Rignanese, M. Verstraete, J.-M. Beuken, Y. Pouillon, R. Caracas, F. Jollet,
 M. Torrent, G. Zerah, M. Mikami, Ph. Ghosez, M. Veithen, J.-Y. Raty, V. Olevano, F. Bruneval,
 L. Reining, R. Godby, G. Onida, D.R. Hamann, and D.C. Allan.
 Z. Kristallogr. 220, 558-562 (2005).
 Comment : the second generic paper describing the ABINIT project. Note that this paper
 should be cited especially if you are using the GW part of ABINIT, as several authors
 of this part are not in the list of authors of the first or third paper.
 The .pdf of the latter paper is available at http://www.abinit.org/about/zfk_0505-06_558-562.pdf.
 Note that it should not redistributed (Copyright by Oldenburg Wissenshaftverlag,
 the licence allows the authors to put it on the Web).


 And optionally :

 [3] First-principles computation of material properties : the ABINIT software project. 
 X. Gonze, J.-M. Beuken, R. Caracas, F. Detraux, M. Fuchs, G.-M. Rignanese, L. Sindic,
 M. Verstraete, G. Zerah, F. Jollet, M. Torrent, A. Roy, M. Mikami, Ph. Ghosez, J.-Y. Raty, D.C. Allan.
 Computational Materials Science 25, 478-492 (2002). http://dx.doi.org/10.1016/S0927-0256(02)00325-7
 Comment : the original paper describing the ABINIT project.

 [4] Fast radix 2, 3, 4 and 5 kernels for Fast Fourier Transformations
 on computers with overlapping multiply-add instructions.
 S. Goedecker, SIAM J. on Scientific Computing 18, 1605 (1997).

 [5] Towards a potential-based conjugate gradient algorithm for order-N self-consistent
 total energy calculations.
 X. Gonze, Phys. Rev. B 54, 4383 (1996).
 Comment : The potential-based conjugate-gradient algorithm, used when iscf=5, is not published.
 However, many elements of this algorithm have been explained in the paper above.
-
- Proc.   0 individual time (sec): cpu=         71.4  wall=         72.5

================================================================================

 Calculation completed.
.Delivered   10 WARNINGs and   6 COMMENTs to log file.
+Overall time at end (sec) : cpu=         71.4  wall=         72.5
