
.Version 7.9.3 of ABINIT 
.(MPI version, prepared for a x86_64_linux_gnu4.7 computer) 

.Copyright (C) 1998-2014 ABINIT group . 
 ABINIT comes with ABSOLUTELY NO WARRANTY.
 It is free software, and you are welcome to redistribute it
 under certain conditions (GNU General Public License,
 see ~abinit/COPYING or http://www.gnu.org/copyleft/gpl.txt).

 ABINIT is a project of the Universite Catholique de Louvain,
 Corning Inc. and other collaborators, see ~abinit/doc/developers/contributors.txt .
 Please read ~abinit/doc/users/acknowledgments.html for suggested
 acknowledgments of the ABINIT effort.
 For more information, see http://www.abinit.org .

.Starting date : Sat 30 Aug 2014.
- ( at 22h28 )
  
- input  file    -> tpaw2_2.in
- output file    -> tpaw2_2.out
- root for input  files -> tpaw2_2i
- root for output files -> tpaw2_2o


 DATASET    1 : space group Fm -3 m (#225); Bravais cF (face-center cubic)
================================================================================
 Values of the parameters that define the memory need for DATASET  1.
   intxc =         0  ionmov =         0    iscf =        17 xclevel =         2
  lmnmax =        18   lnmax =         6   mband =        12  mffmem =         1
P  mgfft =        18   mkmem =        60 mpssoang=         3     mpw =       209
  mqgrid =      3001   natom =         1    nfft =      5832    nkpt =        60
  nloalg =         4  nspden =         2 nspinor =         1  nsppol =         2
    nsym =        48  n1xccc =         1  ntypat =         1  occopt =         7
 PAW method is used; the additional fine FFT grid is defined by:
   mgfftf=        30    nfftf =     27000
================================================================================
P This job should need less than                      23.140 Mbytes of memory.
  Rough estimation (10% accuracy) of disk space for files :
_ WF disk file :      4.594 Mbytes ; DEN or POT disk file :      0.414 Mbytes.
================================================================================

--------------------------------------------------------------------------------
------------- Echo of variables that govern the present computation ------------
--------------------------------------------------------------------------------
-
- outvars: echo of selected default values                                      
-   accesswff0 =  0 , fftalg0 =112 , wfoptalg0 = 10
-
- outvars: echo of global parameters not present in the input file              
-  max_nthreads =    0
-
 -outvars: echo values of preprocessed input variables --------
            acell      6.6423873571E+00  6.6423873571E+00  6.6423873571E+00 Bohr
              amu      5.86900000E+01
             ecut      1.50000000E+01 Hartree
           ecutsm      5.00000000E-01 Hartree
-          fftalg         112
           getwfk          -1
              ixc          11
           jdtset        1
              kpt     -6.25000000E-02 -1.25000000E-01  0.00000000E+00
                      -6.25000000E-02 -2.50000000E-01  0.00000000E+00
                      -1.25000000E-01 -1.87500000E-01  0.00000000E+00
                      -6.25000000E-02 -1.87500000E-01  6.25000000E-02
                      -6.25000000E-02 -3.75000000E-01  0.00000000E+00
                      -1.25000000E-01 -3.12500000E-01  0.00000000E+00
                      -6.25000000E-02 -3.12500000E-01  6.25000000E-02
                      -1.87500000E-01 -2.50000000E-01  0.00000000E+00
                      -1.25000000E-01 -2.50000000E-01  6.25000000E-02
                      -6.25000000E-02 -2.50000000E-01  1.25000000E-01
                      -6.25000000E-02  5.00000000E-01  0.00000000E+00
                      -1.25000000E-01 -4.37500000E-01  0.00000000E+00
                      -6.25000000E-02 -4.37500000E-01  6.25000000E-02
                      -1.87500000E-01 -3.75000000E-01  0.00000000E+00
                      -1.25000000E-01 -3.75000000E-01  6.25000000E-02
                      -6.25000000E-02 -3.75000000E-01  1.25000000E-01
                      -2.50000000E-01 -3.12500000E-01  0.00000000E+00
                      -1.87500000E-01 -3.12500000E-01  6.25000000E-02
                      -1.25000000E-01 -3.12500000E-01  1.25000000E-01
                      -6.25000000E-02 -3.12500000E-01  1.87500000E-01
                      -6.25000000E-02  3.75000000E-01  0.00000000E+00
                      -1.25000000E-01  4.37500000E-01  0.00000000E+00
                      -1.87500000E-01  5.00000000E-01  0.00000000E+00
                      -1.25000000E-01  5.00000000E-01  6.25000000E-02
                      -2.50000000E-01 -4.37500000E-01  0.00000000E+00
                      -1.87500000E-01 -4.37500000E-01  6.25000000E-02
                      -1.25000000E-01 -4.37500000E-01  1.25000000E-01
                      -6.25000000E-02 -4.37500000E-01  1.87500000E-01
                      -3.12500000E-01 -3.75000000E-01  0.00000000E+00
                      -2.50000000E-01 -3.75000000E-01  6.25000000E-02
                      -1.87500000E-01 -3.75000000E-01  1.25000000E-01
                      -1.25000000E-01 -3.75000000E-01  1.87500000E-01
                      -6.25000000E-02 -3.75000000E-01  2.50000000E-01
                      -6.25000000E-02  2.50000000E-01  0.00000000E+00
                      -1.25000000E-01  3.12500000E-01  0.00000000E+00
                      -1.87500000E-01  3.75000000E-01  0.00000000E+00
                      -2.50000000E-01  4.37500000E-01  0.00000000E+00
                      -3.12500000E-01  5.00000000E-01  0.00000000E+00
                      -2.50000000E-01  5.00000000E-01  6.25000000E-02
                      -1.87500000E-01  5.00000000E-01  1.25000000E-01
                      -3.75000000E-01 -4.37500000E-01  0.00000000E+00
                      -3.12500000E-01 -4.37500000E-01  6.25000000E-02
                      -2.50000000E-01 -4.37500000E-01  1.25000000E-01
                      -1.87500000E-01 -4.37500000E-01  1.87500000E-01
                      -1.25000000E-01 -4.37500000E-01  2.50000000E-01
                      -6.25000000E-02 -4.37500000E-01  3.12500000E-01
                      -6.25000000E-02  1.25000000E-01  0.00000000E+00
                      -1.25000000E-01  1.87500000E-01  0.00000000E+00
                      -1.87500000E-01  2.50000000E-01  0.00000000E+00
                      -2.50000000E-01  3.12500000E-01  0.00000000E+00
                       outvar_i_n : Printing only first  50 k-points.
         kptrlatt        8   -8    8     -8    8    8     -8   -8    8
          kptrlen      5.31390989E+01
P           mkmem          60
            natom           1
            nband          12
           ndtset           1
            ngfft          18      18      18
          ngfftdg          30      30      30
             nkpt          60
           nspden           2
           nsppol           2
             nsym          48
           ntypat           1
              occ      1.000000  1.000000  1.000000  1.000000  1.000000  0.000000
                       0.000000  0.000000  0.000000  0.000000  0.000000  0.000000
                       1.000000  1.000000  1.000000  1.000000  1.000000  0.000000
                       0.000000  0.000000  0.000000  0.000000  0.000000  0.000000
                       1.000000  1.000000  1.000000  1.000000  1.000000  0.000000
                       0.000000  0.000000  0.000000  0.000000  0.000000  0.000000
                       1.000000  1.000000  1.000000  1.000000  1.000000  0.000000
                       0.000000  0.000000  0.000000  0.000000  0.000000  0.000000
                       1.000000  1.000000  1.000000  1.000000  1.000000  0.000000
                       0.000000  0.000000  0.000000  0.000000  0.000000  0.000000
                       1.000000  1.000000  1.000000  1.000000  1.000000  0.000000
                       0.000000  0.000000  0.000000  0.000000  0.000000  0.000000
                       1.000000  1.000000  1.000000  1.000000  1.000000  0.000000
                       0.000000  0.000000  0.000000  0.000000  0.000000  0.000000
                       1.000000  1.000000  1.000000  1.000000  1.000000  0.000000
                       0.000000  0.000000  0.000000  0.000000  0.000000  0.000000
                       1.000000  1.000000  1.000000  1.000000  1.000000  0.000000
                       0.000000  0.000000  0.000000  0.000000  0.000000  0.000000
                       1.000000  1.000000  1.000000  1.000000  1.000000  0.000000
                       0.000000  0.000000  0.000000  0.000000  0.000000  0.000000
                       1.000000  1.000000  1.000000  1.000000  1.000000  0.000000
                       0.000000  0.000000  0.000000  0.000000  0.000000  0.000000
                       1.000000  1.000000  1.000000  1.000000  1.000000  0.000000
                       0.000000  0.000000  0.000000  0.000000  0.000000  0.000000
                       1.000000  1.000000  1.000000  1.000000  1.000000  0.000000
                       0.000000  0.000000  0.000000  0.000000  0.000000  0.000000
                       1.000000  1.000000  1.000000  1.000000  1.000000  0.000000
                       0.000000  0.000000  0.000000  0.000000  0.000000  0.000000
                       1.000000  1.000000  1.000000  1.000000  1.000000  0.000000
                       0.000000  0.000000  0.000000  0.000000  0.000000  0.000000
                       1.000000  1.000000  1.000000  1.000000  1.000000  0.000000
                       0.000000  0.000000  0.000000  0.000000  0.000000  0.000000
                       1.000000  1.000000  1.000000  1.000000  1.000000  0.000000
                       0.000000  0.000000  0.000000  0.000000  0.000000  0.000000
                       1.000000  1.000000  1.000000  1.000000  1.000000  0.000000
                       0.000000  0.000000  0.000000  0.000000  0.000000  0.000000
                       1.000000  1.000000  1.000000  1.000000  1.000000  0.000000
                       0.000000  0.000000  0.000000  0.000000  0.000000  0.000000
                       1.000000  1.000000  1.000000  1.000000  1.000000  0.000000
                       0.000000  0.000000  0.000000  0.000000  0.000000  0.000000
                       1.000000  1.000000  1.000000  1.000000  1.000000  0.000000
                       0.000000  0.000000  0.000000  0.000000  0.000000  0.000000
                       1.000000  1.000000  1.000000  1.000000  1.000000  0.000000
                       0.000000  0.000000  0.000000  0.000000  0.000000  0.000000
                       1.000000  1.000000  1.000000  1.000000  1.000000  0.000000
                       0.000000  0.000000  0.000000  0.000000  0.000000  0.000000
                       1.000000  1.000000  1.000000  1.000000  1.000000  0.000000
                       0.000000  0.000000  0.000000  0.000000  0.000000  0.000000
                       1.000000  1.000000  1.000000  1.000000  1.000000  0.000000
                       0.000000  0.000000  0.000000  0.000000  0.000000  0.000000
                       1.000000  1.000000  1.000000  1.000000  1.000000  0.000000
                       0.000000  0.000000  0.000000  0.000000  0.000000  0.000000
                       1.000000  1.000000  1.000000  1.000000  1.000000  0.000000
                       0.000000  0.000000  0.000000  0.000000  0.000000  0.000000
                       1.000000  1.000000  1.000000  1.000000  1.000000  0.000000
                       0.000000  0.000000  0.000000  0.000000  0.000000  0.000000
                       1.000000  1.000000  1.000000  1.000000  1.000000  0.000000
                       0.000000  0.000000  0.000000  0.000000  0.000000  0.000000
                       1.000000  1.000000  1.000000  1.000000  1.000000  0.000000
                       0.000000  0.000000  0.000000  0.000000  0.000000  0.000000
                       1.000000  1.000000  1.000000  1.000000  1.000000  0.000000
                       0.000000  0.000000  0.000000  0.000000  0.000000  0.000000
                       1.000000  1.000000  1.000000  1.000000  1.000000  0.000000
                       0.000000  0.000000  0.000000  0.000000  0.000000  0.000000
                       1.000000  1.000000  1.000000  1.000000  1.000000  0.000000
                       0.000000  0.000000  0.000000  0.000000  0.000000  0.000000
                       1.000000  1.000000  1.000000  1.000000  1.000000  0.000000
                       0.000000  0.000000  0.000000  0.000000  0.000000  0.000000
                       1.000000  1.000000  1.000000  1.000000  1.000000  0.000000
                       0.000000  0.000000  0.000000  0.000000  0.000000  0.000000
                       1.000000  1.000000  1.000000  1.000000  1.000000  0.000000
                       0.000000  0.000000  0.000000  0.000000  0.000000  0.000000
                       1.000000  1.000000  1.000000  1.000000  1.000000  0.000000
                       0.000000  0.000000  0.000000  0.000000  0.000000  0.000000
                       1.000000  1.000000  1.000000  1.000000  1.000000  0.000000
                       0.000000  0.000000  0.000000  0.000000  0.000000  0.000000
                       1.000000  1.000000  1.000000  1.000000  1.000000  0.000000
                       0.000000  0.000000  0.000000  0.000000  0.000000  0.000000
                       1.000000  1.000000  1.000000  1.000000  1.000000  0.000000
                       0.000000  0.000000  0.000000  0.000000  0.000000  0.000000
                       1.000000  1.000000  1.000000  1.000000  1.000000  0.000000
                       0.000000  0.000000  0.000000  0.000000  0.000000  0.000000
                       1.000000  1.000000  1.000000  1.000000  1.000000  0.000000
                       0.000000  0.000000  0.000000  0.000000  0.000000  0.000000
                       1.000000  1.000000  1.000000  1.000000  1.000000  0.000000
                       0.000000  0.000000  0.000000  0.000000  0.000000  0.000000
                       1.000000  1.000000  1.000000  1.000000  1.000000  0.000000
                       0.000000  0.000000  0.000000  0.000000  0.000000  0.000000
                       1.000000  1.000000  1.000000  1.000000  1.000000  0.000000
                       0.000000  0.000000  0.000000  0.000000  0.000000  0.000000
                       1.000000  1.000000  1.000000  1.000000  1.000000  0.000000
                       0.000000  0.000000  0.000000  0.000000  0.000000  0.000000
                       1.000000  1.000000  1.000000  1.000000  1.000000  0.000000
                       0.000000  0.000000  0.000000  0.000000  0.000000  0.000000
                       1.000000  1.000000  1.000000  1.000000  1.000000  0.000000
                       0.000000  0.000000  0.000000  0.000000  0.000000  0.000000
                       1.000000  1.000000  1.000000  1.000000  1.000000  0.000000
                       0.000000  0.000000  0.000000  0.000000  0.000000  0.000000
                       1.000000  1.000000  1.000000  1.000000  1.000000  0.000000
                       0.000000  0.000000  0.000000  0.000000  0.000000  0.000000
                       prtocc : prtvol=0, do not print more k-points.
                       1.000000  1.000000  1.000000  1.000000  1.000000  0.000000
                       0.000000  0.000000  0.000000  0.000000  0.000000  0.000000
                       1.000000  1.000000  1.000000  1.000000  1.000000  0.000000
                       0.000000  0.000000  0.000000  0.000000  0.000000  0.000000
                       1.000000  1.000000  1.000000  1.000000  1.000000  0.000000
                       0.000000  0.000000  0.000000  0.000000  0.000000  0.000000
                       1.000000  1.000000  1.000000  1.000000  1.000000  0.000000
                       0.000000  0.000000  0.000000  0.000000  0.000000  0.000000
                       1.000000  1.000000  1.000000  1.000000  1.000000  0.000000
                       0.000000  0.000000  0.000000  0.000000  0.000000  0.000000
                       1.000000  1.000000  1.000000  1.000000  1.000000  0.000000
                       0.000000  0.000000  0.000000  0.000000  0.000000  0.000000
                       1.000000  1.000000  1.000000  1.000000  1.000000  0.000000
                       0.000000  0.000000  0.000000  0.000000  0.000000  0.000000
                       1.000000  1.000000  1.000000  1.000000  1.000000  0.000000
                       0.000000  0.000000  0.000000  0.000000  0.000000  0.000000
                       1.000000  1.000000  1.000000  1.000000  1.000000  0.000000
                       0.000000  0.000000  0.000000  0.000000  0.000000  0.000000
                       1.000000  1.000000  1.000000  1.000000  1.000000  0.000000
                       0.000000  0.000000  0.000000  0.000000  0.000000  0.000000
                       1.000000  1.000000  1.000000  1.000000  1.000000  0.000000
                       0.000000  0.000000  0.000000  0.000000  0.000000  0.000000
                       1.000000  1.000000  1.000000  1.000000  1.000000  0.000000
                       0.000000  0.000000  0.000000  0.000000  0.000000  0.000000
                       1.000000  1.000000  1.000000  1.000000  1.000000  0.000000
                       0.000000  0.000000  0.000000  0.000000  0.000000  0.000000
                       1.000000  1.000000  1.000000  1.000000  1.000000  0.000000
                       0.000000  0.000000  0.000000  0.000000  0.000000  0.000000
                       1.000000  1.000000  1.000000  1.000000  1.000000  0.000000
                       0.000000  0.000000  0.000000  0.000000  0.000000  0.000000
                       1.000000  1.000000  1.000000  1.000000  1.000000  0.000000
                       0.000000  0.000000  0.000000  0.000000  0.000000  0.000000
                       1.000000  1.000000  1.000000  1.000000  1.000000  0.000000
                       0.000000  0.000000  0.000000  0.000000  0.000000  0.000000
                       1.000000  1.000000  1.000000  1.000000  1.000000  0.000000
                       0.000000  0.000000  0.000000  0.000000  0.000000  0.000000
                       1.000000  1.000000  1.000000  1.000000  1.000000  0.000000
                       0.000000  0.000000  0.000000  0.000000  0.000000  0.000000
                       1.000000  1.000000  1.000000  1.000000  1.000000  0.000000
                       0.000000  0.000000  0.000000  0.000000  0.000000  0.000000
                       1.000000  1.000000  1.000000  1.000000  1.000000  0.000000
                       0.000000  0.000000  0.000000  0.000000  0.000000  0.000000
                       1.000000  1.000000  1.000000  1.000000  1.000000  0.000000
                       0.000000  0.000000  0.000000  0.000000  0.000000  0.000000
                       1.000000  1.000000  1.000000  1.000000  1.000000  0.000000
                       0.000000  0.000000  0.000000  0.000000  0.000000  0.000000
                       1.000000  1.000000  1.000000  1.000000  1.000000  0.000000
                       0.000000  0.000000  0.000000  0.000000  0.000000  0.000000
                       1.000000  1.000000  1.000000  1.000000  1.000000  0.000000
                       0.000000  0.000000  0.000000  0.000000  0.000000  0.000000
                       1.000000  1.000000  1.000000  1.000000  1.000000  0.000000
                       0.000000  0.000000  0.000000  0.000000  0.000000  0.000000
                       1.000000  1.000000  1.000000  1.000000  1.000000  0.000000
                       0.000000  0.000000  0.000000  0.000000  0.000000  0.000000
                       1.000000  1.000000  1.000000  1.000000  1.000000  0.000000
                       0.000000  0.000000  0.000000  0.000000  0.000000  0.000000
                       1.000000  1.000000  1.000000  1.000000  1.000000  0.000000
                       0.000000  0.000000  0.000000  0.000000  0.000000  0.000000
                       1.000000  1.000000  1.000000  1.000000  1.000000  0.000000
                       0.000000  0.000000  0.000000  0.000000  0.000000  0.000000
                       1.000000  1.000000  1.000000  1.000000  1.000000  0.000000
                       0.000000  0.000000  0.000000  0.000000  0.000000  0.000000
                       1.000000  1.000000  1.000000  1.000000  1.000000  0.000000
                       0.000000  0.000000  0.000000  0.000000  0.000000  0.000000
                       1.000000  1.000000  1.000000  1.000000  1.000000  0.000000
                       0.000000  0.000000  0.000000  0.000000  0.000000  0.000000
                       1.000000  1.000000  1.000000  1.000000  1.000000  0.000000
                       0.000000  0.000000  0.000000  0.000000  0.000000  0.000000
                       1.000000  1.000000  1.000000  1.000000  1.000000  0.000000
                       0.000000  0.000000  0.000000  0.000000  0.000000  0.000000
                       1.000000  1.000000  1.000000  1.000000  1.000000  0.000000
                       0.000000  0.000000  0.000000  0.000000  0.000000  0.000000
                       1.000000  1.000000  1.000000  1.000000  1.000000  0.000000
                       0.000000  0.000000  0.000000  0.000000  0.000000  0.000000
                       1.000000  1.000000  1.000000  1.000000  1.000000  0.000000
                       0.000000  0.000000  0.000000  0.000000  0.000000  0.000000
                       1.000000  1.000000  1.000000  1.000000  1.000000  0.000000
                       0.000000  0.000000  0.000000  0.000000  0.000000  0.000000
                       1.000000  1.000000  1.000000  1.000000  1.000000  0.000000
                       0.000000  0.000000  0.000000  0.000000  0.000000  0.000000
                       1.000000  1.000000  1.000000  1.000000  1.000000  0.000000
                       0.000000  0.000000  0.000000  0.000000  0.000000  0.000000
                       1.000000  1.000000  1.000000  1.000000  1.000000  0.000000
                       0.000000  0.000000  0.000000  0.000000  0.000000  0.000000
                       1.000000  1.000000  1.000000  1.000000  1.000000  0.000000
                       0.000000  0.000000  0.000000  0.000000  0.000000  0.000000
                       1.000000  1.000000  1.000000  1.000000  1.000000  0.000000
                       0.000000  0.000000  0.000000  0.000000  0.000000  0.000000
                       1.000000  1.000000  1.000000  1.000000  1.000000  0.000000
                       0.000000  0.000000  0.000000  0.000000  0.000000  0.000000
                       1.000000  1.000000  1.000000  1.000000  1.000000  0.000000
                       0.000000  0.000000  0.000000  0.000000  0.000000  0.000000
                       1.000000  1.000000  1.000000  1.000000  1.000000  0.000000
                       0.000000  0.000000  0.000000  0.000000  0.000000  0.000000
                       1.000000  1.000000  1.000000  1.000000  1.000000  0.000000
                       0.000000  0.000000  0.000000  0.000000  0.000000  0.000000
                       1.000000  1.000000  1.000000  1.000000  1.000000  0.000000
                       0.000000  0.000000  0.000000  0.000000  0.000000  0.000000
                       1.000000  1.000000  1.000000  1.000000  1.000000  0.000000
                       0.000000  0.000000  0.000000  0.000000  0.000000  0.000000
                       prtocc : prtvol=0, do not print more k-points.
           occopt           7
        pawecutdg      4.00000000E+01 Hartree
           prtden           0
           prteig           0
            rprim      0.0000000000E+00  5.0000000000E-01  5.0000000000E-01
                       5.0000000000E-01  0.0000000000E+00  5.0000000000E-01
                       5.0000000000E-01  5.0000000000E-01  0.0000000000E+00
           shiftk      5.00000000E-01  5.00000000E-01  5.00000000E-01
          spgroup         225
           spinat      0.0000000000E+00  0.0000000000E+00  4.0000000000E+00
           symrel      1  0  0   0  1  0   0  0  1      -1  0  0   0 -1  0   0  0 -1
                       0 -1  1   0 -1  0   1 -1  0       0  1 -1   0  1  0  -1  1  0
                      -1  0  0  -1  0  1  -1  1  0       1  0  0   1  0 -1   1 -1  0
                       0  1 -1   1  0 -1   0  0 -1       0 -1  1  -1  0  1   0  0  1
                      -1  0  0  -1  1  0  -1  0  1       1  0  0   1 -1  0   1  0 -1
                       0 -1  1   1 -1  0   0 -1  0       0  1 -1  -1  1  0   0  1  0
                       1  0  0   0  0  1   0  1  0      -1  0  0   0  0 -1   0 -1  0
                       0  1 -1   0  0 -1   1  0 -1       0 -1  1   0  0  1  -1  0  1
                      -1  0  1  -1  1  0  -1  0  0       1  0 -1   1 -1  0   1  0  0
                       0 -1  0   1 -1  0   0 -1  1       0  1  0  -1  1  0   0  1 -1
                       1  0 -1   0  0 -1   0  1 -1      -1  0  1   0  0  1   0 -1  1
                       0  1  0   0  0  1   1  0  0       0 -1  0   0  0 -1  -1  0  0
                       1  0 -1   0  1 -1   0  0 -1      -1  0  1   0 -1  1   0  0  1
                       0 -1  0   0 -1  1   1 -1  0       0  1  0   0  1 -1  -1  1  0
                      -1  0  1  -1  0  0  -1  1  0       1  0 -1   1  0  0   1 -1  0
                       0  1  0   1  0  0   0  0  1       0 -1  0  -1  0  0   0  0 -1
                       0  0 -1   0  1 -1   1  0 -1       0  0  1   0 -1  1  -1  0  1
                       1 -1  0   0 -1  1   0 -1  0      -1  1  0   0  1 -1   0  1  0
                       0  0  1   1  0  0   0  1  0       0  0 -1  -1  0  0   0 -1  0
                      -1  1  0  -1  0  0  -1  0  1       1 -1  0   1  0  0   1  0 -1
                       0  0  1   0  1  0   1  0  0       0  0 -1   0 -1  0  -1  0  0
                       1 -1  0   0 -1  0   0 -1  1      -1  1  0   0  1  0   0  1 -1
                       0  0 -1   1  0 -1   0  1 -1       0  0  1  -1  0  1   0 -1  1
                      -1  1  0  -1  0  1  -1  0  0       1 -1  0   1  0 -1   1  0  0
           tolvrs      1.00000000E-12
           tsmear      7.50000000E-03 Hartree
            typat      1
           useylm           1
              wtk        0.01172    0.01172    0.01172    0.02344    0.01172    0.01172
                         0.02344    0.01172    0.02344    0.02344    0.01172    0.01172
                         0.02344    0.01172    0.02344    0.02344    0.01172    0.02344
                         0.02344    0.02344    0.01172    0.01172    0.01172    0.02344
                         0.01172    0.02344    0.02344    0.02344    0.01172    0.02344
                         0.02344    0.02344    0.02344    0.01172    0.01172    0.01172
                         0.01172    0.01172    0.02344    0.02344    0.01172    0.02344
                         0.02344    0.02344    0.02344    0.02344    0.01172    0.01172
                         0.01172    0.01172
                       outvars : Printing only first  50 k-points.
            znucl       28.00000

================================================================================

 chkinp: Checking input parameters for consistency, jdtset=   1.

================================================================================
== DATASET  1 ==================================================================
-   nproc =    1

 Exchange-correlation functional for the present dataset will be:
  GGA: Perdew-Burke-Ernzerhof functional - ixc=11
 Citation for XC functional:
  J.P.Perdew, K.Burke, M.Ernzerhof, PRL 77, 3865 (1996)

 Real(R)+Recip(G) space primitive vectors, cartesian coordinates (Bohr,Bohr^-1):
 R(1)=  0.0000000  3.3211937  3.3211937  G(1)= -0.1505483  0.1505483  0.1505483
 R(2)=  3.3211937  0.0000000  3.3211937  G(2)=  0.1505483 -0.1505483  0.1505483
 R(3)=  3.3211937  3.3211937  0.0000000  G(3)=  0.1505483  0.1505483 -0.1505483
 Unit cell volume ucvol=  7.3267708E+01 bohr^3
 Angles (23,13,12)=  6.00000000E+01  6.00000000E+01  6.00000000E+01 degrees

 Coarse grid specifications (used for wave-functions):

 getcut: wavevector=  0.0000  0.0000  0.0000  ngfft=  18  18  18
         ecut(hartree)=     15.000   => boxcut(ratio)=   2.20490

 getcut : COMMENT -
  Note that boxcut > 2.2 ; recall that boxcut=Gcut(box)/Gcut(sphere) = 2
  is sufficient for exact treatment of convolution.
  Such a large boxcut is a waste : you could raise ecut
  e.g. ecut=   18.230936 Hartrees makes boxcut=2


 Fine grid specifications (used for densities):

 getcut: wavevector=  0.0000  0.0000  0.0000  ngfft=  30  30  30
         ecut(hartree)=     40.000   => boxcut(ratio)=   2.24594

 getcut : COMMENT -
  Note that boxcut > 2.2 ; recall that boxcut=Gcut(box)/Gcut(sphere) = 2
  is sufficient for exact treatment of convolution.
  Such a large boxcut is a waste : you could raise ecut
  e.g. ecut=   50.442650 Hartrees makes boxcut=2


--- Pseudopotential description ------------------------------------------------
- pspini: atom type   1  psp file is /home/gonze/ABINIT/ABINITv7.9.3/trunk/7.9.3-private/tests/Psps_for_tests/Ni.GGA-PBE-paw.abinit.rrkj
- pspatm: opening atomic psp file    /home/gonze/ABINIT/ABINITv7.9.3/trunk/7.9.3-private/tests/Psps_for_tests/Ni.GGA-PBE-paw.abinit.rrkj
- Paw atomic data for element Ni - Generated by atompaw v3.0.1 & AtomPAW2Abinit v3.3.1
- 28.00000  10.00000  20110216                znucl, zion, pspdat
    7   11    2    0       495   0.00000      pspcod,pspxc,lmax,lloc,mmax,r2well
 Pseudopotential format is: paw5
 basis_size (lnmax)=  6 (lmn_size= 18), orbitals=   0   0   1   1   2   2
 Spheres core radius: rc_sph= 2.31145012
 5 radial meshes are used:
  - mesh 1: r(i)=AA*[exp(BB*(i-1))-1], size= 495 , AA= 0.60270E-03 BB= 0.16876E-01
  - mesh 2: r(i)=AA*[exp(BB*(i-1))-1], size= 490 , AA= 0.60270E-03 BB= 0.16876E-01
  - mesh 3: r(i)=AA*[exp(BB*(i-1))-1], size= 533 , AA= 0.60270E-03 BB= 0.16876E-01
  - mesh 4: r(i)=AA*[exp(BB*(i-1))-1], size= 576 , AA= 0.60270E-03 BB= 0.16876E-01
  - mesh 5: r(i)=AA*[exp(BB*(i-1))-1], size= 606 , AA= 0.60270E-03 BB= 0.16876E-01
 Shapefunction is SIN type: shapef(r)=[sin(pi*r/rshp)/(pi*r/rshp)]**2
 Radius for shape functions = sphere core radius
 Radial grid used for partial waves is grid 1
 Radial grid used for projectors is grid  2
 Radial grid used for (t)core density is grid 3
 Radial grid used for Vloc is grid 4
 Radial grid used for pseudo valence density is grid 5
 Compensation charge density is not taken into account in XC energy/potential
 pspatm: atomic psp has been read  and splines computed

   1.97852486E+02                                ecore*ucvol(ha*bohr**3)
--------------------------------------------------------------------------------

P newkpt: treating     12 bands with npw=     189 for ikpt=   1 by node    0
P newkpt: treating     12 bands with npw=     198 for ikpt=   2 by node    0
P newkpt: treating     12 bands with npw=     196 for ikpt=   3 by node    0
P newkpt: treating     12 bands with npw=     200 for ikpt=   4 by node    0
P newkpt: treating     12 bands with npw=     204 for ikpt=   5 by node    0
P newkpt: treating     12 bands with npw=     200 for ikpt=   6 by node    0
P newkpt: treating     12 bands with npw=     202 for ikpt=   7 by node    0
P newkpt: treating     12 bands with npw=     205 for ikpt=   8 by node    0
P newkpt: treating     12 bands with npw=     200 for ikpt=   9 by node    0
P newkpt: treating     12 bands with npw=     203 for ikpt=  10 by node    0
P newkpt: treating     12 bands with npw=     204 for ikpt=  11 by node    0
P newkpt: treating     12 bands with npw=     204 for ikpt=  12 by node    0
P newkpt: treating     12 bands with npw=     204 for ikpt=  13 by node    0
P newkpt: treating     12 bands with npw=     205 for ikpt=  14 by node    0
P newkpt: treating     12 bands with npw=     203 for ikpt=  15 by node    0
P newkpt: treating     12 bands with npw=     203 for ikpt=  16 by node    0
P newkpt: treating     12 bands with npw=     207 for ikpt=  17 by node    0
P newkpt: treating     12 bands with npw=     205 for ikpt=  18 by node    0
P newkpt: treating     12 bands with npw=     203 for ikpt=  19 by node    0
P newkpt: treating     12 bands with npw=     205 for ikpt=  20 by node    0
P newkpt: treating     12 bands with npw=     204 for ikpt=  21 by node    0
P newkpt: treating     12 bands with npw=     206 for ikpt=  22 by node    0
P newkpt: treating     12 bands with npw=     203 for ikpt=  23 by node    0
P newkpt: treating     12 bands with npw=     205 for ikpt=  24 by node    0
P newkpt: treating     12 bands with npw=     203 for ikpt=  25 by node    0
P newkpt: treating     12 bands with npw=     202 for ikpt=  26 by node    0
P newkpt: treating     12 bands with npw=     202 for ikpt=  27 by node    0
P newkpt: treating     12 bands with npw=     204 for ikpt=  28 by node    0
P newkpt: treating     12 bands with npw=     205 for ikpt=  29 by node    0
P newkpt: treating     12 bands with npw=     206 for ikpt=  30 by node    0
P newkpt: treating     12 bands with npw=     203 for ikpt=  31 by node    0
P newkpt: treating     12 bands with npw=     202 for ikpt=  32 by node    0
P newkpt: treating     12 bands with npw=     203 for ikpt=  33 by node    0
P newkpt: treating     12 bands with npw=     200 for ikpt=  34 by node    0
P newkpt: treating     12 bands with npw=     205 for ikpt=  35 by node    0
P newkpt: treating     12 bands with npw=     205 for ikpt=  36 by node    0
P newkpt: treating     12 bands with npw=     206 for ikpt=  37 by node    0
P newkpt: treating     12 bands with npw=     209 for ikpt=  38 by node    0
P newkpt: treating     12 bands with npw=     205 for ikpt=  39 by node    0
P newkpt: treating     12 bands with npw=     204 for ikpt=  40 by node    0
P newkpt: treating     12 bands with npw=     206 for ikpt=  41 by node    0
P newkpt: treating     12 bands with npw=     204 for ikpt=  42 by node    0
P newkpt: treating     12 bands with npw=     205 for ikpt=  43 by node    0
P newkpt: treating     12 bands with npw=     205 for ikpt=  44 by node    0
P newkpt: treating     12 bands with npw=     206 for ikpt=  45 by node    0
P newkpt: treating     12 bands with npw=     206 for ikpt=  46 by node    0
P newkpt: treating     12 bands with npw=     194 for ikpt=  47 by node    0
P newkpt: treating     12 bands with npw=     202 for ikpt=  48 by node    0
P newkpt: treating     12 bands with npw=     206 for ikpt=  49 by node    0
P newkpt: treating     12 bands with npw=     202 for ikpt=  50 by node    0
 newkpt: prtvol=0 or 1, do not print more k-points.
P newkpt: treating     12 bands with npw=     189 for ikpt=   1 by node    0
P newkpt: treating     12 bands with npw=     198 for ikpt=   2 by node    0
P newkpt: treating     12 bands with npw=     196 for ikpt=   3 by node    0
P newkpt: treating     12 bands with npw=     200 for ikpt=   4 by node    0
P newkpt: treating     12 bands with npw=     204 for ikpt=   5 by node    0
P newkpt: treating     12 bands with npw=     200 for ikpt=   6 by node    0
P newkpt: treating     12 bands with npw=     202 for ikpt=   7 by node    0
P newkpt: treating     12 bands with npw=     205 for ikpt=   8 by node    0
P newkpt: treating     12 bands with npw=     200 for ikpt=   9 by node    0
P newkpt: treating     12 bands with npw=     203 for ikpt=  10 by node    0
P newkpt: treating     12 bands with npw=     204 for ikpt=  11 by node    0
P newkpt: treating     12 bands with npw=     204 for ikpt=  12 by node    0
P newkpt: treating     12 bands with npw=     204 for ikpt=  13 by node    0
P newkpt: treating     12 bands with npw=     205 for ikpt=  14 by node    0
P newkpt: treating     12 bands with npw=     203 for ikpt=  15 by node    0
P newkpt: treating     12 bands with npw=     203 for ikpt=  16 by node    0
P newkpt: treating     12 bands with npw=     207 for ikpt=  17 by node    0
P newkpt: treating     12 bands with npw=     205 for ikpt=  18 by node    0
P newkpt: treating     12 bands with npw=     203 for ikpt=  19 by node    0
P newkpt: treating     12 bands with npw=     205 for ikpt=  20 by node    0
P newkpt: treating     12 bands with npw=     204 for ikpt=  21 by node    0
P newkpt: treating     12 bands with npw=     206 for ikpt=  22 by node    0
P newkpt: treating     12 bands with npw=     203 for ikpt=  23 by node    0
P newkpt: treating     12 bands with npw=     205 for ikpt=  24 by node    0
P newkpt: treating     12 bands with npw=     203 for ikpt=  25 by node    0
P newkpt: treating     12 bands with npw=     202 for ikpt=  26 by node    0
P newkpt: treating     12 bands with npw=     202 for ikpt=  27 by node    0
P newkpt: treating     12 bands with npw=     204 for ikpt=  28 by node    0
P newkpt: treating     12 bands with npw=     205 for ikpt=  29 by node    0
P newkpt: treating     12 bands with npw=     206 for ikpt=  30 by node    0
P newkpt: treating     12 bands with npw=     203 for ikpt=  31 by node    0
P newkpt: treating     12 bands with npw=     202 for ikpt=  32 by node    0
P newkpt: treating     12 bands with npw=     203 for ikpt=  33 by node    0
P newkpt: treating     12 bands with npw=     200 for ikpt=  34 by node    0
P newkpt: treating     12 bands with npw=     205 for ikpt=  35 by node    0
P newkpt: treating     12 bands with npw=     205 for ikpt=  36 by node    0
P newkpt: treating     12 bands with npw=     206 for ikpt=  37 by node    0
P newkpt: treating     12 bands with npw=     209 for ikpt=  38 by node    0
P newkpt: treating     12 bands with npw=     205 for ikpt=  39 by node    0
P newkpt: treating     12 bands with npw=     204 for ikpt=  40 by node    0
P newkpt: treating     12 bands with npw=     206 for ikpt=  41 by node    0
P newkpt: treating     12 bands with npw=     204 for ikpt=  42 by node    0
P newkpt: treating     12 bands with npw=     205 for ikpt=  43 by node    0
P newkpt: treating     12 bands with npw=     205 for ikpt=  44 by node    0
P newkpt: treating     12 bands with npw=     206 for ikpt=  45 by node    0
P newkpt: treating     12 bands with npw=     206 for ikpt=  46 by node    0
P newkpt: treating     12 bands with npw=     194 for ikpt=  47 by node    0
P newkpt: treating     12 bands with npw=     202 for ikpt=  48 by node    0
P newkpt: treating     12 bands with npw=     206 for ikpt=  49 by node    0
P newkpt: treating     12 bands with npw=     202 for ikpt=  50 by node    0
 newkpt: prtvol=0 or 1, do not print more k-points.

_setup2: Arith. and geom. avg. npw (full set) are     203.508     203.480

================================================================================

     iter   Etot(hartree)     deltaE(h) residm    nres2    magn
 ETOT  1  -41.410898491962    -4.14E+01 6.93E+01 5.12E+02 1.428
 ETOT  2  -43.058643754366    -1.65E+00 5.52E+00 5.75E+02 0.000
 ETOT  3  -39.756779720819     3.30E+00 2.04E+01 1.17E+02 0.287
 ETOT  4  -39.572760482142     1.84E-01 2.92E+00 2.90E-01 0.581
 ETOT  5  -39.607982377395    -3.52E-02 1.84E+00 2.48E+00 0.567
 ETOT  6  -39.625693154990    -1.77E-02 5.32E-01 4.34E-02 0.597
 ETOT  7  -39.640155796043    -1.45E-02 2.63E-01 3.49E+00 0.549
 ETOT  8  -39.628233332095     1.19E-02 1.35E-01 5.83E-02 0.596
 ETOT  9  -39.629315033050    -1.08E-03 4.53E-02 1.28E-01 0.593
 ETOT 10  -39.629345199081    -3.02E-05 1.62E-02 1.01E-01 0.593
 ETOT 11  -39.628955993428     3.89E-04 1.87E-02 3.50E-02 0.597
 ETOT 12  -39.628850146409     1.06E-04 9.06E-03 2.08E-02 0.598
 ETOT 13  -39.628751601598     9.85E-05 3.77E-03 6.84E-03 0.600
 ETOT 14  -39.628719852817     3.17E-05 4.02E-03 9.04E-04 0.603
 ETOT 15  -39.628728113414    -8.26E-06 1.18E-02 5.08E-04 0.603
 ETOT 16  -39.628726906040     1.21E-06 2.65E-03 6.08E-05 0.602
 ETOT 17  -39.628726998712    -9.27E-08 2.96E-03 1.17E-04 0.602
 ETOT 18  -39.628726916936     8.18E-08 1.92E-03 1.39E-04 0.602
 ETOT 19  -39.628726930676    -1.37E-08 2.97E-03 1.50E-04 0.602
 ETOT 20  -39.628726940440    -9.76E-09 1.68E-03 1.79E-04 0.602
 ETOT 21  -39.628726969551    -2.91E-08 2.87E-03 1.60E-04 0.602
 ETOT 22  -39.628726952057     1.75E-08 1.66E-03 1.94E-04 0.602
 ETOT 23  -39.628727146048    -1.94E-07 2.59E-03 3.31E-05 0.602
 ETOT 24  -39.628727105940     4.01E-08 1.57E-03 3.32E-06 0.602
 ETOT 25  -39.628727110380    -4.44E-09 2.24E-03 1.51E-07 0.602
 ETOT 26  -39.628727110802    -4.22E-10 1.37E-03 7.52E-08 0.602
 ETOT 27  -39.628727110725     7.65E-11 1.83E-03 3.04E-09 0.602
 ETOT 28  -39.628727110838    -1.12E-10 1.10E-03 3.54E-10 0.602
 ETOT 29  -39.628727110839    -1.40E-12 1.43E-03 1.48E-10 0.602
 ETOT 30  -39.628727110836     2.89E-12 7.84E-04 8.40E-11 0.602

 Cartesian components of stress tensor (hartree/bohr^3)
  sigma(1 1)= -3.47557705E-05  sigma(3 2)=  0.00000000E+00
  sigma(2 2)= -3.47557705E-05  sigma(3 1)=  0.00000000E+00
  sigma(3 3)= -3.47557705E-05  sigma(2 1)=  0.00000000E+00


 scprqt:  WARNING -
  nstep=   30 was not enough SCF cycles to converge;
  density residual=  8.404E-11 exceeds tolvrs=  1.000E-12


 PAW TEST:
 ==== Compensation charge inside spheres ============
 The following values must be close to each other ...
 Compensation charge over spherical meshes =      6.093032842789022
 Compensation charge over fine fft grid    =      6.093043034450139

 ==== Results concerning PAW augmentation regions ====

 Total pseudopotential strength Dij (hartree):
 Atom #  1 - Spin component 1
   0.39359  -0.04137   0.00000   0.00000   0.00000   0.00000   0.00000   0.00000   0.00000   0.00000   0.00000   0.00000 ...
  -0.04137  17.24826   0.00000   0.00000   0.00000   0.00000   0.00000   0.00000   0.00000   0.00000   0.00000   0.00000 ...
   0.00000   0.00000   0.05768   0.00000   0.00000   0.04209   0.00000   0.00000   0.00000   0.00000   0.00000   0.00000 ...
   0.00000   0.00000   0.00000   0.05768   0.00000   0.00000   0.04209   0.00000   0.00000   0.00000   0.00000   0.00000 ...
   0.00000   0.00000   0.00000   0.00000   0.05768   0.00000   0.00000   0.04209   0.00000   0.00000   0.00000   0.00000 ...
   0.00000   0.00000   0.04209   0.00000   0.00000   9.49721   0.00000   0.00000   0.00000   0.00000   0.00000   0.00000 ...
   0.00000   0.00000   0.00000   0.04209   0.00000   0.00000   9.49721   0.00000   0.00000   0.00000   0.00000   0.00000 ...
   0.00000   0.00000   0.00000   0.00000   0.04209   0.00000   0.00000   9.49721   0.00000   0.00000   0.00000   0.00000 ...
   0.00000   0.00000   0.00000   0.00000   0.00000   0.00000   0.00000   0.00000   0.03518   0.00000   0.00000   0.00000 ...
   0.00000   0.00000   0.00000   0.00000   0.00000   0.00000   0.00000   0.00000   0.00000   0.03518   0.00000   0.00000 ...
   0.00000   0.00000   0.00000   0.00000   0.00000   0.00000   0.00000   0.00000   0.00000   0.00000   0.03875   0.00000 ...
   0.00000   0.00000   0.00000   0.00000   0.00000   0.00000   0.00000   0.00000   0.00000   0.00000   0.00000   0.03518 ...
   ...  only 12  components have been written...
 Atom #  1 - Spin component 2
   0.39412  -0.04037   0.00000   0.00000   0.00000   0.00000   0.00000   0.00000   0.00000   0.00000   0.00000   0.00000 ...
  -0.04037  17.32127   0.00000   0.00000   0.00000   0.00000   0.00000   0.00000   0.00000   0.00000   0.00000   0.00000 ...
   0.00000   0.00000   0.05805   0.00000   0.00000   0.04588   0.00000   0.00000   0.00000   0.00000   0.00000   0.00000 ...
   0.00000   0.00000   0.00000   0.05805   0.00000   0.00000   0.04588   0.00000   0.00000   0.00000   0.00000   0.00000 ...
   0.00000   0.00000   0.00000   0.00000   0.05805   0.00000   0.00000   0.04588   0.00000   0.00000   0.00000   0.00000 ...
   0.00000   0.00000   0.04588   0.00000   0.00000   9.58089   0.00000   0.00000   0.00000   0.00000   0.00000   0.00000 ...
   0.00000   0.00000   0.00000   0.04588   0.00000   0.00000   9.58089   0.00000   0.00000   0.00000   0.00000   0.00000 ...
   0.00000   0.00000   0.00000   0.00000   0.04588   0.00000   0.00000   9.58089   0.00000   0.00000   0.00000   0.00000 ...
   0.00000   0.00000   0.00000   0.00000   0.00000   0.00000   0.00000   0.00000   0.06027   0.00000   0.00000   0.00000 ...
   0.00000   0.00000   0.00000   0.00000   0.00000   0.00000   0.00000   0.00000   0.00000   0.06027   0.00000   0.00000 ...
   0.00000   0.00000   0.00000   0.00000   0.00000   0.00000   0.00000   0.00000   0.00000   0.00000   0.06034   0.00000 ...
   0.00000   0.00000   0.00000   0.00000   0.00000   0.00000   0.00000   0.00000   0.00000   0.00000   0.00000   0.06027 ...
   ...  only 12  components have been written...


 Augmentation waves occupancies Rhoij:
 Atom #  1 - Spin component 1
   0.53111   0.00394   0.00000   0.00000   0.00000   0.00000   0.00000   0.00000   0.00000   0.00000   0.00000   0.00000 ...
   0.00394   0.00003   0.00000   0.00000   0.00000   0.00000   0.00000   0.00000   0.00000   0.00000   0.00000   0.00000 ...
   0.00000   0.00000   0.48114   0.00000   0.00000   0.00211   0.00000   0.00000   0.00000   0.00000   0.00000   0.00000 ...
   0.00000   0.00000   0.00000   0.48114   0.00000   0.00000   0.00211   0.00000   0.00000   0.00000   0.00000   0.00000 ...
   0.00000   0.00000   0.00000   0.00000   0.48114   0.00000   0.00000   0.00211   0.00000   0.00000   0.00000   0.00000 ...
   0.00000   0.00000   0.00211   0.00000   0.00000   0.00001   0.00000   0.00000   0.00000   0.00000   0.00000   0.00000 ...
   0.00000   0.00000   0.00000   0.00211   0.00000   0.00000   0.00001   0.00000   0.00000   0.00000   0.00000   0.00000 ...
   0.00000   0.00000   0.00000   0.00000   0.00211   0.00000   0.00000   0.00001   0.00000   0.00000   0.00000   0.00000 ...
   0.00000   0.00000   0.00000   0.00000   0.00000   0.00000   0.00000   0.00000   1.02801   0.00000   0.00000   0.00000 ...
   0.00000   0.00000   0.00000   0.00000   0.00000   0.00000   0.00000   0.00000   0.00000   1.02801   0.00000   0.00000 ...
   0.00000   0.00000   0.00000   0.00000   0.00000   0.00000   0.00000   0.00000   0.00000   0.00000   1.02794   0.00000 ...
   0.00000   0.00000   0.00000   0.00000   0.00000   0.00000   0.00000   0.00000   0.00000   0.00000   0.00000   1.02801 ...
   ...  only 12  components have been written...
 Atom #  1 - Spin component 2
   0.53804   0.00419   0.00000   0.00000   0.00000   0.00000   0.00000   0.00000   0.00000   0.00000   0.00000   0.00000 ...
   0.00419   0.00003   0.00000   0.00000   0.00000   0.00000   0.00000   0.00000   0.00000   0.00000   0.00000   0.00000 ...
   0.00000   0.00000   0.52890   0.00000   0.00000   0.00237   0.00000   0.00000   0.00000   0.00000   0.00000   0.00000 ...
   0.00000   0.00000   0.00000   0.52890   0.00000   0.00000   0.00237   0.00000   0.00000   0.00000   0.00000   0.00000 ...
   0.00000   0.00000   0.00000   0.00000   0.52890   0.00000   0.00000   0.00237   0.00000   0.00000   0.00000   0.00000 ...
   0.00000   0.00000   0.00237   0.00000   0.00000   0.00001   0.00000   0.00000   0.00000   0.00000   0.00000   0.00000 ...
   0.00000   0.00000   0.00000   0.00237   0.00000   0.00000   0.00001   0.00000   0.00000   0.00000   0.00000   0.00000 ...
   0.00000   0.00000   0.00000   0.00000   0.00237   0.00000   0.00000   0.00001   0.00000   0.00000   0.00000   0.00000 ...
   0.00000   0.00000   0.00000   0.00000   0.00000   0.00000   0.00000   0.00000   0.91083   0.00000   0.00000   0.00000 ...
   0.00000   0.00000   0.00000   0.00000   0.00000   0.00000   0.00000   0.00000   0.00000   0.91083   0.00000   0.00000 ...
   0.00000   0.00000   0.00000   0.00000   0.00000   0.00000   0.00000   0.00000   0.00000   0.00000   0.97025   0.00000 ...
   0.00000   0.00000   0.00000   0.00000   0.00000   0.00000   0.00000   0.00000   0.00000   0.00000   0.00000   0.91083 ...
   ...  only 12  components have been written...


================================================================================

 ----iterations are completed or convergence reached----

 Mean square residual over all n,k,spin=   1.7388E-06; max=  7.8357E-04
  -0.0625 -0.1250  0.0000    1  2.45950E-05 kpt; spin; max resid(k); each band:
  5.20E-14 2.57E-14 1.73E-14 4.42E-14 5.83E-15 3.03E-15 1.19E-12 8.35E-13
  5.19E-14 6.18E-13 1.74E-11 2.46E-05
  -0.0625 -0.2500  0.0000    1  2.22468E-04 kpt; spin; max resid(k); each band:
  8.40E-14 6.10E-14 3.45E-14 4.54E-14 1.69E-14 2.50E-14 8.08E-14 4.66E-14
  5.58E-13 7.19E-13 2.59E-12 2.22E-04
  -0.1250 -0.1875  0.0000    1  2.15685E-09 kpt; spin; max resid(k); each band:
  3.73E-14 8.53E-14 8.16E-14 1.96E-14 1.75E-14 2.48E-15 9.87E-14 3.51E-13
  1.25E-13 1.26E-13 4.31E-14 2.16E-09
  -0.0625 -0.1875  0.0625    1  2.87368E-10 kpt; spin; max resid(k); each band:
  2.30E-14 5.05E-14 3.36E-14 5.53E-14 9.03E-15 1.39E-14 8.92E-14 4.93E-14
  1.60E-13 3.31E-13 1.32E-11 2.87E-10
  -0.0625 -0.3750  0.0000    1  2.14739E-12 kpt; spin; max resid(k); each band:
  7.16E-13 1.26E-13 2.17E-13 9.54E-14 1.43E-13 3.29E-14 4.37E-13 1.78E-13
  6.05E-13 3.97E-13 2.15E-12 1.68E-12
  -0.1250 -0.3125  0.0000    1  1.72390E-11 kpt; spin; max resid(k); each band:
  1.00E-13 1.64E-13 1.46E-13 3.36E-14 4.52E-14 2.49E-14 2.80E-13 1.66E-13
  5.48E-14 1.66E-13 1.73E-13 1.72E-11
  -0.0625 -0.3125  0.0625    1  2.18668E-12 kpt; spin; max resid(k); each band:
  3.96E-13 5.57E-14 5.33E-14 1.63E-13 9.80E-14 1.77E-14 5.21E-13 8.45E-14
  2.81E-14 9.71E-14 2.19E-12 1.20E-12
  -0.1875 -0.2500  0.0000    1  3.96732E-07 kpt; spin; max resid(k); each band:
  2.11E-14 6.27E-14 1.86E-13 1.95E-14 1.61E-13 8.17E-16 5.74E-14 6.55E-14
  2.19E-13 9.48E-14 3.75E-14 3.97E-07
  -0.1250 -0.2500  0.0625    1  7.37063E-10 kpt; spin; max resid(k); each band:
  4.61E-14 9.70E-14 1.74E-14 1.10E-13 6.88E-14 1.06E-14 1.16E-13 5.30E-14
  5.83E-14 1.02E-13 9.86E-14 7.37E-10
  -0.0625 -0.2500  0.1250    1  8.22343E-12 kpt; spin; max resid(k); each band:
  2.08E-13 8.89E-14 2.17E-14 1.10E-14 5.59E-14 9.67E-15 1.22E-13 1.30E-13
  7.13E-14 1.13E-13 4.96E-13 8.22E-12
  -0.0625  0.5000  0.0000    1  1.08179E-12 kpt; spin; max resid(k); each band:
  3.95E-13 1.02E-13 1.27E-13 2.35E-13 8.24E-14 7.02E-14 3.94E-13 7.16E-14
  2.45E-14 1.54E-13 1.13E-13 1.08E-12
  -0.1250 -0.4375  0.0000    1  3.71166E-12 kpt; spin; max resid(k); each band:
  5.80E-13 2.31E-14 1.79E-13 6.02E-14 9.93E-14 5.02E-14 3.56E-13 9.37E-14
  8.65E-14 1.92E-13 3.07E-12 3.71E-12
  -0.0625 -0.4375  0.0625    1  9.35373E-13 kpt; spin; max resid(k); each band:
  8.09E-13 2.68E-14 1.34E-14 1.28E-13 1.51E-14 2.56E-13 4.87E-13 5.06E-14
  1.43E-13 7.30E-14 2.11E-13 9.35E-13
  -0.1875 -0.3750  0.0000    1  3.43530E-06 kpt; spin; max resid(k); each band:
  4.85E-13 4.50E-13 7.19E-14 1.07E-13 8.25E-14 6.22E-14 5.86E-14 4.28E-14
  6.94E-13 5.47E-14 9.12E-13 3.44E-06
  -0.1250 -0.3750  0.0625    1  7.85237E-11 kpt; spin; max resid(k); each band:
  8.34E-13 5.51E-13 1.18E-14 1.07E-13 4.49E-14 1.91E-13 3.90E-13 8.48E-14
  4.87E-14 5.24E-14 4.91E-13 7.85E-11
  -0.0625 -0.3750  0.1250    1  3.40692E-12 kpt; spin; max resid(k); each band:
  1.16E-12 2.11E-14 5.49E-13 7.94E-14 6.21E-14 2.22E-13 1.13E-12 1.18E-13
  1.04E-13 1.14E-13 8.10E-13 3.41E-12
  -0.2500 -0.3125  0.0000    1  6.06372E-05 kpt; spin; max resid(k); each band:
  4.79E-13 9.14E-14 1.18E-13 4.83E-14 5.98E-14 1.98E-14 2.66E-14 3.94E-13
  2.63E-13 3.66E-13 6.05E-14 6.06E-05
  -0.1875 -0.3125  0.0625    1  6.09843E-12 kpt; spin; max resid(k); each band:
  6.21E-14 2.14E-13 2.74E-14 8.39E-15 2.95E-14 4.33E-14 4.56E-14 1.17E-13
  1.77E-14 5.21E-14 1.65E-14 6.10E-12
  -0.1250 -0.3125  0.1250    1  1.54227E-12 kpt; spin; max resid(k); each band:
  2.30E-13 3.34E-13 2.10E-14 7.14E-14 9.99E-15 5.29E-14 1.31E-13 4.00E-14
  3.23E-14 1.72E-13 4.00E-14 1.54E-12
  -0.0625 -0.3125  0.1875    1  9.06292E-10 kpt; spin; max resid(k); each band:
  5.47E-13 7.86E-14 1.34E-13 5.13E-14 3.07E-14 1.69E-14 9.62E-14 1.08E-13
  1.26E-13 2.22E-13 4.36E-13 9.06E-10
  -0.0625  0.3750  0.0000    1  8.52986E-13 kpt; spin; max resid(k); each band:
  7.90E-13 5.57E-14 1.59E-14 3.60E-13 5.97E-14 6.20E-14 1.70E-13 2.28E-13
  1.44E-14 1.53E-14 5.25E-13 8.53E-13
  -0.1250  0.4375  0.0000    1  6.77000E-13 kpt; spin; max resid(k); each band:
  6.77E-13 6.98E-14 1.05E-13 1.22E-13 9.58E-14 9.63E-14 2.92E-13 1.98E-13
  3.33E-14 1.68E-14 2.22E-13 4.85E-13
  -0.1875  0.5000  0.0000    1  1.47332E-10 kpt; spin; max resid(k); each band:
  6.93E-13 2.89E-14 2.62E-13 7.01E-14 4.62E-14 1.84E-13 3.63E-13 9.90E-14
  8.63E-14 2.72E-13 2.20E-12 1.47E-10
  -0.1250  0.5000  0.0625    1  8.43433E-13 kpt; spin; max resid(k); each band:
  1.28E-13 9.74E-15 2.39E-13 5.75E-14 1.19E-14 1.71E-13 4.80E-14 6.10E-14
  6.54E-14 6.25E-14 1.88E-13 8.43E-13
  -0.2500 -0.4375  0.0000    1  7.55804E-07 kpt; spin; max resid(k); each band:
  1.79E-13 2.37E-13 3.61E-13 7.51E-14 2.79E-14 6.71E-13 2.85E-13 1.03E-13
  2.39E-14 1.12E-13 3.78E-14 7.56E-07
  -0.1875 -0.4375  0.0625    1  1.06965E-11 kpt; spin; max resid(k); each band:
  3.50E-13 2.52E-13 3.44E-14 9.76E-14 3.31E-14 3.02E-13 2.24E-13 1.06E-13
  1.89E-14 1.77E-14 2.97E-13 1.07E-11
  -0.1250 -0.4375  0.1250    1  4.06147E-05 kpt; spin; max resid(k); each band:
  2.74E-13 1.97E-14 1.58E-13 1.02E-13 1.98E-14 2.71E-13 1.40E-13 3.23E-14
  1.05E-13 7.32E-14 1.32E-13 4.06E-05
  -0.0625 -0.4375  0.1875    1  3.16920E-12 kpt; spin; max resid(k); each band:
  8.10E-13 3.68E-14 8.36E-13 1.62E-13 5.81E-14 3.43E-13 7.66E-14 4.12E-13
  1.03E-14 2.19E-13 9.53E-13 3.17E-12
  -0.3125 -0.3750  0.0000    1  8.63397E-06 kpt; spin; max resid(k); each band:
  4.18E-14 4.42E-13 1.18E-13 7.17E-14 7.95E-14 3.65E-13 2.27E-13 1.01E-13
  1.84E-14 8.93E-13 5.63E-15 8.63E-06
  -0.2500 -0.3750  0.0625    1  1.17476E-12 kpt; spin; max resid(k); each band:
  1.80E-13 2.08E-13 3.20E-13 4.29E-14 2.72E-14 3.06E-13 8.67E-14 2.39E-13
  1.11E-13 1.02E-13 2.04E-14 1.17E-12
  -0.1875 -0.3750  0.1250    1  2.73708E-13 kpt; spin; max resid(k); each band:
  1.65E-13 2.32E-13 1.05E-13 5.75E-14 4.85E-14 8.54E-14 2.74E-13 2.04E-14
  1.01E-13 6.47E-14 3.21E-14 2.47E-13
  -0.1250 -0.3750  0.1875    1  7.28682E-12 kpt; spin; max resid(k); each band:
  4.24E-13 1.17E-13 2.94E-13 1.38E-14 5.59E-15 1.83E-13 4.48E-13 1.45E-13
  2.04E-14 1.38E-13 3.26E-13 7.29E-12
  -0.0625 -0.3750  0.2500    1  3.62531E-04 kpt; spin; max resid(k); each band:
  1.74E-13 4.82E-14 4.44E-13 3.15E-14 3.14E-14 2.32E-13 2.59E-13 1.18E-13
  6.16E-14 8.38E-14 1.35E-12 3.63E-04
  -0.0625  0.2500  0.0000    1  7.56671E-13 kpt; spin; max resid(k); each band:
  8.37E-14 2.89E-14 1.07E-13 1.22E-14 7.69E-14 2.13E-14 5.76E-14 8.89E-14
  3.17E-14 5.71E-13 5.70E-14 7.57E-13
  -0.1250  0.3125  0.0000    1  1.05438E-12 kpt; spin; max resid(k); each band:
  7.63E-13 6.25E-13 1.27E-14 1.03E-13 5.69E-14 1.01E-13 1.02E-13 4.68E-14
  1.41E-14 7.70E-14 1.05E-12 1.58E-13
  -0.1875  0.3750  0.0000    1  3.76348E-13 kpt; spin; max resid(k); each band:
  1.04E-13 9.94E-14 1.47E-13 1.22E-13 8.59E-14 1.97E-13 1.79E-13 5.62E-14
  1.18E-13 8.55E-14 3.76E-13 2.39E-13
  -0.2500  0.4375  0.0000    1  2.52838E-09 kpt; spin; max resid(k); each band:
  2.15E-13 5.58E-14 1.03E-13 6.41E-14 5.69E-14 2.86E-13 3.41E-14 3.93E-14
  7.70E-15 5.47E-14 2.53E-10 2.53E-09
  -0.3125  0.5000  0.0000    1  5.76721E-10 kpt; spin; max resid(k); each band:
  5.49E-14 1.12E-13 1.75E-13 4.75E-14 8.60E-14 4.43E-13 1.08E-13 8.67E-14
  2.08E-14 1.19E-13 5.10E-14 5.77E-10
  -0.2500  0.5000  0.0625    1  1.63430E-12 kpt; spin; max resid(k); each band:
  9.08E-14 1.13E-13 1.53E-13 3.31E-14 1.60E-14 3.30E-13 1.89E-13 3.50E-13
  1.20E-13 6.96E-14 1.27E-13 1.63E-12
  -0.1875  0.5000  0.1250    1  7.48009E-12 kpt; spin; max resid(k); each band:
  3.29E-13 2.70E-14 1.36E-13 2.93E-14 1.15E-14 2.29E-13 6.57E-14 1.17E-13
  8.93E-14 8.17E-14 9.60E-13 7.48E-12
  -0.3750 -0.4375  0.0000    1  7.01554E-10 kpt; spin; max resid(k); each band:
  3.45E-14 8.61E-13 3.36E-14 1.93E-13 8.63E-15 7.46E-13 1.83E-13 4.71E-14
  3.65E-14 6.71E-13 6.50E-14 7.02E-10
  -0.3125 -0.4375  0.0625    1  9.41252E-13 kpt; spin; max resid(k); each band:
  1.38E-13 8.95E-13 5.06E-13 7.45E-15 6.06E-14 9.41E-13 1.82E-13 3.24E-14
  1.62E-13 9.18E-14 3.86E-14 6.18E-13
  -0.2500 -0.4375  0.1250    1  1.06286E-12 kpt; spin; max resid(k); each band:
  4.23E-14 3.46E-13 1.06E-12 7.61E-14 9.52E-15 2.44E-13 1.66E-13 8.71E-14
  8.44E-14 1.22E-13 6.62E-14 1.16E-13
  -0.1875 -0.4375  0.1875    1  5.94137E-13 kpt; spin; max resid(k); each band:
  2.96E-14 1.89E-13 1.17E-13 7.45E-15 1.57E-15 2.84E-13 7.87E-14 1.43E-13
  1.00E-13 3.54E-13 5.38E-13 5.94E-13
  -0.1250 -0.4375  0.2500    1  6.13407E-13 kpt; spin; max resid(k); each band:
  2.33E-14 6.13E-13 3.57E-13 2.10E-15 3.16E-15 1.27E-13 2.04E-13 1.03E-13
  8.30E-14 1.95E-13 3.40E-13 4.48E-13
  -0.0625 -0.4375  0.3125    1  1.21481E-12 kpt; spin; max resid(k); each band:
  3.53E-14 2.84E-13 2.43E-13 4.82E-15 4.11E-15 4.18E-13 2.38E-13 1.11E-13
  6.13E-14 3.23E-14 7.43E-14 1.21E-12
  -0.0625  0.1250  0.0000    1  2.81441E-12 kpt; spin; max resid(k); each band:
  1.26E-14 3.38E-14 2.89E-13 5.32E-14 6.11E-15 1.50E-14 7.71E-13 9.87E-14
  3.77E-13 9.27E-13 6.93E-13 2.81E-12
  -0.1250  0.1875  0.0000    1  7.24870E-12 kpt; spin; max resid(k); each band:
  1.84E-13 6.39E-14 2.34E-14 3.35E-14 6.53E-14 5.41E-14 2.24E-13 4.68E-14
  3.86E-14 9.14E-14 3.38E-13 7.25E-12
  -0.1875  0.2500  0.0000    1  3.02096E-12 kpt; spin; max resid(k); each band:
  5.91E-13 1.27E-13 3.58E-14 1.05E-13 1.30E-13 7.43E-14 7.72E-14 9.79E-14
  1.02E-13 8.13E-15 1.29E-13 3.02E-12
  -0.2500  0.3125  0.0000    1  1.09316E-12 kpt; spin; max resid(k); each band:
  2.81E-13 1.34E-14 9.67E-14 1.56E-14 8.43E-14 4.28E-13 3.79E-14 1.04E-13
  7.12E-14 9.55E-14 1.09E-12 2.70E-13
 outwf : prtvol=0 or 1, do not print more k-points.

  -0.0625 -0.1250  0.0000    2  5.19079E-07 kpt; spin; max resid(k); each band:
  9.39E-14 2.75E-15 1.73E-14 6.75E-15 6.86E-15 2.29E-15 1.12E-13 8.81E-14
  2.37E-14 2.89E-13 6.43E-12 5.19E-07
  -0.0625 -0.2500  0.0000    2  5.78090E-05 kpt; spin; max resid(k); each band:
  6.52E-14 1.13E-13 1.78E-14 2.67E-14 1.17E-14 1.23E-14 4.11E-14 4.40E-14
  1.45E-14 5.61E-13 5.42E-12 5.78E-05
  -0.1250 -0.1875  0.0000    2  1.08747E-09 kpt; spin; max resid(k); each band:
  1.80E-13 2.96E-14 2.17E-14 3.43E-15 5.82E-15 1.13E-15 6.43E-14 3.69E-14
  3.73E-14 2.23E-13 8.56E-13 1.09E-09
  -0.0625 -0.1875  0.0625    2  1.08337E-09 kpt; spin; max resid(k); each band:
  1.02E-13 6.85E-15 5.19E-14 1.03E-14 9.01E-14 1.10E-14 8.50E-15 9.48E-14
  4.21E-14 1.21E-13 2.30E-12 1.08E-09
  -0.0625 -0.3750  0.0000    2  3.40172E-12 kpt; spin; max resid(k); each band:
  1.29E-12 4.82E-14 1.80E-14 3.01E-14 2.38E-14 3.12E-14 2.98E-13 4.22E-14
  2.84E-14 7.71E-13 4.76E-13 3.40E-12
  -0.1250 -0.3125  0.0000    2  2.93051E-10 kpt; spin; max resid(k); each band:
  1.66E-13 8.95E-14 1.24E-14 1.22E-13 3.31E-14 2.96E-15 1.00E-13 3.19E-14
  9.31E-14 8.48E-14 3.62E-12 2.93E-10
  -0.0625 -0.3125  0.0625    2  3.32429E-12 kpt; spin; max resid(k); each band:
  1.85E-13 4.11E-14 1.14E-13 3.56E-14 1.38E-14 2.52E-14 6.51E-14 4.73E-14
  6.62E-14 1.55E-14 3.91E-13 3.32E-12
  -0.1875 -0.2500  0.0000    2  6.24628E-08 kpt; spin; max resid(k); each band:
  1.13E-13 6.00E-14 6.75E-14 1.24E-14 2.77E-14 3.37E-15 5.24E-14 1.22E-14
  3.20E-14 6.69E-14 8.79E-15 6.25E-08
  -0.1250 -0.2500  0.0625    2  1.41206E-10 kpt; spin; max resid(k); each band:
  7.76E-14 7.64E-14 9.44E-14 1.28E-14 4.69E-14 1.64E-14 3.17E-14 3.64E-14
  4.84E-14 1.77E-13 8.89E-14 1.41E-10
  -0.0625 -0.2500  0.1250    2  1.31406E-10 kpt; spin; max resid(k); each band:
  1.02E-13 1.77E-13 6.83E-14 2.63E-14 2.92E-14 1.49E-14 5.47E-14 4.52E-14
  5.06E-14 3.32E-13 6.68E-13 1.31E-10
  -0.0625  0.5000  0.0000    2  1.10349E-12 kpt; spin; max resid(k); each band:
  1.10E-12 1.06E-13 1.52E-14 3.42E-14 2.18E-15 3.97E-14 2.63E-13 1.91E-14
  1.45E-14 5.62E-14 2.28E-13 5.03E-13
  -0.1250 -0.4375  0.0000    2  8.01358E-12 kpt; spin; max resid(k); each band:
  8.99E-13 4.31E-14 2.41E-13 1.71E-13 7.51E-15 9.04E-14 1.00E-13 1.14E-14
  2.83E-14 1.84E-13 8.01E-12 1.58E-12
  -0.0625 -0.4375  0.0625    2  1.18053E-12 kpt; spin; max resid(k); each band:
  1.07E-12 2.62E-14 1.85E-13 3.58E-14 2.18E-14 4.99E-14 3.03E-13 1.91E-14
  1.41E-13 1.42E-14 1.18E-12 6.06E-13
  -0.1875 -0.3750  0.0000    2  5.65089E-08 kpt; spin; max resid(k); each band:
  4.54E-13 9.64E-14 1.22E-13 9.12E-14 1.33E-14 2.32E-14 1.74E-13 2.52E-14
  2.53E-15 6.92E-14 3.73E-13 5.65E-08
  -0.1250 -0.3750  0.0625    2  1.13090E-10 kpt; spin; max resid(k); each band:
  7.54E-13 4.64E-14 1.30E-13 1.22E-13 7.67E-15 2.71E-14 1.94E-13 6.72E-14
  1.21E-14 3.40E-13 2.34E-12 1.13E-10
  -0.0625 -0.3750  0.1250    2  3.77057E-12 kpt; spin; max resid(k); each band:
  4.25E-13 7.79E-14 1.40E-13 1.19E-14 1.25E-14 2.92E-14 1.04E-13 6.34E-14
  6.41E-14 4.86E-14 1.68E-13 3.77E-12
  -0.2500 -0.3125  0.0000    2  8.04898E-05 kpt; spin; max resid(k); each band:
  4.19E-13 8.45E-14 1.76E-14 1.84E-14 1.31E-14 6.05E-15 7.52E-14 7.92E-15
  4.08E-14 1.94E-13 1.36E-14 8.05E-05
  -0.1875 -0.3125  0.0625    2  5.02238E-12 kpt; spin; max resid(k); each band:
  1.18E-13 1.88E-14 1.40E-14 3.77E-14 2.51E-14 2.92E-14 3.15E-14 1.85E-14
  1.71E-14 1.26E-14 2.16E-14 5.02E-12
  -0.1250 -0.3125  0.1250    2  1.07871E-12 kpt; spin; max resid(k); each band:
  4.52E-13 2.12E-14 4.72E-14 4.09E-14 3.50E-14 3.83E-14 3.01E-14 2.82E-14
  2.00E-14 2.23E-13 2.35E-13 1.08E-12
  -0.0625 -0.3125  0.1875    2  3.27434E-10 kpt; spin; max resid(k); each band:
  6.43E-13 9.53E-14 5.71E-14 5.08E-14 1.14E-14 1.53E-13 2.62E-14 3.57E-14
  2.21E-14 1.76E-13 1.66E-12 3.27E-10
  -0.0625  0.3750  0.0000    2  4.76254E-12 kpt; spin; max resid(k); each band:
  8.58E-13 2.67E-13 3.12E-14 2.47E-14 1.40E-14 3.90E-14 2.24E-13 1.84E-14
  8.94E-15 8.03E-14 1.03E-13 4.76E-12
  -0.1250  0.4375  0.0000    2  1.71182E-12 kpt; spin; max resid(k); each band:
  5.45E-13 3.21E-14 3.89E-14 2.68E-13 1.07E-14 4.85E-14 6.56E-13 3.33E-14
  6.56E-14 1.78E-14 5.88E-14 1.71E-12
  -0.1875  0.5000  0.0000    2  2.32715E-11 kpt; spin; max resid(k); each band:
  6.93E-13 3.64E-14 2.76E-14 1.20E-13 1.32E-14 1.88E-14 1.54E-13 6.28E-14
  4.60E-15 5.30E-14 2.33E-11 1.93E-12
  -0.1250  0.5000  0.0625    2  7.19904E-13 kpt; spin; max resid(k); each band:
  7.20E-13 3.95E-14 3.42E-14 9.23E-14 1.02E-14 5.39E-14 3.65E-13 2.28E-14
  3.64E-14 3.18E-14 4.39E-13 4.53E-13
  -0.2500 -0.4375  0.0000    2  3.84050E-06 kpt; spin; max resid(k); each band:
  2.72E-13 1.44E-14 3.08E-14 1.46E-14 5.21E-15 5.30E-14 3.11E-14 1.09E-14
  6.79E-15 3.57E-14 2.27E-13 3.84E-06
  -0.1875 -0.4375  0.0625    2  8.04557E-12 kpt; spin; max resid(k); each band:
  4.03E-13 1.76E-14 1.96E-13 6.94E-14 1.37E-14 3.62E-13 4.09E-14 2.31E-14
  5.25E-14 3.24E-14 6.37E-13 8.05E-12
  -0.1250 -0.4375  0.1250    2  4.23902E-05 kpt; spin; max resid(k); each band:
  5.55E-13 1.49E-13 5.77E-14 3.59E-14 1.28E-14 8.78E-14 3.10E-13 1.98E-14
  4.76E-14 7.50E-15 1.36E-13 4.24E-05
  -0.0625 -0.4375  0.1875    2  5.55116E-12 kpt; spin; max resid(k); each band:
  7.16E-13 2.09E-13 3.82E-14 5.24E-14 9.50E-15 8.46E-14 7.80E-13 3.96E-14
  6.02E-14 1.58E-14 3.27E-13 5.55E-12
  -0.3125 -0.3750  0.0000    2  2.13186E-06 kpt; spin; max resid(k); each band:
  9.77E-14 2.96E-14 1.39E-13 6.52E-15 4.18E-15 4.54E-14 6.76E-14 7.25E-14
  7.89E-15 9.77E-14 3.05E-14 2.13E-06
  -0.2500 -0.3750  0.0625    2  4.05181E-12 kpt; spin; max resid(k); each band:
  3.64E-13 8.21E-14 8.29E-14 6.12E-14 5.27E-14 1.83E-14 2.54E-14 1.58E-14
  1.66E-14 1.68E-14 1.24E-14 4.05E-12
  -0.1875 -0.3750  0.1250    2  5.12509E-13 kpt; spin; max resid(k); each band:
  5.13E-13 5.42E-14 4.51E-14 6.98E-14 7.13E-15 4.18E-13 2.59E-14 1.59E-14
  2.21E-14 2.06E-14 7.31E-14 8.28E-14
  -0.1250 -0.3750  0.1875    2  2.25175E-12 kpt; spin; max resid(k); each band:
  4.48E-13 4.21E-14 7.74E-14 6.00E-14 9.45E-15 2.72E-13 4.45E-14 2.56E-14
  7.80E-14 5.69E-14 1.42E-13 2.25E-12
  -0.0625 -0.3750  0.2500    2  6.04242E-04 kpt; spin; max resid(k); each band:
  5.14E-13 8.47E-14 1.47E-13 2.58E-14 1.89E-15 1.19E-13 1.03E-13 8.38E-14
  2.40E-14 8.31E-15 1.17E-12 6.04E-04
  -0.0625  0.2500  0.0000    2  1.78549E-12 kpt; spin; max resid(k); each band:
  5.73E-14 6.78E-14 2.58E-14 1.53E-14 3.41E-14 3.27E-14 2.07E-14 7.65E-14
  9.52E-14 1.99E-14 5.42E-14 1.79E-12
  -0.1250  0.3125  0.0000    2  4.24707E-13 kpt; spin; max resid(k); each band:
  2.02E-13 1.06E-13 6.98E-14 1.01E-13 1.18E-14 1.48E-14 5.09E-14 5.03E-14
  2.38E-14 6.08E-14 2.28E-14 4.25E-13
  -0.1875  0.3750  0.0000    2  5.17340E-13 kpt; spin; max resid(k); each band:
  1.68E-13 5.17E-13 1.92E-13 1.19E-13 1.23E-14 5.40E-14 1.82E-13 4.82E-14
  2.96E-14 1.88E-14 4.45E-14 4.94E-13
  -0.2500  0.4375  0.0000    2  1.25578E-09 kpt; spin; max resid(k); each band:
  8.24E-14 1.96E-13 4.12E-13 5.42E-14 3.97E-15 3.82E-14 2.77E-14 5.18E-14
  2.15E-14 1.27E-14 1.60E-10 1.26E-09
  -0.3125  0.5000  0.0000    2  3.32943E-09 kpt; spin; max resid(k); each band:
  3.64E-13 8.38E-14 2.51E-13 1.29E-13 4.26E-15 1.71E-13 2.00E-14 4.23E-14
  5.89E-15 2.46E-14 8.44E-14 3.33E-09
  -0.2500  0.5000  0.0625    2  8.85483E-13 kpt; spin; max resid(k); each band:
  2.58E-13 5.75E-14 1.11E-13 5.02E-14 5.58E-15 1.37E-13 4.97E-14 3.06E-14
  1.06E-14 1.96E-14 1.36E-13 8.85E-13
  -0.1875  0.5000  0.1250    2  2.19137E-12 kpt; spin; max resid(k); each band:
  1.95E-13 1.65E-13 3.45E-13 1.10E-14 4.02E-15 1.32E-13 6.96E-14 2.24E-14
  5.36E-14 3.96E-14 3.79E-13 2.19E-12
  -0.3750 -0.4375  0.0000    2  5.18065E-11 kpt; spin; max resid(k); each band:
  2.23E-13 5.05E-14 7.09E-13 5.75E-14 2.83E-14 7.74E-14 3.37E-14 3.35E-14
  2.50E-15 3.80E-13 3.89E-14 5.18E-11
  -0.3125 -0.4375  0.0625    2  3.44444E-11 kpt; spin; max resid(k); each band:
  9.02E-14 4.23E-14 2.11E-13 1.91E-14 9.59E-15 3.61E-13 4.77E-14 5.17E-14
  9.37E-14 3.15E-14 1.99E-14 3.44E-11
  -0.2500 -0.4375  0.1250    2  3.18155E-13 kpt; spin; max resid(k); each band:
  9.68E-14 1.20E-13 3.18E-13 3.58E-14 3.29E-15 1.82E-13 2.71E-14 9.06E-14
  6.53E-14 8.83E-15 5.07E-14 2.69E-13
  -0.1875 -0.4375  0.1875    2  5.08265E-13 kpt; spin; max resid(k); each band:
  1.65E-13 1.51E-13 3.62E-13 4.82E-14 2.82E-15 2.14E-13 1.90E-14 3.93E-14
  1.34E-13 1.23E-13 7.79E-14 5.08E-13
  -0.1250 -0.4375  0.2500    2  1.12767E-12 kpt; spin; max resid(k); each band:
  3.24E-13 4.27E-14 4.70E-14 1.77E-14 2.56E-15 3.46E-14 8.36E-14 1.14E-13
  4.63E-14 1.71E-14 1.73E-13 1.13E-12
  -0.0625 -0.4375  0.3125    2  1.40105E-11 kpt; spin; max resid(k); each band:
  9.45E-14 7.87E-14 1.48E-13 1.12E-14 6.52E-15 9.12E-14 2.04E-14 1.38E-13
  6.27E-14 8.19E-15 9.49E-14 1.40E-11
  -0.0625  0.1250  0.0000    2  9.75407E-13 kpt; spin; max resid(k); each band:
  8.75E-14 4.08E-14 1.98E-15 9.81E-15 5.20E-15 2.33E-15 3.38E-14 9.12E-14
  8.11E-14 9.75E-13 5.77E-13 4.02E-13
  -0.1250  0.1875  0.0000    2  6.36514E-13 kpt; spin; max resid(k); each band:
  1.85E-14 5.13E-14 1.16E-14 7.75E-15 1.70E-14 3.52E-15 1.04E-14 3.10E-14
  1.23E-13 6.37E-13 1.25E-13 1.17E-13
  -0.1875  0.2500  0.0000    2  2.53085E-11 kpt; spin; max resid(k); each band:
  6.67E-14 2.24E-13 5.14E-14 4.60E-14 3.89E-15 1.90E-14 4.81E-14 4.59E-14
  3.51E-14 1.76E-14 2.87E-13 2.53E-11
  -0.2500  0.3125  0.0000    2  7.27542E-13 kpt; spin; max resid(k); each band:
  7.28E-13 3.90E-14 9.90E-14 3.67E-14 9.10E-14 7.96E-14 2.87E-13 9.89E-14
  3.89E-14 1.78E-14 1.48E-13 5.64E-13
 outwf : prtvol=0 or 1, do not print more k-points.

 reduced coordinates (array xred) for    1 atoms
       0.000000000000      0.000000000000      0.000000000000
 rms dE/dt=  0.0000E+00; max dE/dt=  0.0000E+00; dE/dt below (all hartree)
    1       0.000000000000      0.000000000000      0.000000000000

 cartesian coordinates (angstrom) at end:
    1      0.00000000000000     0.00000000000000     0.00000000000000

 cartesian forces (hartree/bohr) at end:
    1     -0.00000000000000    -0.00000000000000    -0.00000000000000
 frms,max,avg= 0.0000000E+00 0.0000000E+00   0.000E+00  0.000E+00  0.000E+00 h/b

 cartesian forces (eV/Angstrom) at end:
    1     -0.00000000000000    -0.00000000000000    -0.00000000000000
 frms,max,avg= 0.0000000E+00 0.0000000E+00   0.000E+00  0.000E+00  0.000E+00 e/A
 length scales=  6.642387357093  6.642387357093  6.642387357093 bohr
              =  3.515000000000  3.515000000000  3.515000000000 angstroms
 Fermi (or HOMO) energy (hartree) =   0.37674   Average Vxc (hartree)=  -0.42495
 Magnetization (Bohr magneton)=  6.01556795E-01
 Total spin up =  5.30077840E+00   Total spin down =  4.69922160E+00
 Eigenvalues (hartree) for nkpt=  60  k points, SPIN UP:
 kpt#   1, nband= 12, wtk=  0.01172, kpt= -0.0625 -0.1250  0.0000 (reduced coord)
   0.06012   0.28143   0.29274   0.29290   0.32543   0.33223   1.17200   1.26388
   1.28772   1.36836   1.50034   1.57683
      occupation numbers for kpt#   1
   1.00000   1.00000   1.00000   1.00000   1.00000   1.00000   0.00000   0.00000
   0.00000   0.00000   0.00000   0.00000
 kpt#   2, nband= 12, wtk=  0.01172, kpt= -0.0625 -0.2500  0.0000 (reduced coord)
   0.11463   0.27270   0.29666   0.29804   0.32725   0.33683   0.94428   1.22249
   1.23352   1.39984   1.42341   1.57747
      occupation numbers for kpt#   2
   1.00000   1.00000   1.00000   1.00000   1.00000   1.00000   0.00000   0.00000
   0.00000   0.00000   0.00000   0.00000
 kpt#   3, nband= 12, wtk=  0.01172, kpt= -0.1250 -0.1875  0.0000 (reduced coord)
   0.08855   0.27205   0.29984   0.30041   0.31835   0.33626   1.11029   1.20157
   1.21133   1.29679   1.47040   1.59381
      occupation numbers for kpt#   3
   1.00000   1.00000   1.00000   1.00000   1.00000   1.00000   0.00000   0.00000
   0.00000   0.00000   0.00000   0.00000
 kpt#   4, nband= 12, wtk=  0.02344, kpt= -0.0625 -0.1875  0.0625 (reduced coord)
   0.10205   0.27172   0.29738   0.30083   0.32079   0.33804   1.02879   1.12894
   1.29839   1.36448   1.47828   1.53386
      occupation numbers for kpt#   4
   1.00000   1.00000   1.00000   1.00000   1.00000   1.00000   0.00000   0.00000
   0.00000   0.00000   0.00000   0.00000
 kpt#   5, nband= 12, wtk=  0.01172, kpt= -0.0625 -0.3750  0.0000 (reduced coord)
   0.17930   0.28664   0.29015   0.29423   0.34962   0.34967   0.72978   1.18580
   1.21288   1.29922   1.42444   1.48998
      occupation numbers for kpt#   5
   1.00000   1.00000   1.00000   1.00000   1.00000   1.00000   0.00000   0.00000
   0.00000   0.00000   0.00000   0.00000
 kpt#   6, nband= 12, wtk=  0.01172, kpt= -0.1250 -0.3125  0.0000 (reduced coord)
   0.15023   0.26456   0.29323   0.30359   0.33613   0.34507   0.87936   1.15339
   1.16938   1.27524   1.50606   1.55590
      occupation numbers for kpt#   6
   1.00000   1.00000   1.00000   1.00000   1.00000   1.00000   0.00000   0.00000
   0.00000   0.00000   0.00000   0.00000
 kpt#   7, nband= 12, wtk=  0.02344, kpt= -0.0625 -0.3125  0.0625 (reduced coord)
   0.16873   0.27080   0.29004   0.30017   0.33584   0.35675   0.80408   1.09817
   1.23267   1.31749   1.45936   1.51750
      occupation numbers for kpt#   7
   1.00000   1.00000   1.00000   1.00000   1.00000   0.99992   0.00000   0.00000
   0.00000   0.00000   0.00000   0.00000
 kpt#   8, nband= 12, wtk=  0.01172, kpt= -0.1875 -0.2500  0.0000 (reduced coord)
   0.12766   0.26007   0.30305   0.31111   0.31911   0.34156   1.04748   1.12059
   1.15846   1.20811   1.36939   1.69496
      occupation numbers for kpt#   8
   1.00000   1.00000   1.00000   1.00000   1.00000   1.00000   0.00000   0.00000
   0.00000   0.00000   0.00000   0.00000
 kpt#   9, nband= 12, wtk=  0.02344, kpt= -0.1250 -0.2500  0.0625 (reduced coord)
   0.13979   0.26146   0.29538   0.31007   0.32461   0.34651   0.96489   1.06326
   1.20750   1.27776   1.43569   1.59296
      occupation numbers for kpt#   9
   1.00000   1.00000   1.00000   1.00000   1.00000   1.00000   0.00000   0.00000
   0.00000   0.00000   0.00000   0.00000
 kpt#  10, nband= 12, wtk=  0.02344, kpt= -0.0625 -0.2500  0.1250 (reduced coord)
   0.16222   0.26338   0.28948   0.30970   0.32236   0.36102   0.89026   0.99336
   1.24167   1.37153   1.43752   1.54258
      occupation numbers for kpt#  10
   1.00000   1.00000   1.00000   1.00000   1.00000   0.99848   0.00000   0.00000
   0.00000   0.00000   0.00000   0.00000
 kpt#  11, nband= 12, wtk=  0.01172, kpt= -0.0625  0.5000  0.0000 (reduced coord)
   0.19944   0.28537   0.29003   0.32736   0.35589   0.39032   0.58836   1.15802
   1.23302   1.24121   1.42406   1.42808
      occupation numbers for kpt#  11
   1.00000   1.00000   1.00000   1.00000   0.99996   0.00523   0.00000   0.00000
   0.00000   0.00000   0.00000   0.00000
 kpt#  12, nband= 12, wtk=  0.01172, kpt= -0.1250 -0.4375  0.0000 (reduced coord)
   0.20079   0.27792   0.28894   0.29879   0.35550   0.38473   0.67758   1.11135
   1.14866   1.21840   1.51902   1.53821
      occupation numbers for kpt#  12
   1.00000   1.00000   1.00000   1.00000   0.99997   0.06598   0.00000   0.00000
   0.00000   0.00000   0.00000   0.00000
 kpt#  13, nband= 12, wtk=  0.02344, kpt= -0.0625 -0.4375  0.0625 (reduced coord)
   0.20356   0.28161   0.29473   0.30360   0.35267   0.40158   0.62354   1.09897
   1.16739   1.26774   1.43412   1.51848
      occupation numbers for kpt#  13
   1.00000   1.00000   1.00000   1.00000   1.00000   0.00000   0.00000   0.00000
   0.00000   0.00000   0.00000   0.00000
 kpt#  14, nband= 12, wtk=  0.01172, kpt= -0.1875 -0.3750  0.0000 (reduced coord)
   0.18740   0.25473   0.28818   0.31205   0.35232   0.36064   0.82370   1.07587
   1.08392   1.19869   1.47994   1.64888
      occupation numbers for kpt#  14
   1.00000   1.00000   1.00000   1.00000   1.00000   0.99880   0.00000   0.00000
   0.00000   0.00000   0.00000   0.00000
 kpt#  15, nband= 12, wtk=  0.02344, kpt= -0.1250 -0.3750  0.0625 (reduced coord)
   0.19915   0.26440   0.28316   0.30692   0.34798   0.38146   0.74938   1.04276
   1.11227   1.26225   1.51044   1.60063
      occupation numbers for kpt#  15
   1.00000   1.00000   1.00000   1.00000   1.00000   0.18700   0.00000   0.00000
   0.00000   0.00000   0.00000   0.00000
 kpt#  16, nband= 12, wtk=  0.02344, kpt= -0.0625 -0.3750  0.1250 (reduced coord)
   0.21072   0.27489   0.28090   0.30389   0.34347   0.40942   0.68749   0.98888
   1.14427   1.29975   1.45271   1.59369
      occupation numbers for kpt#  16
   1.00000   1.00000   1.00000   1.00000   1.00000   0.00000   0.00000   0.00000
   0.00000   0.00000   0.00000   0.00000
 kpt#  17, nband= 12, wtk=  0.01172, kpt= -0.2500 -0.3125  0.0000 (reduced coord)
   0.16945   0.24748   0.30385   0.32399   0.33406   0.34735   0.98795   1.04881
   1.05699   1.15769   1.30777   1.80179
      occupation numbers for kpt#  17
   1.00000   1.00000   1.00000   1.00000   1.00000   1.00000   0.00000   0.00000
   0.00000   0.00000   0.00000   0.00000
 kpt#  18, nband= 12, wtk=  0.02344, kpt= -0.1875 -0.3125  0.0625 (reduced coord)
   0.17987   0.25029   0.29175   0.32157   0.33820   0.35935   0.90872   1.00354
   1.07874   1.23141   1.38746   1.66611
      occupation numbers for kpt#  18
   1.00000   1.00000   1.00000   1.00000   1.00000   0.99948   0.00000   0.00000
   0.00000   0.00000   0.00000   0.00000
 kpt#  19, nband= 12, wtk=  0.02344, kpt= -0.1250 -0.3125  0.1250 (reduced coord)
   0.19797   0.25575   0.28098   0.31897   0.33358   0.38301   0.83482   0.93945
   1.10203   1.33602   1.44837   1.57196
      occupation numbers for kpt#  19
   1.00000   1.00000   1.00000   1.00000   1.00000   0.11867   0.00000   0.00000
   0.00000   0.00000   0.00000   0.00000
 kpt#  20, nband= 12, wtk=  0.02344, kpt= -0.0625 -0.3125  0.1875 (reduced coord)
   0.21767   0.26306   0.27356   0.31470   0.33204   0.41256   0.76964   0.88165
   1.13492   1.31886   1.47804   1.64476
      occupation numbers for kpt#  20
   1.00000   1.00000   1.00000   1.00000   1.00000   0.00000   0.00000   0.00000
   0.00000   0.00000   0.00000   0.00000
 kpt#  21, nband= 12, wtk=  0.01172, kpt= -0.0625  0.3750  0.0000 (reduced coord)
   0.19119   0.28827   0.29180   0.30427   0.34657   0.36648   0.66932   1.14654
   1.24475   1.29994   1.39391   1.45528
      occupation numbers for kpt#  21
   1.00000   1.00000   1.00000   1.00000   1.00000   0.97359   0.00000   0.00000
   0.00000   0.00000   0.00000   0.00000
 kpt#  22, nband= 12, wtk=  0.01172, kpt= -0.1250  0.4375  0.0000 (reduced coord)
   0.20869   0.27860   0.29584   0.30540   0.35281   0.42952   0.59213   1.05882
   1.19414   1.21399   1.48205   1.50744
      occupation numbers for kpt#  22
   1.00000   1.00000   1.00000   1.00000   1.00000   0.00000   0.00000   0.00000
   0.00000   0.00000   0.00000   0.00000
 kpt#  23, nband= 12, wtk=  0.01172, kpt= -0.1875  0.5000  0.0000 (reduced coord)
   0.21840   0.26430   0.28724   0.30696   0.35686   0.44265   0.63720   0.99319
   1.09888   1.18864   1.59591   1.59812
      occupation numbers for kpt#  23
   1.00000   1.00000   1.00000   1.00000   0.99991   0.00000   0.00000   0.00000
   0.00000   0.00000   0.00000   0.00000
 kpt#  24, nband= 12, wtk=  0.02344, kpt= -0.1250  0.5000  0.0625 (reduced coord)
   0.21675   0.27083   0.29353   0.30222   0.35429   0.45542   0.59616   1.02248
   1.08231   1.25924   1.47533   1.61548
      occupation numbers for kpt#  24
   1.00000   1.00000   1.00000   1.00000   0.99999   0.00000   0.00000   0.00000
   0.00000   0.00000   0.00000   0.00000
 kpt#  25, nband= 12, wtk=  0.01172, kpt= -0.2500 -0.4375  0.0000 (reduced coord)
   0.21240   0.24469   0.29216   0.32262   0.35707   0.40306   0.77800   0.95130
   1.02810   1.17028   1.45064   1.72878
      occupation numbers for kpt#  25
   1.00000   1.00000   1.00000   1.00000   0.99990   0.00000   0.00000   0.00000
   0.00000   0.00000   0.00000   0.00000
 kpt#  26, nband= 12, wtk=  0.02344, kpt= -0.1875 -0.4375  0.0625 (reduced coord)
   0.22060   0.25407   0.28237   0.31655   0.35459   0.42960   0.70515   0.96840
   1.01166   1.23414   1.53938   1.62081
      occupation numbers for kpt#  26
   1.00000   1.00000   1.00000   1.00000   0.99999   0.00000   0.00000   0.00000
   0.00000   0.00000   0.00000   0.00000
 kpt#  27, nband= 12, wtk=  0.02344, kpt= -0.1250 -0.4375  0.1250 (reduced coord)
   0.22712   0.26180   0.27910   0.31234   0.35049   0.46285   0.64630   0.94859
   1.01302   1.31869   1.46164   1.71805
      occupation numbers for kpt#  27
   1.00000   1.00000   1.00000   1.00000   1.00000   0.00000   0.00000   0.00000
   0.00000   0.00000   0.00000   0.00000
 kpt#  28, nband= 12, wtk=  0.02344, kpt= -0.0625 -0.4375  0.1875 (reduced coord)
   0.23042   0.26001   0.28275   0.31197   0.35034   0.49905   0.60633   0.90603
   1.05198   1.25505   1.52819   1.69764
      occupation numbers for kpt#  28
   1.00000   1.00000   1.00000   1.00000   1.00000   0.00000   0.00000   0.00000
   0.00000   0.00000   0.00000   0.00000
 kpt#  29, nband= 12, wtk=  0.01172, kpt= -0.3125 -0.3750  0.0000 (reduced coord)
   0.19737   0.23618   0.32056   0.33732   0.35281   0.35982   0.92352   0.94526
   0.98979   1.13521   1.27469   1.87902
      occupation numbers for kpt#  29
   1.00000   1.00000   1.00000   1.00000   1.00000   0.99929   0.00000   0.00000
   0.00000   0.00000   0.00000   0.00000
 kpt#  30, nband= 12, wtk=  0.02344, kpt= -0.2500 -0.3750  0.0625 (reduced coord)
   0.20648   0.24006   0.29914   0.33418   0.34992   0.38864   0.86165   0.93585
   0.96599   1.20281   1.35632   1.73350
      occupation numbers for kpt#  30
   1.00000   1.00000   1.00000   1.00000   1.00000   0.01246   0.00000   0.00000
   0.00000   0.00000   0.00000   0.00000
 kpt#  31, nband= 12, wtk=  0.02344, kpt= -0.1875 -0.3750  0.1250 (reduced coord)
   0.22178   0.24782   0.27937   0.32982   0.34506   0.42265   0.78944   0.89537
   0.96839   1.30792   1.44912   1.60356
      occupation numbers for kpt#  31
   1.00000   1.00000   1.00000   1.00000   1.00000   0.00000   0.00000   0.00000
   0.00000   0.00000   0.00000   0.00000
 kpt#  32, nband= 12, wtk=  0.02344, kpt= -0.1250 -0.3750  0.1875 (reduced coord)
   0.23660   0.25746   0.26612   0.32309   0.34297   0.46159   0.72420   0.84313
   0.99908   1.36881   1.45349   1.64806
      occupation numbers for kpt#  32
[...]
                       1.000000  1.000000  1.000000  1.000000  1.000000  0.000000
                       0.000000  0.000000  0.000000  0.000000  0.000000  0.000000
                       1.000000  1.000000  1.000000  1.000000  1.000000  0.000000
                       0.000000  0.000000  0.000000  0.000000  0.000000  0.000000
                       1.000000  1.000000  1.000000  1.000000  0.999997  0.999292
                       0.000000  0.000000  0.000000  0.000000  0.000000  0.000000
                       1.000000  1.000000  1.000000  1.000000  1.000000  0.012461
                       0.000000  0.000000  0.000000  0.000000  0.000000  0.000000
                       1.000000  1.000000  1.000000  1.000000  1.000000  0.000000
                       0.000000  0.000000  0.000000  0.000000  0.000000  0.000000
                       1.000000  1.000000  1.000000  1.000000  1.000000  0.000000
                       0.000000  0.000000  0.000000  0.000000  0.000000  0.000000
                       1.000000  1.000000  1.000000  1.000000  1.000000  0.000000
                       0.000000  0.000000  0.000000  0.000000  0.000000  0.000000
                       1.000000  1.000000  1.000000  1.000000  1.000000  1.000000
                       0.000000  0.000000  0.000000  0.000000  0.000000  0.000000
                       1.000000  1.000000  1.000000  1.000000  1.000000  0.492514
                       0.000000  0.000000  0.000000  0.000000  0.000000  0.000000
                       1.000000  1.000000  1.000000  1.000000  1.000000  0.000000
                       0.000000  0.000000  0.000000  0.000000  0.000000  0.000000
                       1.000000  1.000000  1.000000  1.000000  0.999993  0.000000
                       0.000000  0.000000  0.000000  0.000000  0.000000  0.000000
                       1.000000  1.000000  1.000000  1.000000  0.999742  0.000000
                       0.000000  0.000000  0.000000  0.000000  0.000000  0.000000
                       1.000000  1.000000  1.000000  1.000000  0.999966  0.000000
                       0.000000  0.000000  0.000000  0.000000  0.000000  0.000000
                       1.000000  1.000000  1.000000  1.000000  0.999996  0.000000
                       0.000000  0.000000  0.000000  0.000000  0.000000  0.000000
                       1.000000  1.000000  1.000000  1.000000  0.999883  0.000000
                       0.000000  0.000000  0.000000  0.000000  0.000000  0.000000
                       1.000000  1.000000  1.000000  1.000000  0.999956  0.000000
                       0.000000  0.000000  0.000000  0.000000  0.000000  0.000000
                       1.000000  1.000000  1.000000  1.000000  0.999993  0.000000
                       0.000000  0.000000  0.000000  0.000000  0.000000  0.000000
                       1.000000  1.000000  1.000000  1.000000  0.999997  0.000000
                       0.000000  0.000000  0.000000  0.000000  0.000000  0.000000
                       1.000000  1.000000  1.000000  1.000000  0.999996  0.000000
                       0.000000  0.000000  0.000000  0.000000  0.000000  0.000000
                       1.000000  1.000000  1.000000  1.000000  0.999991  0.000000
                       0.000000  0.000000  0.000000  0.000000  0.000000  0.000000
                       1.000000  1.000000  1.000000  1.000000  1.000000  1.000000
                       0.000000  0.000000  0.000000  0.000000  0.000000  0.000000
                       1.000000  1.000000  1.000000  1.000000  1.000000  1.000000
                       0.000000  0.000000  0.000000  0.000000  0.000000  0.000000
                       1.000000  1.000000  1.000000  1.000000  1.000000  0.170693
                       0.000000  0.000000  0.000000  0.000000  0.000000  0.000000
                       1.000000  1.000000  1.000000  1.000000  1.000000  0.000000
                       0.000000  0.000000  0.000000  0.000000  0.000000  0.000000
                       prtocc : prtvol=0, do not print more k-points.
                       1.000000  1.000000  1.000000  1.000000  1.000000  0.000000
                       0.000000  0.000000  0.000000  0.000000  0.000000  0.000000
                       1.000000  1.000000  1.000000  1.000000  0.999935  0.000000
                       0.000000  0.000000  0.000000  0.000000  0.000000  0.000000
                       1.000000  1.000000  0.999999  0.999985  0.999144  0.000000
                       0.000000  0.000000  0.000000  0.000000  0.000000  0.000000
                       1.000000  1.000000  1.000000  1.000000  0.999406  0.000000
                       0.000000  0.000000  0.000000  0.000000  0.000000  0.000000
                       1.000000  1.000000  1.000000  1.000000  0.999492  0.000000
                       0.000000  0.000000  0.000000  0.000000  0.000000  0.000000
                       1.000000  1.000000  1.000000  1.000000  0.999514  0.000000
                       0.000000  0.000000  0.000000  0.000000  0.000000  0.000000
                       1.000000  1.000000  1.000000  1.000000  1.000000  1.000000
                       0.000000  0.000000  0.000000  0.000000  0.000000  0.000000
                       1.000000  1.000000  1.000000  1.000000  1.000000  1.000000
                       0.000000  0.000000  0.000000  0.000000  0.000000  0.000000
                       1.000000  1.000000  1.000000  1.000000  1.000000  1.000000
                       0.000000  0.000000  0.000000  0.000000  0.000000  0.000000
                       1.000000  1.000000  1.000000  1.000000  0.999993  0.999993
                       0.000000  0.000000  0.000000  0.000000  0.000000  0.000000
                       1.000000  1.000000  1.000000  1.000000  1.000000  0.999970
                       0.000000  0.000000  0.000000  0.000000  0.000000  0.000000
                       1.000000  1.000000  1.000000  1.000000  0.999999  0.998406
                       0.000000  0.000000  0.000000  0.000000  0.000000  0.000000
                       1.000000  1.000000  1.000000  1.000000  1.000000  0.999324
                       0.000000  0.000000  0.000000  0.000000  0.000000  0.000000
                       1.000000  1.000000  1.000000  1.000000  1.000000  0.997190
                       0.000000  0.000000  0.000000  0.000000  0.000000  0.000000
                       1.000000  1.000000  1.000000  1.000000  0.702706  0.571553
                       0.000000  0.000000  0.000000  0.000000  0.000000  0.000000
                       1.000000  1.000000  1.000000  1.000000  0.999119  0.892495
                       0.000000  0.000000  0.000000  0.000000  0.000000  0.000000
                       1.000000  1.000000  1.000000  1.000000  0.998702  0.185514
                       0.000000  0.000000  0.000000  0.000000  0.000000  0.000000
                       1.000000  1.000000  1.000000  1.000000  1.000000  0.983744
                       0.000000  0.000000  0.000000  0.000000  0.000000  0.000000
                       1.000000  1.000000  1.000000  1.000000  1.000000  0.854897
                       0.000000  0.000000  0.000000  0.000000  0.000000  0.000000
                       1.000000  1.000000  1.000000  1.000000  1.000000  0.046697
                       0.000000  0.000000  0.000000  0.000000  0.000000  0.000000
                       1.000000  1.000000  1.000000  1.000000  0.127228  0.000000
                       0.000000  0.000000  0.000000  0.000000  0.000000  0.000000
                       1.000000  1.000000  1.000000  1.000000  0.153730  0.000000
                       0.000000  0.000000  0.000000  0.000000  0.000000  0.000000
                       1.000000  1.000000  1.000000  1.000000  0.314843  0.000000
                       0.000000  0.000000  0.000000  0.000000  0.000000  0.000000
                       1.000000  1.000000  1.000000  1.000000  0.392761  0.125582
                       0.000000  0.000000  0.000000  0.000000  0.000000  0.000000
                       1.000000  1.000000  1.000000  1.000000  0.723443  0.000000
                       0.000000  0.000000  0.000000  0.000000  0.000000  0.000000
                       1.000000  1.000000  1.000000  1.000000  0.905037  0.000000
                       0.000000  0.000000  0.000000  0.000000  0.000000  0.000000
                       1.000000  1.000000  1.000000  1.000000  0.999625  0.829109
                       0.000000  0.000000  0.000000  0.000000  0.000000  0.000000
                       1.000000  1.000000  1.000000  1.000000  0.997134  0.096946
                       0.000000  0.000000  0.000000  0.000000  0.000000  0.000000
                       1.000000  1.000000  1.000000  1.000000  0.999628  0.000000
                       0.000000  0.000000  0.000000  0.000000  0.000000  0.000000
                       1.000000  1.000000  1.000000  1.000000  0.999656  0.000000
                       0.000000  0.000000  0.000000  0.000000  0.000000  0.000000
                       1.000000  1.000000  1.000000  1.000000  0.764994  0.007185
                       0.000000  0.000000  0.000000  0.000000  0.000000  0.000000
                       1.000000  1.000000  1.000000  1.000000  0.288269  0.000000
                       0.000000  0.000000  0.000000  0.000000  0.000000  0.000000
                       1.000000  1.000000  1.000000  1.000000  0.089087  0.000000
                       0.000000  0.000000  0.000000  0.000000  0.000000  0.000000
                       1.000000  1.000000  1.000000  1.000000  0.194309  0.000000
                       0.000000  0.000000  0.000000  0.000000  0.000000  0.000000
                       1.000000  1.000000  1.000000  1.000000  0.095405  0.000000
                       0.000000  0.000000  0.000000  0.000000  0.000000  0.000000
                       1.000000  1.000000  1.000000  1.000000  0.193099  0.000000
                       0.000000  0.000000  0.000000  0.000000  0.000000  0.000000
                       1.000000  1.000000  1.000000  1.000000  0.441762  0.000000
                       0.000000  0.000000  0.000000  0.000000  0.000000  0.000000
                       1.000000  1.000000  1.000000  1.000000  0.436713  0.000000
                       0.000000  0.000000  0.000000  0.000000  0.000000  0.000000
                       1.000000  1.000000  1.000000  0.993195  0.406339  0.228193
                       0.000000  0.000000  0.000000  0.000000  0.000000  0.000000
                       1.000000  1.000000  1.000000  0.999576  0.606191  0.000000
                       0.000000  0.000000  0.000000  0.000000  0.000000  0.000000
                       1.000000  1.000000  1.000000  0.999996  0.828283  0.000000
                       0.000000  0.000000  0.000000  0.000000  0.000000  0.000000
                       1.000000  1.000000  1.000000  1.000000  0.882364  0.000000
                       0.000000  0.000000  0.000000  0.000000  0.000000  0.000000
                       1.000000  1.000000  1.000000  1.000000  0.823871  0.000000
                       0.000000  0.000000  0.000000  0.000000  0.000000  0.000000
                       1.000000  1.000000  1.000000  1.000000  0.999992  0.941870
                       0.000000  0.000000  0.000000  0.000000  0.000000  0.000000
                       1.000000  1.000000  1.000000  1.000000  0.997640  0.000006
                       0.000000  0.000000  0.000000  0.000000  0.000000  0.000000
                       1.000000  1.000000  1.000000  1.000000  0.807550  0.000000
                       0.000000  0.000000  0.000000  0.000000  0.000000  0.000000
                       1.000000  1.000000  1.000000  1.000000  0.210002  0.000000
                       0.000000  0.000000  0.000000  0.000000  0.000000  0.000000
                       1.000000  1.000000  1.000000  0.999799  0.045271  0.000000
                       0.000000  0.000000  0.000000  0.000000  0.000000  0.000000
                       1.000000  1.000000  1.000000  1.000000  0.111082  0.000000
                       0.000000  0.000000  0.000000  0.000000  0.000000  0.000000
                       1.000000  1.000000  1.000000  1.000000  0.227321  0.000000
                       0.000000  0.000000  0.000000  0.000000  0.000000  0.000000
                       prtocc : prtvol=0, do not print more k-points.
           occopt           7
        pawecutdg      4.00000000E+01 Hartree
           prtden           0
           prteig           0
            rprim      0.0000000000E+00  5.0000000000E-01  5.0000000000E-01
                       5.0000000000E-01  0.0000000000E+00  5.0000000000E-01
                       5.0000000000E-01  5.0000000000E-01  0.0000000000E+00
           shiftk      5.00000000E-01  5.00000000E-01  5.00000000E-01
          spgroup         225
           spinat      0.0000000000E+00  0.0000000000E+00  4.0000000000E+00
           strten1    -3.4755770539E-05 -3.4755770539E-05 -3.4755770539E-05
                       0.0000000000E+00  0.0000000000E+00  0.0000000000E+00
           symrel      1  0  0   0  1  0   0  0  1      -1  0  0   0 -1  0   0  0 -1
                       0 -1  1   0 -1  0   1 -1  0       0  1 -1   0  1  0  -1  1  0
                      -1  0  0  -1  0  1  -1  1  0       1  0  0   1  0 -1   1 -1  0
                       0  1 -1   1  0 -1   0  0 -1       0 -1  1  -1  0  1   0  0  1
                      -1  0  0  -1  1  0  -1  0  1       1  0  0   1 -1  0   1  0 -1
                       0 -1  1   1 -1  0   0 -1  0       0  1 -1  -1  1  0   0  1  0
                       1  0  0   0  0  1   0  1  0      -1  0  0   0  0 -1   0 -1  0
                       0  1 -1   0  0 -1   1  0 -1       0 -1  1   0  0  1  -1  0  1
                      -1  0  1  -1  1  0  -1  0  0       1  0 -1   1 -1  0   1  0  0
                       0 -1  0   1 -1  0   0 -1  1       0  1  0  -1  1  0   0  1 -1
                       1  0 -1   0  0 -1   0  1 -1      -1  0  1   0  0  1   0 -1  1
                       0  1  0   0  0  1   1  0  0       0 -1  0   0  0 -1  -1  0  0
                       1  0 -1   0  1 -1   0  0 -1      -1  0  1   0 -1  1   0  0  1
                       0 -1  0   0 -1  1   1 -1  0       0  1  0   0  1 -1  -1  1  0
                      -1  0  1  -1  0  0  -1  1  0       1  0 -1   1  0  0   1 -1  0
                       0  1  0   1  0  0   0  0  1       0 -1  0  -1  0  0   0  0 -1
                       0  0 -1   0  1 -1   1  0 -1       0  0  1   0 -1  1  -1  0  1
                       1 -1  0   0 -1  1   0 -1  0      -1  1  0   0  1 -1   0  1  0
                       0  0  1   1  0  0   0  1  0       0  0 -1  -1  0  0   0 -1  0
                      -1  1  0  -1  0  0  -1  0  1       1 -1  0   1  0  0   1  0 -1
                       0  0  1   0  1  0   1  0  0       0  0 -1   0 -1  0  -1  0  0
                       1 -1  0   0 -1  0   0 -1  1      -1  1  0   0  1  0   0  1 -1
                       0  0 -1   1  0 -1   0  1 -1       0  0  1  -1  0  1   0 -1  1
                      -1  1  0  -1  0  1  -1  0  0       1 -1  0   1  0 -1   1  0  0
           tolvrs      1.00000000E-12
           tsmear      7.50000000E-03 Hartree
            typat      1
           useylm           1
              wtk        0.01172    0.01172    0.01172    0.02344    0.01172    0.01172
                         0.02344    0.01172    0.02344    0.02344    0.01172    0.01172
                         0.02344    0.01172    0.02344    0.02344    0.01172    0.02344
                         0.02344    0.02344    0.01172    0.01172    0.01172    0.02344
                         0.01172    0.02344    0.02344    0.02344    0.01172    0.02344
                         0.02344    0.02344    0.02344    0.01172    0.01172    0.01172
                         0.01172    0.01172    0.02344    0.02344    0.01172    0.02344
                         0.02344    0.02344    0.02344    0.02344    0.01172    0.01172
                         0.01172    0.01172
                       outvars : Printing only first  50 k-points.
            znucl       28.00000

================================================================================


- Timing analysis has been suppressed with timopt=0



================================================================================

 Suggested references for the acknowledgment of ABINIT usage.

 The users of ABINIT have little formal obligations with respect to the ABINIT group
 (those specified in the GNU General Public License, http://www.gnu.org/copyleft/gpl.txt).
 However, it is common practice in the scientific literature,
 to acknowledge the efforts of people that have made the research possible.
 In this spirit, please find below suggested citations of work written by ABINIT developers,
 corresponding to implementations inside of ABINIT that you have used in the present run.
 Note also that it will be of great value to readers of publications presenting these results,
 to read papers enabling them to understand the theoretical formalism and details
 of the ABINIT implementation.
 For information on why they are suggested, see also http://www.abinit.org/about/?text=acknowledgments.

 [1] Implementation of the Projector Augmented-Wave Method in the ABINIT code.
 M. Torrent, F. Jollet, F. Bottin, G. Zerah, and X. Gonze Comput. Mat. Science 42, 337, (2008).
 Comment : PAW calculations. Strong suggestion to cite this paper.

 [2] ABINIT : First-principles approach of materials and nanosystem properties.
 X. Gonze, B. Amadon, P.-M. Anglade, J.-M. Beuken, F. Bottin, P. Boulanger, F. Bruneval,
 D. Caliste, R. Caracas, M. Cote, T. Deutsch, L. Genovese, Ph. Ghosez, M. Giantomassi
 S. Goedecker, D.R. Hamann, P. Hermet, F. Jollet, G. Jomard, S. Leroux, M. Mancini, S. Mazevet,
 M.J.T. Oliveira, G. Onida, Y. Pouillon, T. Rangel, G.-M. Rignanese, D. Sangalli, R. Shaltaf,
 M. Torrent, M.J. Verstraete, G. Zerah, J.W. Zwanziger
 Computer Phys. Comm. 180, 2582-2615 (2009).
 Comment : the third generic paper describing the ABINIT project.
 Note that a version of this paper, that is not formatted for Computer Phys. Comm. 
 is available at http://www.abinit.org/about/ABINIT_CPC_v10.pdf .
 The licence allows the authors to put it on the Web.

 [3] A brief introduction to the ABINIT software package.
 X. Gonze, G.-M. Rignanese, M. Verstraete, J.-M. Beuken, Y. Pouillon, R. Caracas, F. Jollet,
 M. Torrent, G. Zerah, M. Mikami, Ph. Ghosez, M. Veithen, J.-Y. Raty, V. Olevano, F. Bruneval,
 L. Reining, R. Godby, G. Onida, D.R. Hamann, and D.C. Allan.
 Z. Kristallogr. 220, 558-562 (2005).
 Comment : the second generic paper describing the ABINIT project. Note that this paper
 should be cited especially if you are using the GW part of ABINIT, as several authors
 of this part are not in the list of authors of the first or third paper.
 The .pdf of the latter paper is available at http://www.abinit.org/about/zfk_0505-06_558-562.pdf.
 Note that it should not redistributed (Copyright by Oldenburg Wissenshaftverlag,
 the licence allows the authors to put it on the Web).


 And optionally :

 [4] First-principles computation of material properties : the ABINIT software project. 
 X. Gonze, J.-M. Beuken, R. Caracas, F. Detraux, M. Fuchs, G.-M. Rignanese, L. Sindic,
 M. Verstraete, G. Zerah, F. Jollet, M. Torrent, A. Roy, M. Mikami, Ph. Ghosez, J.-Y. Raty, D.C. Allan.
 Computational Materials Science 25, 478-492 (2002). http://dx.doi.org/10.1016/S0927-0256(02)00325-7
 Comment : the original paper describing the ABINIT project.

 [5] Fast radix 2, 3, 4 and 5 kernels for Fast Fourier Transformations
 on computers with overlapping multiply-add instructions.
 S. Goedecker, SIAM J. on Scientific Computing 18, 1605 (1997).
-
- Proc.   0 individual time (sec): cpu=         55.1  wall=         55.1

================================================================================

 Calculation completed.
.Delivered    5 WARNINGs and   3 COMMENTs to log file.
+Overall time at end (sec) : cpu=         55.1  wall=         55.1
