
.Version 7.10.2 of ABINIT 
.(MPI version, prepared for a x86_64_linux_gnu4.7 computer) 

.Copyright (C) 1998-2014 ABINIT group . 
 ABINIT comes with ABSOLUTELY NO WARRANTY.
 It is free software, and you are welcome to redistribute it
 under certain conditions (GNU General Public License,
 see ~abinit/COPYING or http://www.gnu.org/copyleft/gpl.txt).

 ABINIT is a project of the Universite Catholique de Louvain,
 Corning Inc. and other collaborators, see ~abinit/doc/developers/contributors.txt .
 Please read ~abinit/doc/users/acknowledgments.html for suggested
 acknowledgments of the ABINIT effort.
 For more information, see http://www.abinit.org .

.Starting date : Tue 11 Nov 2014.
- ( at 11h46 )
  
- input  file    -> tpaw1_4.in
- output file    -> tpaw1_4.out
- root for input  files -> tpaw1_4i
- root for output files -> tpaw1_4o


 Symmetries : space group Fd -3 m (#227); Bravais cF (face-center cubic)
================================================================================
 Values of the parameters that define the memory need of the present run
   intxc =         0  ionmov =         0    iscf =        17 xclevel =         1
  lmnmax =         8   lnmax =         4   mband =         6  mffmem =         1
P  mgfft =        16   mkmem =       110 mpssoang=         2     mpw =       165
  mqgrid =      3001   natom =         2    nfft =      4096    nkpt =       110
  nloalg =         4  nspden =         1 nspinor =         1  nsppol =         1
    nsym =        48  n1xccc =         1  ntypat =         1  occopt =         7
 PAW method is used; the additional fine FFT grid is defined by:
   mgfftf=        24    nfftf =     13824
================================================================================
P This job should need less than                       6.900 Mbytes of memory.
  Rough estimation (10% accuracy) of disk space for files :
_ WF disk file :      1.664 Mbytes ; DEN or POT disk file :      0.107 Mbytes.
================================================================================

--------------------------------------------------------------------------------
------------- Echo of variables that govern the present computation ------------
--------------------------------------------------------------------------------
-
- outvars: echo of selected default values                                      
-   accesswff0 =  0 , fftalg0 =112 , wfoptalg0 = 10
-
- outvars: echo of global parameters not present in the input file              
-  max_nthreads =    0
-
 -outvars: echo values of preprocessed input variables --------
            acell      6.7406531160E+00  6.7406531160E+00  6.7406531160E+00 Bohr
              amu      1.20110000E+01
             ecut      1.20000000E+01 Hartree
           ecutsm      5.00000000E-01 Hartree
-          fftalg         112
              ixc           7
              kpt     -5.00000000E-02 -1.00000000E-01  0.00000000E+00
                      -5.00000000E-02 -2.00000000E-01  0.00000000E+00
                      -1.00000000E-01 -1.50000000E-01  0.00000000E+00
                      -5.00000000E-02 -1.50000000E-01  5.00000000E-02
                      -5.00000000E-02 -3.00000000E-01  0.00000000E+00
                      -1.00000000E-01 -2.50000000E-01  0.00000000E+00
                      -5.00000000E-02 -2.50000000E-01  5.00000000E-02
                      -1.50000000E-01 -2.00000000E-01  0.00000000E+00
                      -1.00000000E-01 -2.00000000E-01  5.00000000E-02
                      -5.00000000E-02 -2.00000000E-01  1.00000000E-01
                      -5.00000000E-02 -4.00000000E-01  0.00000000E+00
                      -1.00000000E-01 -3.50000000E-01  0.00000000E+00
                      -5.00000000E-02 -3.50000000E-01  5.00000000E-02
                      -1.50000000E-01 -3.00000000E-01  0.00000000E+00
                      -1.00000000E-01 -3.00000000E-01  5.00000000E-02
                      -5.00000000E-02 -3.00000000E-01  1.00000000E-01
                      -2.00000000E-01 -2.50000000E-01  0.00000000E+00
                      -1.50000000E-01 -2.50000000E-01  5.00000000E-02
                      -1.00000000E-01 -2.50000000E-01  1.00000000E-01
                      -5.00000000E-02 -2.50000000E-01  1.50000000E-01
                      -5.00000000E-02  5.00000000E-01  0.00000000E+00
                      -1.00000000E-01 -4.50000000E-01  0.00000000E+00
                      -5.00000000E-02 -4.50000000E-01  5.00000000E-02
                      -1.50000000E-01 -4.00000000E-01  0.00000000E+00
                      -1.00000000E-01 -4.00000000E-01  5.00000000E-02
                      -5.00000000E-02 -4.00000000E-01  1.00000000E-01
                      -2.00000000E-01 -3.50000000E-01  0.00000000E+00
                      -1.50000000E-01 -3.50000000E-01  5.00000000E-02
                      -1.00000000E-01 -3.50000000E-01  1.00000000E-01
                      -5.00000000E-02 -3.50000000E-01  1.50000000E-01
                      -2.50000000E-01 -3.00000000E-01  0.00000000E+00
                      -2.00000000E-01 -3.00000000E-01  5.00000000E-02
                      -1.50000000E-01 -3.00000000E-01  1.00000000E-01
                      -1.00000000E-01 -3.00000000E-01  1.50000000E-01
                      -5.00000000E-02 -3.00000000E-01  2.00000000E-01
                      -5.00000000E-02  4.00000000E-01  0.00000000E+00
                      -1.00000000E-01  4.50000000E-01  0.00000000E+00
                      -1.50000000E-01  5.00000000E-01  0.00000000E+00
                      -1.00000000E-01  5.00000000E-01  5.00000000E-02
                      -2.00000000E-01 -4.50000000E-01  0.00000000E+00
                      -1.50000000E-01 -4.50000000E-01  5.00000000E-02
                      -1.00000000E-01 -4.50000000E-01  1.00000000E-01
                      -5.00000000E-02 -4.50000000E-01  1.50000000E-01
                      -2.50000000E-01 -4.00000000E-01  0.00000000E+00
                      -2.00000000E-01 -4.00000000E-01  5.00000000E-02
                      -1.50000000E-01 -4.00000000E-01  1.00000000E-01
                      -1.00000000E-01 -4.00000000E-01  1.50000000E-01
                      -5.00000000E-02 -4.00000000E-01  2.00000000E-01
                      -3.00000000E-01 -3.50000000E-01  0.00000000E+00
                      -2.50000000E-01 -3.50000000E-01  5.00000000E-02
                       outvar_i_n : Printing only first  50 k-points.
         kptrlatt       10  -10   10    -10   10   10    -10  -10   10
          kptrlen      6.74065312E+01
P           mkmem         110
            natom           2
            nband           6
           nbdbuf           2
            ngfft          16      16      16
          ngfftdg          24      24      24
             nkpt         110
            nstep          10
             nsym          48
           ntypat           1
              occ      2.000000  2.000000  2.000000  2.000000  0.000000  0.000000
                       2.000000  2.000000  2.000000  2.000000  0.000000  0.000000
                       2.000000  2.000000  2.000000  2.000000  0.000000  0.000000
                       2.000000  2.000000  2.000000  2.000000  0.000000  0.000000
                       2.000000  2.000000  2.000000  2.000000  0.000000  0.000000
                       2.000000  2.000000  2.000000  2.000000  0.000000  0.000000
                       2.000000  2.000000  2.000000  2.000000  0.000000  0.000000
                       2.000000  2.000000  2.000000  2.000000  0.000000  0.000000
                       2.000000  2.000000  2.000000  2.000000  0.000000  0.000000
                       2.000000  2.000000  2.000000  2.000000  0.000000  0.000000
                       2.000000  2.000000  2.000000  2.000000  0.000000  0.000000
                       2.000000  2.000000  2.000000  2.000000  0.000000  0.000000
                       2.000000  2.000000  2.000000  2.000000  0.000000  0.000000
                       2.000000  2.000000  2.000000  2.000000  0.000000  0.000000
                       2.000000  2.000000  2.000000  2.000000  0.000000  0.000000
                       2.000000  2.000000  2.000000  2.000000  0.000000  0.000000
                       2.000000  2.000000  2.000000  2.000000  0.000000  0.000000
                       2.000000  2.000000  2.000000  2.000000  0.000000  0.000000
                       2.000000  2.000000  2.000000  2.000000  0.000000  0.000000
                       2.000000  2.000000  2.000000  2.000000  0.000000  0.000000
                       2.000000  2.000000  2.000000  2.000000  0.000000  0.000000
                       2.000000  2.000000  2.000000  2.000000  0.000000  0.000000
                       2.000000  2.000000  2.000000  2.000000  0.000000  0.000000
                       2.000000  2.000000  2.000000  2.000000  0.000000  0.000000
                       2.000000  2.000000  2.000000  2.000000  0.000000  0.000000
                       2.000000  2.000000  2.000000  2.000000  0.000000  0.000000
                       2.000000  2.000000  2.000000  2.000000  0.000000  0.000000
                       2.000000  2.000000  2.000000  2.000000  0.000000  0.000000
                       2.000000  2.000000  2.000000  2.000000  0.000000  0.000000
                       2.000000  2.000000  2.000000  2.000000  0.000000  0.000000
                       2.000000  2.000000  2.000000  2.000000  0.000000  0.000000
                       2.000000  2.000000  2.000000  2.000000  0.000000  0.000000
                       2.000000  2.000000  2.000000  2.000000  0.000000  0.000000
                       2.000000  2.000000  2.000000  2.000000  0.000000  0.000000
                       2.000000  2.000000  2.000000  2.000000  0.000000  0.000000
                       2.000000  2.000000  2.000000  2.000000  0.000000  0.000000
                       2.000000  2.000000  2.000000  2.000000  0.000000  0.000000
                       2.000000  2.000000  2.000000  2.000000  0.000000  0.000000
                       2.000000  2.000000  2.000000  2.000000  0.000000  0.000000
                       2.000000  2.000000  2.000000  2.000000  0.000000  0.000000
                       2.000000  2.000000  2.000000  2.000000  0.000000  0.000000
                       2.000000  2.000000  2.000000  2.000000  0.000000  0.000000
                       2.000000  2.000000  2.000000  2.000000  0.000000  0.000000
                       2.000000  2.000000  2.000000  2.000000  0.000000  0.000000
                       2.000000  2.000000  2.000000  2.000000  0.000000  0.000000
                       2.000000  2.000000  2.000000  2.000000  0.000000  0.000000
                       2.000000  2.000000  2.000000  2.000000  0.000000  0.000000
                       2.000000  2.000000  2.000000  2.000000  0.000000  0.000000
                       2.000000  2.000000  2.000000  2.000000  0.000000  0.000000
                       2.000000  2.000000  2.000000  2.000000  0.000000  0.000000
                       prtocc : prtvol=0, do not print more k-points.
           occopt           7
        pawecutdg      2.40000000E+01 Hartree
           prtden           0
           prtdos           1
           prteig           0
            prtwf           0
            rprim      0.0000000000E+00  5.0000000000E-01  5.0000000000E-01
                       5.0000000000E-01  0.0000000000E+00  5.0000000000E-01
                       5.0000000000E-01  5.0000000000E-01  0.0000000000E+00
           shiftk      5.00000000E-01  5.00000000E-01  5.00000000E-01
          spgroup         227
           symrel      1  0  0   0  1  0   0  0  1      -1  0  0   0 -1  0   0  0 -1
                       0 -1  1   0 -1  0   1 -1  0       0  1 -1   0  1  0  -1  1  0
                      -1  0  0  -1  0  1  -1  1  0       1  0  0   1  0 -1   1 -1  0
                       0  1 -1   1  0 -1   0  0 -1       0 -1  1  -1  0  1   0  0  1
                      -1  0  0  -1  1  0  -1  0  1       1  0  0   1 -1  0   1  0 -1
                       0 -1  1   1 -1  0   0 -1  0       0  1 -1  -1  1  0   0  1  0
                       1  0  0   0  0  1   0  1  0      -1  0  0   0  0 -1   0 -1  0
                       0  1 -1   0  0 -1   1  0 -1       0 -1  1   0  0  1  -1  0  1
                      -1  0  1  -1  1  0  -1  0  0       1  0 -1   1 -1  0   1  0  0
                       0 -1  0   1 -1  0   0 -1  1       0  1  0  -1  1  0   0  1 -1
                       1  0 -1   0  0 -1   0  1 -1      -1  0  1   0  0  1   0 -1  1
                       0  1  0   0  0  1   1  0  0       0 -1  0   0  0 -1  -1  0  0
                       1  0 -1   0  1 -1   0  0 -1      -1  0  1   0 -1  1   0  0  1
                       0 -1  0   0 -1  1   1 -1  0       0  1  0   0  1 -1  -1  1  0
                      -1  0  1  -1  0  0  -1  1  0       1  0 -1   1  0  0   1 -1  0
                       0  1  0   1  0  0   0  0  1       0 -1  0  -1  0  0   0  0 -1
                       0  0 -1   0  1 -1   1  0 -1       0  0  1   0 -1  1  -1  0  1
                       1 -1  0   0 -1  1   0 -1  0      -1  1  0   0  1 -1   0  1  0
                       0  0  1   1  0  0   0  1  0       0  0 -1  -1  0  0   0 -1  0
                      -1  1  0  -1  0  0  -1  0  1       1 -1  0   1  0  0   1  0 -1
                       0  0  1   0  1  0   1  0  0       0  0 -1   0 -1  0  -1  0  0
                       1 -1  0   0 -1  0   0 -1  1      -1  1  0   0  1  0   0  1 -1
                       0  0 -1   1  0 -1   0  1 -1       0  0  1  -1  0  1   0 -1  1
                      -1  1  0  -1  0  1  -1  0  0       1 -1  0   1  0 -1   1  0  0
            tnons      0.0000000  0.0000000  0.0000000     0.2500000  0.2500000  0.2500000
                       0.0000000  0.0000000  0.0000000     0.2500000  0.2500000  0.2500000
                       0.0000000  0.0000000  0.0000000     0.2500000  0.2500000  0.2500000
                       0.0000000  0.0000000  0.0000000     0.2500000  0.2500000  0.2500000
                       0.0000000  0.0000000  0.0000000     0.2500000  0.2500000  0.2500000
                       0.0000000  0.0000000  0.0000000     0.2500000  0.2500000  0.2500000
                       0.0000000  0.0000000  0.0000000     0.2500000  0.2500000  0.2500000
                       0.0000000  0.0000000  0.0000000     0.2500000  0.2500000  0.2500000
                       0.0000000  0.0000000  0.0000000     0.2500000  0.2500000  0.2500000
                       0.0000000  0.0000000  0.0000000     0.2500000  0.2500000  0.2500000
                       0.0000000  0.0000000  0.0000000     0.2500000  0.2500000  0.2500000
                       0.0000000  0.0000000  0.0000000     0.2500000  0.2500000  0.2500000
                       0.0000000  0.0000000  0.0000000     0.2500000  0.2500000  0.2500000
                       0.0000000  0.0000000  0.0000000     0.2500000  0.2500000  0.2500000
                       0.0000000  0.0000000  0.0000000     0.2500000  0.2500000  0.2500000
                       0.0000000  0.0000000  0.0000000     0.2500000  0.2500000  0.2500000
                       0.0000000  0.0000000  0.0000000     0.2500000  0.2500000  0.2500000
                       0.0000000  0.0000000  0.0000000     0.2500000  0.2500000  0.2500000
                       0.0000000  0.0000000  0.0000000     0.2500000  0.2500000  0.2500000
                       0.0000000  0.0000000  0.0000000     0.2500000  0.2500000  0.2500000
                       0.0000000  0.0000000  0.0000000     0.2500000  0.2500000  0.2500000
                       0.0000000  0.0000000  0.0000000     0.2500000  0.2500000  0.2500000
                       0.0000000  0.0000000  0.0000000     0.2500000  0.2500000  0.2500000
                       0.0000000  0.0000000  0.0000000     0.2500000  0.2500000  0.2500000
           tolwfr      1.00000000E-12
           tsmear      5.00000000E-03 Hartree
            typat      1  1
           useylm           1
              wtk        0.00600    0.00600    0.00600    0.01200    0.00600    0.00600
                         0.01200    0.00600    0.01200    0.01200    0.00600    0.00600
                         0.01200    0.00600    0.01200    0.01200    0.00600    0.01200
                         0.01200    0.01200    0.00600    0.00600    0.01200    0.00600
                         0.01200    0.01200    0.00600    0.01200    0.01200    0.01200
                         0.00600    0.01200    0.01200    0.01200    0.01200    0.00600
                         0.00600    0.00600    0.01200    0.00600    0.01200    0.01200
                         0.01200    0.00600    0.01200    0.01200    0.01200    0.01200
                         0.00600    0.01200
                       outvars : Printing only first  50 k-points.
           xangst      0.0000000000E+00  0.0000000000E+00  0.0000000000E+00
                       8.9175000000E-01  8.9175000000E-01  8.9175000000E-01
            xcart      0.0000000000E+00  0.0000000000E+00  0.0000000000E+00
                       1.6851632790E+00  1.6851632790E+00  1.6851632790E+00
             xred      0.0000000000E+00  0.0000000000E+00  0.0000000000E+00
                       2.5000000000E-01  2.5000000000E-01  2.5000000000E-01
            znucl        6.00000

================================================================================

 chkinp: Checking input parameters for consistency.

================================================================================
== DATASET  1 ==================================================================
-   nproc =    1

 Exchange-correlation functional for the present dataset will be:
  LDA: Perdew-Wang 92 LSD fit to Ceperley-Alder data - ixc=7
 Citation for XC functional:
  J.P.Perdew and Y.Wang, PRB 45, 13244 (1992)

 Real(R)+Recip(G) space primitive vectors, cartesian coordinates (Bohr,Bohr^-1):
 R(1)=  0.0000000  3.3703266  3.3703266  G(1)= -0.1483536  0.1483536  0.1483536
 R(2)=  3.3703266  0.0000000  3.3703266  G(2)=  0.1483536 -0.1483536  0.1483536
 R(3)=  3.3703266  3.3703266  0.0000000  G(3)=  0.1483536  0.1483536 -0.1483536
 Unit cell volume ucvol=  7.6567760E+01 bohr^3
 Angles (23,13,12)=  6.00000000E+01  6.00000000E+01  6.00000000E+01 degrees

 Coarse grid specifications (used for wave-functions):

 getcut: wavevector=  0.0000  0.0000  0.0000  ngfft=  16  16  16
         ecut(hartree)=     12.000   => boxcut(ratio)=   2.15267

 Fine grid specifications (used for densities):

 getcut: wavevector=  0.0000  0.0000  0.0000  ngfft=  24  24  24
         ecut(hartree)=     24.000   => boxcut(ratio)=   2.28325

 getcut : COMMENT -
  Note that boxcut > 2.2 ; recall that boxcut=Gcut(box)/Gcut(sphere) = 2
  is sufficient for exact treatment of convolution.
  Such a large boxcut is a waste : you could raise ecut
  e.g. ecut=   31.279390 Hartrees makes boxcut=2


--- Pseudopotential description ------------------------------------------------
- pspini: atom type   1  psp file is /data/ABINIT/testf_gcc47/trunk_7.10.2-private/tests/Psps_for_tests/6c.lda.atompaw
- pspatm: opening atomic psp file    /data/ABINIT/testf_gcc47/trunk_7.10.2-private/tests/Psps_for_tests/6c.lda.atompaw
- Paw atomic data for element C - Generated by AtomPAW + AtomPAW2Abinit v3.2.1
-  6.00000   4.00000  20080326                znucl, zion, pspdat
    7    7    1    0       505   0.00000      pspcod,pspxc,lmax,lloc,mmax,r2well
 Pseudopotential format is: paw4
 basis_size (lnmax)=  4 (lmn_size=  8), orbitals=   0   0   1   1
 Spheres core radius: rc_sph= 1.50000000
 4 radial meshes are used:
  - mesh 1: r(i)=AA*[exp(BB*(i-1))-1], size= 505 , AA= 0.21824E-02 BB= 0.13095E-01
  - mesh 2: r(i)=AA*[exp(BB*(i-1))-1], size= 500 , AA= 0.21824E-02 BB= 0.13095E-01
  - mesh 3: r(i)=AA*[exp(BB*(i-1))-1], size= 530 , AA= 0.21824E-02 BB= 0.13095E-01
  - mesh 4: r(i)=AA*[exp(BB*(i-1))-1], size= 644 , AA= 0.21824E-02 BB= 0.13095E-01
 Shapefunction is SIN type: shapef(r)=[sin(pi*r/rshp)/(pi*r/rshp)]**2
 Radius for shape functions = sphere core radius
 Radial grid used for partial waves is grid 1
 Radial grid used for projectors is grid  2
 Radial grid used for (t)core density is grid 3
 Radial grid used for Vloc is grid 4
 Radial grid used for pseudo valence density is grid 4
 Compensation charge density is taken into account in XC energy/potential
 pspatm: atomic psp has been read  and splines computed

   4.14245303E+01                                ecore*ucvol(ha*bohr**3)
--------------------------------------------------------------------------------

P newkpt: treating      6 bands with npw=     158 for ikpt=   1 by node    0
P newkpt: treating      6 bands with npw=     154 for ikpt=   2 by node    0
P newkpt: treating      6 bands with npw=     157 for ikpt=   3 by node    0
P newkpt: treating      6 bands with npw=     156 for ikpt=   4 by node    0
P newkpt: treating      6 bands with npw=     152 for ikpt=   5 by node    0
P newkpt: treating      6 bands with npw=     153 for ikpt=   6 by node    0
P newkpt: treating      6 bands with npw=     153 for ikpt=   7 by node    0
P newkpt: treating      6 bands with npw=     157 for ikpt=   8 by node    0
P newkpt: treating      6 bands with npw=     153 for ikpt=   9 by node    0
P newkpt: treating      6 bands with npw=     153 for ikpt=  10 by node    0
P newkpt: treating      6 bands with npw=     149 for ikpt=  11 by node    0
P newkpt: treating      6 bands with npw=     150 for ikpt=  12 by node    0
P newkpt: treating      6 bands with npw=     151 for ikpt=  13 by node    0
P newkpt: treating      6 bands with npw=     152 for ikpt=  14 by node    0
P newkpt: treating      6 bands with npw=     153 for ikpt=  15 by node    0
P newkpt: treating      6 bands with npw=     151 for ikpt=  16 by node    0
P newkpt: treating      6 bands with npw=     152 for ikpt=  17 by node    0
P newkpt: treating      6 bands with npw=     153 for ikpt=  18 by node    0
P newkpt: treating      6 bands with npw=     151 for ikpt=  19 by node    0
P newkpt: treating      6 bands with npw=     149 for ikpt=  20 by node    0
P newkpt: treating      6 bands with npw=     156 for ikpt=  21 by node    0
P newkpt: treating      6 bands with npw=     151 for ikpt=  22 by node    0
P newkpt: treating      6 bands with npw=     153 for ikpt=  23 by node    0
P newkpt: treating      6 bands with npw=     148 for ikpt=  24 by node    0
P newkpt: treating      6 bands with npw=     150 for ikpt=  25 by node    0
P newkpt: treating      6 bands with npw=     153 for ikpt=  26 by node    0
P newkpt: treating      6 bands with npw=     152 for ikpt=  27 by node    0
P newkpt: treating      6 bands with npw=     150 for ikpt=  28 by node    0
P newkpt: treating      6 bands with npw=     150 for ikpt=  29 by node    0
P newkpt: treating      6 bands with npw=     151 for ikpt=  30 by node    0
P newkpt: treating      6 bands with npw=     151 for ikpt=  31 by node    0
P newkpt: treating      6 bands with npw=     150 for ikpt=  32 by node    0
P newkpt: treating      6 bands with npw=     150 for ikpt=  33 by node    0
P newkpt: treating      6 bands with npw=     148 for ikpt=  34 by node    0
P newkpt: treating      6 bands with npw=     151 for ikpt=  35 by node    0
P newkpt: treating      6 bands with npw=     149 for ikpt=  36 by node    0
P newkpt: treating      6 bands with npw=     156 for ikpt=  37 by node    0
P newkpt: treating      6 bands with npw=     155 for ikpt=  38 by node    0
P newkpt: treating      6 bands with npw=     155 for ikpt=  39 by node    0
P newkpt: treating      6 bands with npw=     149 for ikpt=  40 by node    0
P newkpt: treating      6 bands with npw=     152 for ikpt=  41 by node    0
P newkpt: treating      6 bands with npw=     154 for ikpt=  42 by node    0
P newkpt: treating      6 bands with npw=     155 for ikpt=  43 by node    0
P newkpt: treating      6 bands with npw=     149 for ikpt=  44 by node    0
P newkpt: treating      6 bands with npw=     150 for ikpt=  45 by node    0
P newkpt: treating      6 bands with npw=     151 for ikpt=  46 by node    0
P newkpt: treating      6 bands with npw=     153 for ikpt=  47 by node    0
P newkpt: treating      6 bands with npw=     153 for ikpt=  48 by node    0
P newkpt: treating      6 bands with npw=     149 for ikpt=  49 by node    0
P newkpt: treating      6 bands with npw=     149 for ikpt=  50 by node    0
 newkpt: prtvol=0 or 1, do not print more k-points.

_setup2: Arith. and geom. avg. npw (full set) are     151.842     151.827

================================================================================

     iter   Etot(hartree)      deltaE(h)  residm     nres2
 ETOT  1  -11.535427348068    -1.154E+01 2.495E-01 5.816E+00
 ETOT  2  -11.527048837144     8.379E-03 9.210E-06 6.158E-01
 ETOT  3  -11.524579462550     2.469E-03 4.475E-05 9.825E-03
 ETOT  4  -11.524585269370    -5.807E-06 1.571E-07 3.978E-04
 ETOT  5  -11.524584583721     6.856E-07 3.308E-08 2.484E-05
 ETOT  6  -11.524584515309     6.841E-08 1.161E-09 2.063E-08
 ETOT  7  -11.524584515468    -1.591E-10 1.637E-12 2.890E-09
 ETOT  8  -11.524584515469    -1.263E-12 9.685E-13 1.390E-10

 At SCF step    8   max residual=  9.69E-13 < tolwfr=  1.00E-12 =>converged.

 Cartesian components of stress tensor (hartree/bohr^3)
  sigma(1 1)=  4.15046980E-04  sigma(3 2)=  0.00000000E+00
  sigma(2 2)=  4.15046980E-04  sigma(3 1)=  0.00000000E+00
  sigma(3 3)=  4.15046980E-04  sigma(2 1)=  0.00000000E+00


 PAW TEST:
 ==== Compensation charge inside spheres ============
 The following values must be close to each other ...
 Compensation charge over spherical meshes =      0.409395754698248
 Compensation charge over fine fft grid    =      0.409395655356965

 ==== Results concerning PAW augmentation regions ====

 Total pseudopotential strength Dij (hartree):
 Atom #  1
   0.59005  -1.64876   0.00000   0.00000   0.00000   0.00000   0.00000   0.00000
  -1.64876   4.11670   0.00000   0.00000   0.00000   0.00000   0.00000   0.00000
   0.00000   0.00000  -0.03420   0.00000   0.00000  -0.22964   0.00000   0.00000
   0.00000   0.00000   0.00000  -0.03420   0.00000   0.00000  -0.22964   0.00000
   0.00000   0.00000   0.00000   0.00000  -0.03420   0.00000   0.00000  -0.22964
   0.00000   0.00000  -0.22964   0.00000   0.00000   2.94424   0.00000   0.00000
   0.00000   0.00000   0.00000  -0.22964   0.00000   0.00000   2.94424   0.00000
   0.00000   0.00000   0.00000   0.00000  -0.22964   0.00000   0.00000   2.94424
 Atom #  2
   0.59005  -1.64876   0.00000   0.00000   0.00000   0.00000   0.00000   0.00000
  -1.64876   4.11670   0.00000   0.00000   0.00000   0.00000   0.00000   0.00000
   0.00000   0.00000  -0.03420   0.00000   0.00000  -0.22964   0.00000   0.00000
   0.00000   0.00000   0.00000  -0.03420   0.00000   0.00000  -0.22964   0.00000
   0.00000   0.00000   0.00000   0.00000  -0.03420   0.00000   0.00000  -0.22964
   0.00000   0.00000  -0.22964   0.00000   0.00000   2.94424   0.00000   0.00000
   0.00000   0.00000   0.00000  -0.22964   0.00000   0.00000   2.94424   0.00000
   0.00000   0.00000   0.00000   0.00000  -0.22964   0.00000   0.00000   2.94424


 Augmentation waves occupancies Rhoij:
 Atom #  1
   1.61519   0.04430   0.00000   0.00000   0.00000   0.00000   0.00000   0.00000
   0.04430   0.00167   0.00000   0.00000   0.00000   0.00000   0.00000   0.00000
   0.00000   0.00000   1.41630   0.00000   0.00000   0.06369   0.00000   0.00000
   0.00000   0.00000   0.00000   1.41630   0.00000   0.00000   0.06369   0.00000
   0.00000   0.00000   0.00000   0.00000   1.41630   0.00000   0.00000   0.06369
   0.00000   0.00000   0.06369   0.00000   0.00000   0.00339   0.00000   0.00000
   0.00000   0.00000   0.00000   0.06369   0.00000   0.00000   0.00339   0.00000
   0.00000   0.00000   0.00000   0.00000   0.06369   0.00000   0.00000   0.00339
 Atom #  2
   1.61519   0.04430   0.00000   0.00000   0.00000   0.00000   0.00000   0.00000
   0.04430   0.00167   0.00000   0.00000   0.00000   0.00000   0.00000   0.00000
   0.00000   0.00000   1.41630   0.00000   0.00000   0.06369   0.00000   0.00000
   0.00000   0.00000   0.00000   1.41630   0.00000   0.00000   0.06369   0.00000
   0.00000   0.00000   0.00000   0.00000   1.41630   0.00000   0.00000   0.06369
   0.00000   0.00000   0.06369   0.00000   0.00000   0.00339   0.00000   0.00000
   0.00000   0.00000   0.00000   0.06369   0.00000   0.00000   0.00339   0.00000
   0.00000   0.00000   0.00000   0.00000   0.06369   0.00000   0.00000   0.00339


================================================================================

 ----iterations are completed or convergence reached----

 Mean square residual over all n,k,spin=   2.5341E-06; max=  2.0829E-04
  -0.0500 -0.1000  0.0000    1  1.55488E-05 kpt; spin; max resid(k); each band:
  3.42E-13 3.20E-13 1.90E-13 3.71E-13 5.37E-07 1.55E-05
  -0.0500 -0.2000  0.0000    1  2.08292E-04 kpt; spin; max resid(k); each band:
  5.94E-13 3.07E-13 5.99E-13 7.63E-13 3.16E-08 2.08E-04
  -0.1000 -0.1500  0.0000    1  4.86124E-08 kpt; spin; max resid(k); each band:
  2.52E-13 2.05E-13 3.27E-13 4.26E-13 7.61E-12 4.86E-08
  -0.0500 -0.1500  0.0500    1  2.97169E-05 kpt; spin; max resid(k); each band:
  2.40E-13 6.39E-13 4.18E-13 2.55E-13 4.71E-11 2.97E-05
  -0.0500 -0.3000  0.0000    1  8.14409E-05 kpt; spin; max resid(k); each band:
  7.15E-13 1.79E-13 3.81E-13 6.38E-13 8.62E-07 8.14E-05
  -0.1000 -0.2500  0.0000    1  4.70620E-06 kpt; spin; max resid(k); each band:
  4.71E-13 4.54E-13 2.76E-13 6.88E-13 8.37E-12 4.71E-06
  -0.0500 -0.2500  0.0500    1  1.40785E-05 kpt; spin; max resid(k); each band:
  3.50E-13 4.71E-13 3.68E-13 3.79E-13 1.43E-09 1.41E-05
  -0.1500 -0.2000  0.0000    1  5.30458E-08 kpt; spin; max resid(k); each band:
  4.60E-13 3.28E-13 2.87E-13 4.62E-13 6.78E-13 5.30E-08
  -0.1000 -0.2000  0.0500    1  1.60401E-05 kpt; spin; max resid(k); each band:
  3.95E-13 4.59E-13 4.19E-13 5.23E-13 8.85E-13 1.60E-05
  -0.0500 -0.2000  0.1000    1  1.13619E-05 kpt; spin; max resid(k); each band:
  3.01E-13 5.42E-13 5.42E-13 2.83E-13 3.19E-10 1.14E-05
  -0.0500 -0.4000  0.0000    1  2.97820E-05 kpt; spin; max resid(k); each band:
  3.17E-13 4.47E-13 1.73E-13 2.17E-13 7.94E-07 2.98E-05
  -0.1000 -0.3500  0.0000    1  4.30351E-06 kpt; spin; max resid(k); each band:
  2.81E-13 3.97E-13 5.15E-13 7.03E-13 1.09E-10 4.30E-06
  -0.0500 -0.3500  0.0500    1  1.24068E-05 kpt; spin; max resid(k); each band:
  6.37E-13 4.62E-13 2.99E-13 2.78E-13 3.59E-08 1.24E-05
  -0.1500 -0.3000  0.0000    1  4.11871E-06 kpt; spin; max resid(k); each band:
  2.69E-13 4.15E-13 6.77E-13 9.61E-13 9.13E-13 4.12E-06
  -0.1000 -0.3000  0.0500    1  6.98273E-06 kpt; spin; max resid(k); each band:
  2.38E-13 5.48E-13 3.41E-13 6.85E-13 9.44E-13 6.98E-06
  -0.0500 -0.3000  0.1000    1  8.05410E-08 kpt; spin; max resid(k); each band:
  5.71E-13 5.06E-13 3.54E-13 2.76E-13 2.03E-10 8.05E-08
  -0.2000 -0.2500  0.0000    1  1.22982E-06 kpt; spin; max resid(k); each band:
  2.53E-13 3.02E-13 9.48E-13 8.09E-13 7.83E-13 1.23E-06
  -0.1500 -0.2500  0.0500    1  1.90237E-05 kpt; spin; max resid(k); each band:
  6.26E-13 3.76E-13 3.36E-13 1.80E-13 9.18E-13 1.90E-05
  -0.1000 -0.2500  0.1000    1  1.59225E-07 kpt; spin; max resid(k); each band:
  6.45E-13 4.31E-13 3.25E-13 6.58E-13 4.80E-13 1.59E-07
  -0.0500 -0.2500  0.1500    1  3.89757E-09 kpt; spin; max resid(k); each band:
  5.10E-13 4.38E-13 3.99E-13 3.01E-13 2.25E-11 3.90E-09
  -0.0500  0.5000  0.0000    1  2.13607E-06 kpt; spin; max resid(k); each band:
  2.02E-13 3.48E-13 2.82E-13 7.16E-13 2.14E-06 9.86E-07
  -0.1000 -0.4500  0.0000    1  2.20520E-05 kpt; spin; max resid(k); each band:
  8.02E-13 3.72E-13 4.60E-13 1.62E-13 4.10E-10 2.21E-05
  -0.0500 -0.4500  0.0500    1  1.65526E-05 kpt; spin; max resid(k); each band:
  5.30E-13 7.80E-13 5.81E-13 4.41E-13 2.60E-08 1.66E-05
  -0.1500 -0.4000  0.0000    1  3.67581E-05 kpt; spin; max resid(k); each band:
  2.77E-13 4.42E-13 2.89E-13 6.93E-13 5.07E-13 3.68E-05
  -0.1000 -0.4000  0.0500    1  8.05793E-07 kpt; spin; max resid(k); each band:
  2.63E-13 4.85E-13 8.76E-13 9.33E-13 5.55E-12 8.06E-07
  -0.0500 -0.4000  0.1000    1  9.99808E-10 kpt; spin; max resid(k); each band:
  8.64E-13 5.34E-13 3.16E-13 4.83E-13 1.26E-10 1.00E-09
  -0.2000 -0.3500  0.0000    1  2.46505E-08 kpt; spin; max resid(k); each band:
  2.74E-13 6.97E-13 1.43E-13 5.66E-13 8.39E-13 2.47E-08
  -0.1500 -0.3500  0.0500    1  9.81756E-07 kpt; spin; max resid(k); each band:
  2.84E-13 4.35E-13 3.25E-13 1.27E-13 1.01E-13 9.82E-07
  -0.1000 -0.3500  0.1000    1  3.64668E-09 kpt; spin; max resid(k); each band:
  2.56E-13 4.61E-13 2.92E-13 1.61E-13 7.52E-13 3.65E-09
  -0.0500 -0.3500  0.1500    1  1.51552E-09 kpt; spin; max resid(k); each band:
  6.35E-13 5.42E-13 4.45E-13 5.13E-13 3.69E-12 1.52E-09
  -0.2500 -0.3000  0.0000    1  3.12614E-10 kpt; spin; max resid(k); each band:
  2.81E-13 6.84E-13 1.33E-13 6.71E-13 5.17E-13 3.13E-10
  -0.2000 -0.3000  0.0500    1  1.55885E-07 kpt; spin; max resid(k); each band:
  2.77E-13 5.35E-13 3.21E-13 6.81E-13 6.65E-13 1.56E-07
  -0.1500 -0.3000  0.1000    1  6.65917E-07 kpt; spin; max resid(k); each band:
  2.68E-13 4.46E-13 2.02E-13 1.45E-13 3.58E-13 6.66E-07
  -0.1000 -0.3000  0.1500    1  1.13376E-11 kpt; spin; max resid(k); each band:
  2.43E-13 4.92E-13 7.53E-13 1.43E-13 6.01E-13 1.13E-11
  -0.0500 -0.3000  0.2000    1  2.21139E-10 kpt; spin; max resid(k); each band:
  6.55E-13 5.52E-13 6.07E-13 4.98E-13 3.66E-13 2.21E-10
  -0.0500  0.4000  0.0000    1  1.02626E-05 kpt; spin; max resid(k); each band:
  5.55E-13 4.06E-13 3.64E-13 9.12E-14 1.49E-07 1.03E-05
  -0.1000  0.4500  0.0000    1  1.56118E-06 kpt; spin; max resid(k); each band:
  1.96E-13 4.00E-13 9.03E-13 6.41E-13 7.55E-09 1.56E-06
  -0.1500  0.5000  0.0000    1  2.82759E-05 kpt; spin; max resid(k); each band:
  3.10E-13 4.11E-13 9.57E-13 3.71E-13 1.44E-12 2.83E-05
  -0.1000  0.5000  0.0500    1  2.04389E-07 kpt; spin; max resid(k); each band:
  3.09E-13 5.49E-13 5.99E-13 4.84E-13 1.69E-11 2.04E-07
  -0.2000 -0.4500  0.0000    1  2.83144E-05 kpt; spin; max resid(k); each band:
  3.18E-13 5.02E-13 4.75E-13 5.73E-13 1.01E-13 2.83E-05
  -0.1500 -0.4500  0.0500    1  1.57122E-07 kpt; spin; max resid(k); each band:
  2.70E-13 5.34E-13 5.88E-13 3.16E-13 2.92E-13 1.57E-07
  -0.1000 -0.4500  0.1000    1  2.90260E-11 kpt; spin; max resid(k); each band:
  3.38E-13 7.10E-13 6.14E-13 3.11E-13 5.20E-13 2.90E-11
  -0.0500 -0.4500  0.1500    1  1.30893E-07 kpt; spin; max resid(k); each band:
  3.66E-13 7.83E-13 4.06E-13 2.78E-13 9.12E-13 1.31E-07
  -0.2500 -0.4000  0.0000    1  8.05122E-13 kpt; spin; max resid(k); each band:
  2.92E-13 3.25E-13 4.59E-13 1.24E-13 4.29E-13 8.05E-13
  -0.2000 -0.4000  0.0500    1  2.68448E-07 kpt; spin; max resid(k); each band:
  2.90E-13 6.73E-13 4.26E-13 5.55E-13 7.16E-13 2.68E-07
  -0.1500 -0.4000  0.1000    1  1.16391E-09 kpt; spin; max resid(k); each band:
  2.95E-13 5.08E-13 5.51E-13 2.41E-13 9.36E-14 1.16E-09
  -0.1000 -0.4000  0.1500    1  4.77629E-12 kpt; spin; max resid(k); each band:
  3.16E-13 6.55E-13 4.52E-13 3.51E-13 6.15E-13 4.78E-12
  -0.0500 -0.4000  0.2000    1  2.89898E-09 kpt; spin; max resid(k); each band:
  4.65E-13 7.11E-13 4.85E-13 2.98E-13 9.35E-13 2.90E-09
  -0.3000 -0.3500  0.0000    1  5.76924E-13 kpt; spin; max resid(k); each band:
  2.78E-13 2.40E-13 5.30E-13 1.23E-13 5.06E-13 5.77E-13
  -0.2500 -0.3500  0.0500    1  6.05692E-13 kpt; spin; max resid(k); each band:
  3.08E-13 5.16E-13 4.60E-13 6.06E-13 5.32E-13 3.27E-13
 outwf : prtvol=0 or 1, do not print more k-points.

 reduced coordinates (array xred) for    2 atoms
       0.000000000000      0.000000000000      0.000000000000
       0.250000000000      0.250000000000      0.250000000000
 rms dE/dt=  8.8391E-28; max dE/dt=  1.1780E-27; dE/dt below (all hartree)
    1      -0.000000000000     -0.000000000000      0.000000000000
    2       0.000000000000      0.000000000000     -0.000000000000

 cartesian coordinates (angstrom) at end:
    1      0.00000000000000     0.00000000000000     0.00000000000000
    2      0.89175000000000     0.89175000000000     0.89175000000000

 cartesian forces (hartree/bohr) at end:
    1     -0.00000000000000    -0.00000000000000     0.00000000000000
    2      0.00000000000000     0.00000000000000    -0.00000000000000
 frms,max,avg= 2.5804593E-28 3.4953061E-28   0.000E+00  0.000E+00  0.000E+00 h/b

 cartesian forces (eV/Angstrom) at end:
    1     -0.00000000000000    -0.00000000000000     0.00000000000000
    2      0.00000000000000     0.00000000000000    -0.00000000000000
 frms,max,avg= 1.3269254E-26 1.7973585E-26   0.000E+00  0.000E+00  0.000E+00 e/A
 length scales=  6.740653116003  6.740653116003  6.740653116003 bohr
              =  3.567000000000  3.567000000000  3.567000000000 angstroms
 Fermi (or HOMO) energy (hartree) =   0.49464   Average Vxc (hartree)=  -0.49510
 Eigenvalues (hartree) for nkpt= 110  k points:
 kpt#   1, nband=  6, wtk=  0.00600, kpt= -0.0500 -0.1000  0.0000 (reduced coord)
  -0.36109   0.36642   0.38465   0.40041   0.61781   0.65227
      occupation numbers for kpt#   1
   2.00000   2.00000   2.00000   2.00000   0.00000   0.00000
 kpt#   2, nband=  6, wtk=  0.00600, kpt= -0.0500 -0.2000  0.0000 (reduced coord)
  -0.33409   0.25629   0.35069   0.37507   0.65162   0.69985
      occupation numbers for kpt#   2
   2.00000   2.00000   2.00000   2.00000   0.00000   0.00000
 kpt#   3, nband=  6, wtk=  0.00600, kpt= -0.1000 -0.1500  0.0000 (reduced coord)
  -0.34756   0.32967   0.34984   0.37511   0.60891   0.69778
      occupation numbers for kpt#   3
   2.00000   2.00000   2.00000   2.00000   0.00000   0.00000
 kpt#   4, nband=  6, wtk=  0.01200, kpt= -0.0500 -0.1500  0.0500 (reduced coord)
  -0.34082   0.29501   0.33461   0.38548   0.63303   0.69802
      occupation numbers for kpt#   4
   2.00000   2.00000   2.00000   2.00000   0.00000   0.00000
 kpt#   5, nband=  6, wtk=  0.00600, kpt= -0.0500 -0.3000  0.0000 (reduced coord)
  -0.28744   0.13296   0.32306   0.34303   0.68787   0.72893
      occupation numbers for kpt#   5
   2.00000   2.00000   2.00000   2.00000   0.00000   0.00000
 kpt#   6, nband=  6, wtk=  0.00600, kpt= -0.1000 -0.2500  0.0000 (reduced coord)
  -0.31397   0.21717   0.31739   0.34974   0.64129   0.74067
      occupation numbers for kpt#   6
   2.00000   2.00000   2.00000   2.00000   0.00000   0.00000
 kpt#   7, nband=  6, wtk=  0.01200, kpt= -0.0500 -0.2500  0.0500 (reduced coord)
  -0.30066   0.17617   0.30435   0.35476   0.67172   0.73189
      occupation numbers for kpt#   7
   2.00000   2.00000   2.00000   2.00000   0.00000   0.00000
 kpt#   8, nband=  6, wtk=  0.00600, kpt= -0.1500 -0.2000  0.0000 (reduced coord)
  -0.32735   0.29109   0.31309   0.33801   0.59807   0.74969
      occupation numbers for kpt#   8
   2.00000   2.00000   2.00000   2.00000   0.00000   0.00000
 kpt#   9, nband=  6, wtk=  0.01200, kpt= -0.1000 -0.2000  0.0500 (reduced coord)
  -0.32065   0.25636   0.29907   0.35460   0.62352   0.74274
      occupation numbers for kpt#   9
   2.00000   2.00000   2.00000   2.00000   0.00000   0.00000
 kpt#  10, nband=  6, wtk=  0.01200, kpt= -0.0500 -0.2000  0.1000 (reduced coord)
  -0.30730   0.21865   0.27040   0.36357   0.66366   0.73333
      occupation numbers for kpt#  10
   2.00000   2.00000   2.00000   2.00000   0.00000   0.00000
 kpt#  11, nband=  6, wtk=  0.00600, kpt= -0.0500 -0.4000  0.0000 (reduced coord)
  -0.22308   0.01608   0.30757   0.31703   0.70721   0.73471
      occupation numbers for kpt#  11
   2.00000   2.00000   2.00000   2.00000   0.00000   0.00000
 kpt#  12, nband=  6, wtk=  0.00600, kpt= -0.1000 -0.3500  0.0000 (reduced coord)
  -0.26121   0.09699   0.29650   0.31631   0.67553   0.76376
      occupation numbers for kpt#  12
   2.00000   2.00000   2.00000   2.00000   0.00000   0.00000
 kpt#  13, nband=  6, wtk=  0.01200, kpt= -0.0500 -0.3500  0.0500 (reduced coord)
  -0.24191   0.05691   0.28681   0.32353   0.70065   0.73977
      occupation numbers for kpt#  13
   2.00000   2.00000   2.00000   2.00000   0.00000   0.00000
 kpt#  14, nband=  6, wtk=  0.00600, kpt= -0.1500 -0.3000  0.0000 (reduced coord)
  -0.28735   0.18072   0.28532   0.31024   0.62999   0.78771
      occupation numbers for kpt#  14
   2.00000   2.00000   2.00000   2.00000   0.00000   0.00000
 kpt#  15, nband=  6, wtk=  0.01200, kpt= -0.1000 -0.3000  0.0500 (reduced coord)
  -0.27422   0.14026   0.27347   0.32260   0.66161   0.76366
      occupation numbers for kpt#  15
   2.00000   2.00000   2.00000   2.00000   0.00000   0.00000
 kpt#  16, nband=  6, wtk=  0.01200, kpt= -0.0500 -0.3000  0.1000 (reduced coord)
  -0.25469   0.10182   0.24936   0.32948   0.70270   0.73863
      occupation numbers for kpt#  16
   2.00000   2.00000   2.00000   2.00000   0.00000   0.00000
 kpt#  17, nband=  6, wtk=  0.00600, kpt= -0.2000 -0.2500  0.0000 (reduced coord)
  -0.30057   0.25258   0.27854   0.29424   0.58726   0.80490
      occupation numbers for kpt#  17
   2.00000   2.00000   2.00000   2.00000   0.00000   0.00000
 kpt#  18, nband=  6, wtk=  0.01200, kpt= -0.1500 -0.2500  0.0500 (reduced coord)
  -0.29395   0.21907   0.26481   0.31350   0.61322   0.78898
      occupation numbers for kpt#  18
   2.00000   2.00000   2.00000   2.00000   0.00000   0.00000
 kpt#  19, nband=  6, wtk=  0.01200, kpt= -0.1000 -0.2500  0.1000 (reduced coord)
  -0.28077   0.18278   0.23741   0.32848   0.65684   0.76323
      occupation numbers for kpt#  19
   2.00000   2.00000   2.00000   2.00000   0.00000   0.00000
 kpt#  20, nband=  6, wtk=  0.01200, kpt= -0.0500 -0.2500  0.1500 (reduced coord)
  -0.26114   0.14707   0.20634   0.33240   0.70729   0.73666
      occupation numbers for kpt#  20
   2.00000   2.00000   2.00000   2.00000   0.00000   0.00000
 kpt#  21, nband=  6, wtk=  0.00600, kpt= -0.0500  0.5000  0.0000 (reduced coord)
  -0.15688  -0.07193   0.30173   0.30565   0.71643   0.72972
      occupation numbers for kpt#  21
   2.00000   2.00000   2.00000   2.00000   0.00000   0.00000
 kpt#  22, nband=  6, wtk=  0.00600, kpt= -0.1000 -0.4500  0.0000 (reduced coord)
  -0.19252  -0.01337   0.28810   0.29017   0.69422   0.75966
      occupation numbers for kpt#  22
   2.00000   2.00000   2.00000   2.00000   0.00000   0.00000
 kpt#  23, nband=  6, wtk=  0.01200, kpt= -0.0500 -0.4500  0.0500 (reduced coord)
  -0.17096  -0.04604   0.28204   0.30222   0.71337   0.73511
      occupation numbers for kpt#  23
   2.00000   2.00000   2.00000   2.00000   0.00000   0.00000
 kpt#  24, nband=  6, wtk=  0.00600, kpt= -0.1500 -0.4000  0.0000 (reduced coord)
  -0.22890   0.06595   0.27187   0.27416   0.66133   0.80080
      occupation numbers for kpt#  24
   2.00000   2.00000   2.00000   2.00000   0.00000   0.00000
 kpt#  25, nband=  6, wtk=  0.01200, kpt= -0.1000 -0.4000  0.0500 (reduced coord)
  -0.21024   0.02661   0.26072   0.29259   0.68754   0.76338
      occupation numbers for kpt#  25
   2.00000   2.00000   2.00000   2.00000   0.00000   0.00000
 kpt#  26, nband=  6, wtk=  0.01200, kpt= -0.0500 -0.4000  0.1000 (reduced coord)
  -0.18631  -0.00749   0.24446   0.29939   0.71535   0.73887
      occupation numbers for kpt#  26
   2.00000   2.00000   2.00000   2.00000   0.00000   0.00000
 kpt#  27, nband=  6, wtk=  0.00600, kpt= -0.2000 -0.3500  0.0000 (reduced coord)
  -0.25444   0.14741   0.25666   0.26212   0.61931   0.80613
      occupation numbers for kpt#  27
   2.00000   2.00000   2.00000   2.00000   0.00000   0.00000
 kpt#  28, nband=  6, wtk=  0.01200, kpt= -0.1500 -0.3500  0.0500 (reduced coord)
  -0.24157   0.10849   0.24271   0.28070   0.65023   0.80031
      occupation numbers for kpt#  28
   2.00000   2.00000   2.00000   2.00000   0.00000   0.00000
 kpt#  29, nband=  6, wtk=  0.01200, kpt= -0.1000 -0.3500  0.1000 (reduced coord)
  -0.22252   0.07115   0.22110   0.29374   0.69400   0.75877
      occupation numbers for kpt#  29
   2.00000   2.00000   2.00000   2.00000   0.00000   0.00000
 kpt#  30, nband=  6, wtk=  0.01200, kpt= -0.0500 -0.3500  0.1500 (reduced coord)
  -0.19768   0.03762   0.19735   0.29675   0.71432   0.75108
      occupation numbers for kpt#  30
   2.00000   2.00000   2.00000   2.00000   0.00000   0.00000
 kpt#  31, nband=  6, wtk=  0.00600, kpt= -0.2500 -0.3000  0.0000 (reduced coord)
  -0.26741   0.21104   0.24818   0.25113   0.57815   0.76271
      occupation numbers for kpt#  31
   2.00000   2.00000   2.00000   2.00000   0.00000   0.00000
 kpt#  32, nband=  6, wtk=  0.01200, kpt= -0.2000 -0.3000  0.0500 (reduced coord)
  -0.26091   0.18277   0.23332   0.26848   0.60424   0.78256
      occupation numbers for kpt#  32
   2.00000   2.00000   2.00000   2.00000   0.00000   0.00000
 kpt#  33, nband=  6, wtk=  0.01200, kpt= -0.1500 -0.3000  0.1000 (reduced coord)
  -0.24796   0.14954   0.20735   0.28406   0.64932   0.79319
      occupation numbers for kpt#  33
   2.00000   2.00000   2.00000   2.00000   0.00000   0.00000
 kpt#  34, nband=  6, wtk=  0.01200, kpt= -0.1000 -0.3000  0.1500 (reduced coord)
  -0.22875   0.11593   0.17775   0.29392   0.70474   0.75303
      occupation numbers for kpt#  34
   2.00000   2.00000   2.00000   2.00000   0.00000   0.00000
 kpt#  35, nband=  6, wtk=  0.01200, kpt= -0.0500 -0.3000  0.2000 (reduced coord)
  -0.20359   0.08432   0.14876   0.29518   0.71246   0.76284
      occupation numbers for kpt#  35
   2.00000   2.00000   2.00000   2.00000   0.00000   0.00000
 kpt#  36, nband=  6, wtk=  0.00600, kpt= -0.0500  0.4000  0.0000 (reduced coord)
  -0.19885  -0.01895   0.29913   0.31690   0.72115   0.72394
      occupation numbers for kpt#  36
   2.00000   2.00000   2.00000   2.00000   0.00000   0.00000
 kpt#  37, nband=  6, wtk=  0.00600, kpt= -0.1000  0.4500  0.0000 (reduced coord)
  -0.15090  -0.06564   0.27074   0.29847   0.70814   0.74682
      occupation numbers for kpt#  37
   2.00000   2.00000   2.00000   2.00000   0.00000   0.00000
 kpt#  38, nband=  6, wtk=  0.00600, kpt= -0.1500  0.5000  0.0000 (reduced coord)
  -0.15860  -0.03453   0.24397   0.27428   0.67945   0.78994
      occupation numbers for kpt#  38
   2.00000   2.00000   2.00000   2.00000   0.00000   0.00000
 kpt#  39, nband=  6, wtk=  0.01200, kpt= -0.1000  0.5000  0.0500 (reduced coord)
  -0.14489  -0.05959   0.25180   0.28313   0.70237   0.75246
      occupation numbers for kpt#  39
   2.00000   2.00000   2.00000   2.00000   0.00000   0.00000
 kpt#  40, nband=  6, wtk=  0.00600, kpt= -0.2000 -0.4500  0.0000 (reduced coord)
  -0.19103   0.04032   0.22255   0.25075   0.64701   0.84044
      occupation numbers for kpt#  40
   2.00000   2.00000   2.00000   2.00000   0.00000   0.00000
 kpt#  41, nband=  6, wtk=  0.01200, kpt= -0.1500 -0.4500  0.0500 (reduced coord)
  -0.17365   0.00272   0.22521   0.26112   0.67315   0.79437
      occupation numbers for kpt#  41
   2.00000   2.00000   2.00000   2.00000   0.00000   0.00000
 kpt#  42, nband=  6, wtk=  0.01200, kpt= -0.1000 -0.4500  0.1000 (reduced coord)
  -0.15262  -0.02851   0.21841   0.26854   0.70876   0.75096
      occupation numbers for kpt#  42
   2.00000   2.00000   2.00000   2.00000   0.00000   0.00000
 kpt#  43, nband=  6, wtk=  0.01200, kpt= -0.0500 -0.4500  0.1500 (reduced coord)
  -0.13312  -0.04740   0.20594   0.26998   0.69138   0.77767
      occupation numbers for kpt#  43
   2.00000   2.00000   2.00000   2.00000   0.00000   0.00000
 kpt#  44, nband=  6, wtk=  0.00600, kpt= -0.2500 -0.4000  0.0000 (reduced coord)
  -0.21552   0.11613   0.21103   0.23275   0.61039   0.75923
      occupation numbers for kpt#  44
   2.00000   2.00000   2.00000   2.00000   0.00000   0.00000
 kpt#  45, nband=  6, wtk=  0.01200, kpt= -0.2000 -0.4000  0.0500 (reduced coord)
  -0.20309   0.08086   0.20647   0.24170   0.63937   0.80218
      occupation numbers for kpt#  45
   2.00000   2.00000   2.00000   2.00000   0.00000   0.00000
 kpt#  46, nband=  6, wtk=  0.01200, kpt= -0.1500 -0.4000  0.1000 (reduced coord)
  -0.18486   0.04568   0.19225   0.25159   0.68367   0.78594
      occupation numbers for kpt#  46
   2.00000   2.00000   2.00000   2.00000   0.00000   0.00000
 kpt#  47, nband=  6, wtk=  0.01200, kpt= -0.1000 -0.4000  0.1500 (reduced coord)
  -0.16156   0.01405   0.17313   0.25950   0.71829   0.75561
      occupation numbers for kpt#  47
   2.00000   2.00000   2.00000   2.00000   0.00000   0.00000
 kpt#  48, nband=  6, wtk=  0.01200, kpt= -0.0500 -0.4000  0.2000 (reduced coord)
  -0.13494  -0.01112   0.15318   0.26141   0.68281   0.80556
      occupation numbers for kpt#  48
   2.00000   2.00000   2.00000   2.00000   0.00000   0.00000
 kpt#  49, nband=  6, wtk=  0.00600, kpt= -0.3000 -0.3500  0.0000 (reduced coord)
  -0.22814   0.16024   0.21793   0.22303   0.57223   0.70878
      occupation numbers for kpt#  49
   2.00000   2.00000   2.00000   2.00000   0.00000   0.00000
 kpt#  50, nband=  6, wtk=  0.01200, kpt= -0.2500 -0.3500  0.0500 (reduced coord)
  -0.22180   0.14379   0.20415   0.22863   0.59804   0.73136
      occupation numbers for kpt#  50
   2.00000   2.00000   2.00000   2.00000   0.00000   0.00000
 prteigrs : prtvol=0 or 1, do not print more k-points.

 Total charge density [el/Bohr^3]
,     Maximum=    2.7279E-01  at reduced coord.    0.0417    0.0833    0.8333
,Next maximum=    2.7279E-01  at reduced coord.    0.0833    0.0417    0.8333
,     Minimum=    1.3733E-02  at reduced coord.    0.5000    0.5000    0.5000
,Next minimum=    1.3733E-02  at reduced coord.    0.7500    0.7500    0.7500
,  Integrated=    8.0000E+00

--------------------------------------------------------------------------------
 Components of total free energy (in Hartree) :

    Kinetic energy  =  6.41067550224953E+00
    Hartree energy  =  9.63515195424251E-01
    XC energy       = -3.53234297333803E+00
    Ewald energy    = -1.27864121210521E+01
    PspCore energy  =  5.41017918797015E-01
    Loc. psp. energy= -5.26649583626073E+00
    Spherical terms =  2.14544761785808E+00
    >>>>> Internal E= -1.15245946963219E+01

    -kT*entropy     = -1.41817655877020E-18
    >>>>>>>>> Etotal= -1.15245946963219E+01

 "Double-counting" decomposition of free energy:
    Band energy     =  6.87975661911550E-01
    Ewald energy    = -1.27864121210521E+01
    PspCore energy  =  5.41017918797015E-01
    Dble-C XC-energy=  1.22136724961825E-01
    Spherical terms = -8.93027000873188E-02
    >>>>> Internal E= -1.15245845154690E+01

    -kT*entropy     = -1.41817655877020E-18
    >>>> Etotal (DC)= -1.15245845154690E+01

  >Total energy in eV           = -3.13600170112536E+02
  >Total DC energy in eV        = -3.13599893077439E+02
--------------------------------------------------------------------------------

 Cartesian components of stress tensor (hartree/bohr^3)
  sigma(1 1)=  4.15046980E-04  sigma(3 2)=  0.00000000E+00
  sigma(2 2)=  4.15046980E-04  sigma(3 1)=  0.00000000E+00
  sigma(3 3)=  4.15046980E-04  sigma(2 1)=  0.00000000E+00

-Cartesian components of stress tensor (GPa)         [Pressure= -1.2211E+01 GPa]
- sigma(1 1)=  1.22111017E+01  sigma(3 2)=  0.00000000E+00
- sigma(2 2)=  1.22111017E+01  sigma(3 1)=  0.00000000E+00
- sigma(3 3)=  1.22111017E+01  sigma(2 1)=  0.00000000E+00

== END DATASET(S) ==============================================================
================================================================================
  
 -outvars: echo values of variables after computation  --------
            acell      6.7406531160E+00  6.7406531160E+00  6.7406531160E+00 Bohr
              amu      1.20110000E+01
             ecut      1.20000000E+01 Hartree
           ecutsm      5.00000000E-01 Hartree
           etotal     -1.1524584515E+01
            fcart     -2.6963789626E-28 -6.9906121253E-29  3.4953060627E-28
                       2.6963789626E-28  6.9906121253E-29 -3.4953060627E-28
-          fftalg         112
              ixc           7
              kpt     -5.00000000E-02 -1.00000000E-01  0.00000000E+00
                      -5.00000000E-02 -2.00000000E-01  0.00000000E+00
                      -1.00000000E-01 -1.50000000E-01  0.00000000E+00
                      -5.00000000E-02 -1.50000000E-01  5.00000000E-02
                      -5.00000000E-02 -3.00000000E-01  0.00000000E+00
                      -1.00000000E-01 -2.50000000E-01  0.00000000E+00
                      -5.00000000E-02 -2.50000000E-01  5.00000000E-02
                      -1.50000000E-01 -2.00000000E-01  0.00000000E+00
                      -1.00000000E-01 -2.00000000E-01  5.00000000E-02
                      -5.00000000E-02 -2.00000000E-01  1.00000000E-01
                      -5.00000000E-02 -4.00000000E-01  0.00000000E+00
                      -1.00000000E-01 -3.50000000E-01  0.00000000E+00
                      -5.00000000E-02 -3.50000000E-01  5.00000000E-02
                      -1.50000000E-01 -3.00000000E-01  0.00000000E+00
                      -1.00000000E-01 -3.00000000E-01  5.00000000E-02
                      -5.00000000E-02 -3.00000000E-01  1.00000000E-01
                      -2.00000000E-01 -2.50000000E-01  0.00000000E+00
                      -1.50000000E-01 -2.50000000E-01  5.00000000E-02
                      -1.00000000E-01 -2.50000000E-01  1.00000000E-01
                      -5.00000000E-02 -2.50000000E-01  1.50000000E-01
                      -5.00000000E-02  5.00000000E-01  0.00000000E+00
                      -1.00000000E-01 -4.50000000E-01  0.00000000E+00
                      -5.00000000E-02 -4.50000000E-01  5.00000000E-02
                      -1.50000000E-01 -4.00000000E-01  0.00000000E+00
                      -1.00000000E-01 -4.00000000E-01  5.00000000E-02
                      -5.00000000E-02 -4.00000000E-01  1.00000000E-01
                      -2.00000000E-01 -3.50000000E-01  0.00000000E+00
                      -1.50000000E-01 -3.50000000E-01  5.00000000E-02
                      -1.00000000E-01 -3.50000000E-01  1.00000000E-01
                      -5.00000000E-02 -3.50000000E-01  1.50000000E-01
                      -2.50000000E-01 -3.00000000E-01  0.00000000E+00
                      -2.00000000E-01 -3.00000000E-01  5.00000000E-02
                      -1.50000000E-01 -3.00000000E-01  1.00000000E-01
                      -1.00000000E-01 -3.00000000E-01  1.50000000E-01
                      -5.00000000E-02 -3.00000000E-01  2.00000000E-01
                      -5.00000000E-02  4.00000000E-01  0.00000000E+00
                      -1.00000000E-01  4.50000000E-01  0.00000000E+00
                      -1.50000000E-01  5.00000000E-01  0.00000000E+00
                      -1.00000000E-01  5.00000000E-01  5.00000000E-02
                      -2.00000000E-01 -4.50000000E-01  0.00000000E+00
                      -1.50000000E-01 -4.50000000E-01  5.00000000E-02
                      -1.00000000E-01 -4.50000000E-01  1.00000000E-01
                      -5.00000000E-02 -4.50000000E-01  1.50000000E-01
                      -2.50000000E-01 -4.00000000E-01  0.00000000E+00
                      -2.00000000E-01 -4.00000000E-01  5.00000000E-02
                      -1.50000000E-01 -4.00000000E-01  1.00000000E-01
                      -1.00000000E-01 -4.00000000E-01  1.50000000E-01
                      -5.00000000E-02 -4.00000000E-01  2.00000000E-01
                      -3.00000000E-01 -3.50000000E-01  0.00000000E+00
                      -2.50000000E-01 -3.50000000E-01  5.00000000E-02
                       outvar_i_n : Printing only first  50 k-points.
         kptrlatt       10  -10   10    -10   10   10    -10  -10   10
          kptrlen      6.74065312E+01
P           mkmem         110
            natom           2
            nband           6
           nbdbuf           2
            ngfft          16      16      16
          ngfftdg          24      24      24
             nkpt         110
            nstep          10
             nsym          48
           ntypat           1
              occ      2.000000  2.000000  2.000000  2.000000  0.000000  0.000000
                       2.000000  2.000000  2.000000  2.000000  0.000000  0.000000
                       2.000000  2.000000  2.000000  2.000000  0.000000  0.000000
                       2.000000  2.000000  2.000000  2.000000  0.000000  0.000000
                       2.000000  2.000000  2.000000  2.000000  0.000000  0.000000
                       2.000000  2.000000  2.000000  2.000000  0.000000  0.000000
                       2.000000  2.000000  2.000000  2.000000  0.000000  0.000000
                       2.000000  2.000000  2.000000  2.000000  0.000000  0.000000
                       2.000000  2.000000  2.000000  2.000000  0.000000  0.000000
                       2.000000  2.000000  2.000000  2.000000  0.000000  0.000000
                       2.000000  2.000000  2.000000  2.000000  0.000000  0.000000
                       2.000000  2.000000  2.000000  2.000000  0.000000  0.000000
                       2.000000  2.000000  2.000000  2.000000  0.000000  0.000000
                       2.000000  2.000000  2.000000  2.000000  0.000000  0.000000
                       2.000000  2.000000  2.000000  2.000000  0.000000  0.000000
                       2.000000  2.000000  2.000000  2.000000  0.000000  0.000000
                       2.000000  2.000000  2.000000  2.000000  0.000000  0.000000
                       2.000000  2.000000  2.000000  2.000000  0.000000  0.000000
                       2.000000  2.000000  2.000000  2.000000  0.000000  0.000000
                       2.000000  2.000000  2.000000  2.000000  0.000000  0.000000
                       2.000000  2.000000  2.000000  2.000000  0.000000  0.000000
                       2.000000  2.000000  2.000000  2.000000  0.000000  0.000000
                       2.000000  2.000000  2.000000  2.000000  0.000000  0.000000
                       2.000000  2.000000  2.000000  2.000000  0.000000  0.000000
                       2.000000  2.000000  2.000000  2.000000  0.000000  0.000000
                       2.000000  2.000000  2.000000  2.000000  0.000000  0.000000
                       2.000000  2.000000  2.000000  2.000000  0.000000  0.000000
                       2.000000  2.000000  2.000000  2.000000  0.000000  0.000000
                       2.000000  2.000000  2.000000  2.000000  0.000000  0.000000
                       2.000000  2.000000  2.000000  2.000000  0.000000  0.000000
                       2.000000  2.000000  2.000000  2.000000  0.000000  0.000000
                       2.000000  2.000000  2.000000  2.000000  0.000000  0.000000
                       2.000000  2.000000  2.000000  2.000000  0.000000  0.000000
                       2.000000  2.000000  2.000000  2.000000  0.000000  0.000000
                       2.000000  2.000000  2.000000  2.000000  0.000000  0.000000
                       2.000000  2.000000  2.000000  2.000000  0.000000  0.000000
                       2.000000  2.000000  2.000000  2.000000  0.000000  0.000000
                       2.000000  2.000000  2.000000  2.000000  0.000000  0.000000
                       2.000000  2.000000  2.000000  2.000000  0.000000  0.000000
                       2.000000  2.000000  2.000000  2.000000  0.000000  0.000000
                       2.000000  2.000000  2.000000  2.000000  0.000000  0.000000
                       2.000000  2.000000  2.000000  2.000000  0.000000  0.000000
                       2.000000  2.000000  2.000000  2.000000  0.000000  0.000000
                       2.000000  2.000000  2.000000  2.000000  0.000000  0.000000
                       2.000000  2.000000  2.000000  2.000000  0.000000  0.000000
                       2.000000  2.000000  2.000000  2.000000  0.000000  0.000000
                       2.000000  2.000000  2.000000  2.000000  0.000000  0.000000
                       2.000000  2.000000  2.000000  2.000000  0.000000  0.000000
                       2.000000  2.000000  2.000000  2.000000  0.000000  0.000000
                       2.000000  2.000000  2.000000  2.000000  0.000000  0.000000
                       prtocc : prtvol=0, do not print more k-points.
           occopt           7
        pawecutdg      2.40000000E+01 Hartree
           prtden           0
           prtdos           1
           prteig           0
            prtwf           0
            rprim      0.0000000000E+00  5.0000000000E-01  5.0000000000E-01
                       5.0000000000E-01  0.0000000000E+00  5.0000000000E-01
                       5.0000000000E-01  5.0000000000E-01  0.0000000000E+00
           shiftk      5.00000000E-01  5.00000000E-01  5.00000000E-01
          spgroup         227
           strten      4.1504697976E-04  4.1504697976E-04  4.1504697976E-04
                       0.0000000000E+00  0.0000000000E+00  0.0000000000E+00
           symrel      1  0  0   0  1  0   0  0  1      -1  0  0   0 -1  0   0  0 -1
                       0 -1  1   0 -1  0   1 -1  0       0  1 -1   0  1  0  -1  1  0
                      -1  0  0  -1  0  1  -1  1  0       1  0  0   1  0 -1   1 -1  0
                       0  1 -1   1  0 -1   0  0 -1       0 -1  1  -1  0  1   0  0  1
                      -1  0  0  -1  1  0  -1  0  1       1  0  0   1 -1  0   1  0 -1
                       0 -1  1   1 -1  0   0 -1  0       0  1 -1  -1  1  0   0  1  0
                       1  0  0   0  0  1   0  1  0      -1  0  0   0  0 -1   0 -1  0
                       0  1 -1   0  0 -1   1  0 -1       0 -1  1   0  0  1  -1  0  1
                      -1  0  1  -1  1  0  -1  0  0       1  0 -1   1 -1  0   1  0  0
                       0 -1  0   1 -1  0   0 -1  1       0  1  0  -1  1  0   0  1 -1
                       1  0 -1   0  0 -1   0  1 -1      -1  0  1   0  0  1   0 -1  1
                       0  1  0   0  0  1   1  0  0       0 -1  0   0  0 -1  -1  0  0
                       1  0 -1   0  1 -1   0  0 -1      -1  0  1   0 -1  1   0  0  1
                       0 -1  0   0 -1  1   1 -1  0       0  1  0   0  1 -1  -1  1  0
                      -1  0  1  -1  0  0  -1  1  0       1  0 -1   1  0  0   1 -1  0
                       0  1  0   1  0  0   0  0  1       0 -1  0  -1  0  0   0  0 -1
                       0  0 -1   0  1 -1   1  0 -1       0  0  1   0 -1  1  -1  0  1
                       1 -1  0   0 -1  1   0 -1  0      -1  1  0   0  1 -1   0  1  0
                       0  0  1   1  0  0   0  1  0       0  0 -1  -1  0  0   0 -1  0
                      -1  1  0  -1  0  0  -1  0  1       1 -1  0   1  0  0   1  0 -1
                       0  0  1   0  1  0   1  0  0       0  0 -1   0 -1  0  -1  0  0
                       1 -1  0   0 -1  0   0 -1  1      -1  1  0   0  1  0   0  1 -1
                       0  0 -1   1  0 -1   0  1 -1       0  0  1  -1  0  1   0 -1  1
                      -1  1  0  -1  0  1  -1  0  0       1 -1  0   1  0 -1   1  0  0
            tnons      0.0000000  0.0000000  0.0000000     0.2500000  0.2500000  0.2500000
                       0.0000000  0.0000000  0.0000000     0.2500000  0.2500000  0.2500000
                       0.0000000  0.0000000  0.0000000     0.2500000  0.2500000  0.2500000
                       0.0000000  0.0000000  0.0000000     0.2500000  0.2500000  0.2500000
                       0.0000000  0.0000000  0.0000000     0.2500000  0.2500000  0.2500000
                       0.0000000  0.0000000  0.0000000     0.2500000  0.2500000  0.2500000
                       0.0000000  0.0000000  0.0000000     0.2500000  0.2500000  0.2500000
                       0.0000000  0.0000000  0.0000000     0.2500000  0.2500000  0.2500000
                       0.0000000  0.0000000  0.0000000     0.2500000  0.2500000  0.2500000
                       0.0000000  0.0000000  0.0000000     0.2500000  0.2500000  0.2500000
                       0.0000000  0.0000000  0.0000000     0.2500000  0.2500000  0.2500000
                       0.0000000  0.0000000  0.0000000     0.2500000  0.2500000  0.2500000
                       0.0000000  0.0000000  0.0000000     0.2500000  0.2500000  0.2500000
                       0.0000000  0.0000000  0.0000000     0.2500000  0.2500000  0.2500000
                       0.0000000  0.0000000  0.0000000     0.2500000  0.2500000  0.2500000
                       0.0000000  0.0000000  0.0000000     0.2500000  0.2500000  0.2500000
                       0.0000000  0.0000000  0.0000000     0.2500000  0.2500000  0.2500000
                       0.0000000  0.0000000  0.0000000     0.2500000  0.2500000  0.2500000
                       0.0000000  0.0000000  0.0000000     0.2500000  0.2500000  0.2500000
                       0.0000000  0.0000000  0.0000000     0.2500000  0.2500000  0.2500000
                       0.0000000  0.0000000  0.0000000     0.2500000  0.2500000  0.2500000
                       0.0000000  0.0000000  0.0000000     0.2500000  0.2500000  0.2500000
                       0.0000000  0.0000000  0.0000000     0.2500000  0.2500000  0.2500000
                       0.0000000  0.0000000  0.0000000     0.2500000  0.2500000  0.2500000
           tolwfr      1.00000000E-12
           tsmear      5.00000000E-03 Hartree
            typat      1  1
           useylm           1
              wtk        0.00600    0.00600    0.00600    0.01200    0.00600    0.00600
                         0.01200    0.00600    0.01200    0.01200    0.00600    0.00600
                         0.01200    0.00600    0.01200    0.01200    0.00600    0.01200
                         0.01200    0.01200    0.00600    0.00600    0.01200    0.00600
                         0.01200    0.01200    0.00600    0.01200    0.01200    0.01200
                         0.00600    0.01200    0.01200    0.01200    0.01200    0.00600
                         0.00600    0.00600    0.01200    0.00600    0.01200    0.01200
                         0.01200    0.00600    0.01200    0.01200    0.01200    0.01200
                         0.00600    0.01200
                       outvars : Printing only first  50 k-points.
           xangst      0.0000000000E+00  0.0000000000E+00  0.0000000000E+00
                       8.9175000000E-01  8.9175000000E-01  8.9175000000E-01
            xcart      0.0000000000E+00  0.0000000000E+00  0.0000000000E+00
                       1.6851632790E+00  1.6851632790E+00  1.6851632790E+00
             xred      0.0000000000E+00  0.0000000000E+00  0.0000000000E+00
                       2.5000000000E-01  2.5000000000E-01  2.5000000000E-01
            znucl        6.00000

================================================================================


- Timing analysis has been suppressed with timopt=0



================================================================================

 Suggested references for the acknowledgment of ABINIT usage.

 The users of ABINIT have little formal obligations with respect to the ABINIT group
 (those specified in the GNU General Public License, http://www.gnu.org/copyleft/gpl.txt).
 However, it is common practice in the scientific literature,
 to acknowledge the efforts of people that have made the research possible.
 In this spirit, please find below suggested citations of work written by ABINIT developers,
 corresponding to implementations inside of ABINIT that you have used in the present run.
 Note also that it will be of great value to readers of publications presenting these results,
 to read papers enabling them to understand the theoretical formalism and details
 of the ABINIT implementation.
 For information on why they are suggested, see also http://www.abinit.org/about/?text=acknowledgments.

 [1] Implementation of the Projector Augmented-Wave Method in the ABINIT code.
 M. Torrent, F. Jollet, F. Bottin, G. Zerah, and X. Gonze Comput. Mat. Science 42, 337, (2008).
 Comment : PAW calculations. Strong suggestion to cite this paper.

 [2] ABINIT : First-principles approach of materials and nanosystem properties.
 X. Gonze, B. Amadon, P.-M. Anglade, J.-M. Beuken, F. Bottin, P. Boulanger, F. Bruneval,
 D. Caliste, R. Caracas, M. Cote, T. Deutsch, L. Genovese, Ph. Ghosez, M. Giantomassi
 S. Goedecker, D.R. Hamann, P. Hermet, F. Jollet, G. Jomard, S. Leroux, M. Mancini, S. Mazevet,
 M.J.T. Oliveira, G. Onida, Y. Pouillon, T. Rangel, G.-M. Rignanese, D. Sangalli, R. Shaltaf,
 M. Torrent, M.J. Verstraete, G. Zerah, J.W. Zwanziger
 Computer Phys. Comm. 180, 2582-2615 (2009).
 Comment : the third generic paper describing the ABINIT project.
 Note that a version of this paper, that is not formatted for Computer Phys. Comm. 
 is available at http://www.abinit.org/about/ABINIT_CPC_v10.pdf .
 The licence allows the authors to put it on the Web.

 [3] A brief introduction to the ABINIT software package.
 X. Gonze, G.-M. Rignanese, M. Verstraete, J.-M. Beuken, Y. Pouillon, R. Caracas, F. Jollet,
 M. Torrent, G. Zerah, M. Mikami, Ph. Ghosez, M. Veithen, J.-Y. Raty, V. Olevano, F. Bruneval,
 L. Reining, R. Godby, G. Onida, D.R. Hamann, and D.C. Allan.
 Z. Kristallogr. 220, 558-562 (2005).
 Comment : the second generic paper describing the ABINIT project. Note that this paper
 should be cited especially if you are using the GW part of ABINIT, as several authors
 of this part are not in the list of authors of the first or third paper.
 The .pdf of the latter paper is available at http://www.abinit.org/about/zfk_0505-06_558-562.pdf.
 Note that it should not redistributed (Copyright by Oldenburg Wissenshaftverlag,
 the licence allows the authors to put it on the Web).


 And optionally :

 [4] First-principles computation of material properties : the ABINIT software project. 
 X. Gonze, J.-M. Beuken, R. Caracas, F. Detraux, M. Fuchs, G.-M. Rignanese, L. Sindic,
 M. Verstraete, G. Zerah, F. Jollet, M. Torrent, A. Roy, M. Mikami, Ph. Ghosez, J.-Y. Raty, D.C. Allan.
 Computational Materials Science 25, 478-492 (2002). http://dx.doi.org/10.1016/S0927-0256(02)00325-7
 Comment : the original paper describing the ABINIT project.

 [5] Fast radix 2, 3, 4 and 5 kernels for Fast Fourier Transformations
 on computers with overlapping multiply-add instructions.
 S. Goedecker, SIAM J. on Scientific Computing 18, 1605 (1997).
-
- Proc.   0 individual time (sec): cpu=         21.0  wall=         21.0

================================================================================

 Calculation completed.
.Delivered    1 WARNINGs and   2 COMMENTs to log file.
+Overall time at end (sec) : cpu=         21.0  wall=         21.0
