
.Version 7.9.3 of ABINIT 
.(MPI version, prepared for a x86_64_linux_gnu4.7 computer) 

.Copyright (C) 1998-2014 ABINIT group . 
 ABINIT comes with ABSOLUTELY NO WARRANTY.
 It is free software, and you are welcome to redistribute it
 under certain conditions (GNU General Public License,
 see ~abinit/COPYING or http://www.gnu.org/copyleft/gpl.txt).

 ABINIT is a project of the Universite Catholique de Louvain,
 Corning Inc. and other collaborators, see ~abinit/doc/developers/contributors.txt .
 Please read ~abinit/doc/users/acknowledgments.html for suggested
 acknowledgments of the ABINIT effort.
 For more information, see http://www.abinit.org .

.Starting date : Sat 30 Aug 2014.
- ( at 22h28 )
  
- input  file    -> tpaw1_3.in
- output file    -> tpaw1_3.out
- root for input  files -> tpaw1_3i
- root for output files -> tpaw1_3o


 DATASET    1 : space group Fd -3 m (#227); Bravais cF (face-center cubic)
================================================================================
 Values of the parameters that define the memory need for DATASET  1.
   intxc =         0  ionmov =         0    iscf =        17 xclevel =         1
  lmnmax =         8   lnmax =         4   mband =         6  mffmem =         1
P  mgfft =        16   mkmem =        28 mpssoang=         2     mpw =       159
  mqgrid =      3001   natom =         2    nfft =      4096    nkpt =        28
  nloalg =         4  nspden =         1 nspinor =         1  nsppol =         1
    nsym =        48  n1xccc =         1  ntypat =         1  occopt =         1
 PAW method is used; the additional fine FFT grid is defined by:
   mgfftf=        16    nfftf =      4096
================================================================================
P This job should need less than                       2.950 Mbytes of memory.
  Rough estimation (10% accuracy) of disk space for files :
_ WF disk file :      0.410 Mbytes ; DEN or POT disk file :      0.033 Mbytes.
================================================================================


 DATASET    2 : space group Fd -3 m (#227); Bravais cF (face-center cubic)
================================================================================
 Values of the parameters that define the memory need for DATASET  2.
   intxc =         0  ionmov =         0    iscf =        17 xclevel =         1
  lmnmax =         8   lnmax =         4   mband =         6  mffmem =         1
P  mgfft =        16   mkmem =        28 mpssoang=         2     mpw =       159
  mqgrid =      3001   natom =         2    nfft =      4096    nkpt =        28
  nloalg =         4  nspden =         1 nspinor =         1  nsppol =         1
    nsym =        48  n1xccc =         1  ntypat =         1  occopt =         1
 PAW method is used; the additional fine FFT grid is defined by:
   mgfftf=        18    nfftf =      5832
================================================================================
P This job should need less than                       3.163 Mbytes of memory.
  Rough estimation (10% accuracy) of disk space for files :
_ WF disk file :      0.410 Mbytes ; DEN or POT disk file :      0.046 Mbytes.
================================================================================


 DATASET    3 : space group Fd -3 m (#227); Bravais cF (face-center cubic)
================================================================================
 Values of the parameters that define the memory need for DATASET  3.
   intxc =         0  ionmov =         0    iscf =        17 xclevel =         1
  lmnmax =         8   lnmax =         4   mband =         6  mffmem =         1
P  mgfft =        16   mkmem =        28 mpssoang=         2     mpw =       159
  mqgrid =      3001   natom =         2    nfft =      4096    nkpt =        28
  nloalg =         4  nspden =         1 nspinor =         1  nsppol =         1
    nsym =        48  n1xccc =         1  ntypat =         1  occopt =         1
 PAW method is used; the additional fine FFT grid is defined by:
   mgfftf=        20    nfftf =      8000
================================================================================
P This job should need less than                       3.428 Mbytes of memory.
  Rough estimation (10% accuracy) of disk space for files :
_ WF disk file :      0.410 Mbytes ; DEN or POT disk file :      0.063 Mbytes.
================================================================================


 DATASET    4 : space group Fd -3 m (#227); Bravais cF (face-center cubic)
================================================================================
 Values of the parameters that define the memory need for DATASET  4.
   intxc =         0  ionmov =         0    iscf =        17 xclevel =         1
  lmnmax =         8   lnmax =         4   mband =         6  mffmem =         1
P  mgfft =        16   mkmem =        28 mpssoang=         2     mpw =       159
  mqgrid =      3001   natom =         2    nfft =      4096    nkpt =        28
  nloalg =         4  nspden =         1 nspinor =         1  nsppol =         1
    nsym =        48  n1xccc =         1  ntypat =         1  occopt =         1
 PAW method is used; the additional fine FFT grid is defined by:
   mgfftf=        20    nfftf =      8000
================================================================================
P This job should need less than                       3.428 Mbytes of memory.
  Rough estimation (10% accuracy) of disk space for files :
_ WF disk file :      0.410 Mbytes ; DEN or POT disk file :      0.063 Mbytes.
================================================================================


 DATASET    5 : space group Fd -3 m (#227); Bravais cF (face-center cubic)
================================================================================
 Values of the parameters that define the memory need for DATASET  5.
   intxc =         0  ionmov =         0    iscf =        17 xclevel =         1
  lmnmax =         8   lnmax =         4   mband =         6  mffmem =         1
P  mgfft =        16   mkmem =        28 mpssoang=         2     mpw =       159
  mqgrid =      3001   natom =         2    nfft =      4096    nkpt =        28
  nloalg =         4  nspden =         1 nspinor =         1  nsppol =         1
    nsym =        48  n1xccc =         1  ntypat =         1  occopt =         1
 PAW method is used; the additional fine FFT grid is defined by:
   mgfftf=        24    nfftf =     13824
================================================================================
P This job should need less than                       4.140 Mbytes of memory.
  Rough estimation (10% accuracy) of disk space for files :
_ WF disk file :      0.410 Mbytes ; DEN or POT disk file :      0.107 Mbytes.
================================================================================


 DATASET    6 : space group Fd -3 m (#227); Bravais cF (face-center cubic)
================================================================================
 Values of the parameters that define the memory need for DATASET  6.
   intxc =         0  ionmov =         0    iscf =        17 xclevel =         1
  lmnmax =         8   lnmax =         4   mband =         6  mffmem =         1
P  mgfft =        16   mkmem =        28 mpssoang=         2     mpw =       159
  mqgrid =      3001   natom =         2    nfft =      4096    nkpt =        28
  nloalg =         4  nspden =         1 nspinor =         1  nsppol =         1
    nsym =        48  n1xccc =         1  ntypat =         1  occopt =         1
 PAW method is used; the additional fine FFT grid is defined by:
   mgfftf=        24    nfftf =     13824
================================================================================
P This job should need less than                       4.140 Mbytes of memory.
  Rough estimation (10% accuracy) of disk space for files :
_ WF disk file :      0.410 Mbytes ; DEN or POT disk file :      0.107 Mbytes.
================================================================================


 DATASET    7 : space group Fd -3 m (#227); Bravais cF (face-center cubic)
================================================================================
 Values of the parameters that define the memory need for DATASET  7.
   intxc =         0  ionmov =         0    iscf =        17 xclevel =         1
  lmnmax =         8   lnmax =         4   mband =         6  mffmem =         1
P  mgfft =        16   mkmem =        28 mpssoang=         2     mpw =       159
  mqgrid =      3001   natom =         2    nfft =      4096    nkpt =        28
  nloalg =         4  nspden =         1 nspinor =         1  nsppol =         1
    nsym =        48  n1xccc =         1  ntypat =         1  occopt =         1
 PAW method is used; the additional fine FFT grid is defined by:
   mgfftf=        24    nfftf =     13824
================================================================================
P This job should need less than                       4.140 Mbytes of memory.
  Rough estimation (10% accuracy) of disk space for files :
_ WF disk file :      0.410 Mbytes ; DEN or POT disk file :      0.107 Mbytes.
================================================================================


 DATASET    8 : space group Fd -3 m (#227); Bravais cF (face-center cubic)
================================================================================
 Values of the parameters that define the memory need for DATASET  8.
   intxc =         0  ionmov =         0    iscf =        17 xclevel =         1
  lmnmax =         8   lnmax =         4   mband =         6  mffmem =         1
P  mgfft =        16   mkmem =        28 mpssoang=         2     mpw =       159
  mqgrid =      3001   natom =         2    nfft =      4096    nkpt =        28
  nloalg =         4  nspden =         1 nspinor =         1  nsppol =         1
    nsym =        48  n1xccc =         1  ntypat =         1  occopt =         1
 PAW method is used; the additional fine FFT grid is defined by:
   mgfftf=        27    nfftf =     19683
================================================================================
P This job should need less than                       4.992 Mbytes of memory.
  Rough estimation (10% accuracy) of disk space for files :
_ WF disk file :      0.410 Mbytes ; DEN or POT disk file :      0.152 Mbytes.
================================================================================


 DATASET    9 : space group Fd -3 m (#227); Bravais cF (face-center cubic)
================================================================================
 Values of the parameters that define the memory need for DATASET  9.
   intxc =         0  ionmov =         0    iscf =        17 xclevel =         1
  lmnmax =         8   lnmax =         4   mband =         6  mffmem =         1
P  mgfft =        16   mkmem =        28 mpssoang=         2     mpw =       159
  mqgrid =      3001   natom =         2    nfft =      4096    nkpt =        28
  nloalg =         4  nspden =         1 nspinor =         1  nsppol =         1
    nsym =        48  n1xccc =         1  ntypat =         1  occopt =         1
 PAW method is used; the additional fine FFT grid is defined by:
   mgfftf=        27    nfftf =     19683
================================================================================
P This job should need less than                       4.992 Mbytes of memory.
  Rough estimation (10% accuracy) of disk space for files :
_ WF disk file :      0.410 Mbytes ; DEN or POT disk file :      0.152 Mbytes.
================================================================================


 DATASET   10 : space group Fd -3 m (#227); Bravais cF (face-center cubic)
================================================================================
 Values of the parameters that define the memory need for DATASET 10.
   intxc =         0  ionmov =         0    iscf =        17 xclevel =         1
  lmnmax =         8   lnmax =         4   mband =         6  mffmem =         1
P  mgfft =        16   mkmem =        28 mpssoang=         2     mpw =       159
  mqgrid =      3001   natom =         2    nfft =      4096    nkpt =        28
  nloalg =         4  nspden =         1 nspinor =         1  nsppol =         1
    nsym =        48  n1xccc =         1  ntypat =         1  occopt =         1
 PAW method is used; the additional fine FFT grid is defined by:
   mgfftf=        30    nfftf =     27000
================================================================================
P This job should need less than                       6.109 Mbytes of memory.
  Rough estimation (10% accuracy) of disk space for files :
_ WF disk file :      0.410 Mbytes ; DEN or POT disk file :      0.208 Mbytes.
================================================================================

--------------------------------------------------------------------------------
------------- Echo of variables that govern the present computation ------------
--------------------------------------------------------------------------------
-
- outvars: echo of selected default values                                      
-   accesswff0 =  0 , fftalg0 =112 , wfoptalg0 = 10
-
- outvars: echo of global parameters not present in the input file              
-  max_nthreads =    0
-
 -outvars: echo values of preprocessed input variables --------
            acell      6.7406531160E+00  6.7406531160E+00  6.7406531160E+00 Bohr
              amu      1.20110000E+01
             ecut      1.20000000E+01 Hartree
           ecutsm      5.00000000E-01 Hartree
-          fftalg         112
           getwfk          -1
              ixc           7
           jdtset        1    2    3    4    5    6    7    8    9   10
              kpt     -8.33333333E-02 -1.66666667E-01  0.00000000E+00
                      -8.33333333E-02 -3.33333333E-01  0.00000000E+00
                      -1.66666667E-01 -2.50000000E-01  0.00000000E+00
                      -8.33333333E-02 -2.50000000E-01  8.33333333E-02
                      -8.33333333E-02  5.00000000E-01  0.00000000E+00
                      -1.66666667E-01 -4.16666667E-01  0.00000000E+00
                      -8.33333333E-02 -4.16666667E-01  8.33333333E-02
                      -2.50000000E-01 -3.33333333E-01  0.00000000E+00
                      -1.66666667E-01 -3.33333333E-01  8.33333333E-02
                      -8.33333333E-02 -3.33333333E-01  1.66666667E-01
                      -8.33333333E-02  3.33333333E-01  0.00000000E+00
                      -1.66666667E-01  4.16666667E-01  0.00000000E+00
                      -2.50000000E-01  5.00000000E-01  0.00000000E+00
                      -1.66666667E-01  5.00000000E-01  8.33333333E-02
                      -3.33333333E-01 -4.16666667E-01  0.00000000E+00
                      -2.50000000E-01 -4.16666667E-01  8.33333333E-02
                      -1.66666667E-01 -4.16666667E-01  1.66666667E-01
                      -8.33333333E-02 -4.16666667E-01  2.50000000E-01
                      -8.33333333E-02  1.66666667E-01  0.00000000E+00
                      -1.66666667E-01  2.50000000E-01  0.00000000E+00
                      -2.50000000E-01  3.33333333E-01  0.00000000E+00
                      -3.33333333E-01  4.16666667E-01  0.00000000E+00
                      -4.16666667E-01  5.00000000E-01  0.00000000E+00
                      -3.33333333E-01  5.00000000E-01  8.33333333E-02
                      -2.50000000E-01  5.00000000E-01  1.66666667E-01
                      -8.33333333E-02  0.00000000E+00  0.00000000E+00
                      -2.50000000E-01  0.00000000E+00  0.00000000E+00
                      -4.16666667E-01  0.00000000E+00  0.00000000E+00
         kptrlatt        6   -6    6     -6    6    6     -6   -6    6
          kptrlen      4.04439187E+01
P           mkmem          28
            natom           2
            nband           6
           ndtset          10
            ngfft          16      16      16
          ngfftdg1         16      16      16
          ngfftdg2         18      18      18
          ngfftdg3         20      20      20
          ngfftdg4         20      20      20
          ngfftdg5         24      24      24
          ngfftdg6         24      24      24
          ngfftdg7         24      24      24
          ngfftdg8         27      27      27
          ngfftdg9         27      27      27
          ngfftdg10        30      30      30
             nkpt          28
            nstep          20
             nsym          48
           ntypat           1
              occ      2.000000  2.000000  2.000000  2.000000  0.000000  0.000000
        pawecutdg1     1.20000000E+01 Hartree
        pawecutdg2     1.50000000E+01 Hartree
        pawecutdg3     1.80000000E+01 Hartree
        pawecutdg4     2.10000000E+01 Hartree
        pawecutdg5     2.40000000E+01 Hartree
        pawecutdg6     2.70000000E+01 Hartree
        pawecutdg7     3.00000000E+01 Hartree
        pawecutdg8     3.30000000E+01 Hartree
        pawecutdg9     3.60000000E+01 Hartree
        pawecutdg10    3.90000000E+01 Hartree
           prtden           0
           prteig           0
            rprim      0.0000000000E+00  5.0000000000E-01  5.0000000000E-01
                       5.0000000000E-01  0.0000000000E+00  5.0000000000E-01
                       5.0000000000E-01  5.0000000000E-01  0.0000000000E+00
           shiftk      5.00000000E-01  5.00000000E-01  5.00000000E-01
          spgroup         227
           symrel      1  0  0   0  1  0   0  0  1      -1  0  0   0 -1  0   0  0 -1
                       0 -1  1   0 -1  0   1 -1  0       0  1 -1   0  1  0  -1  1  0
                      -1  0  0  -1  0  1  -1  1  0       1  0  0   1  0 -1   1 -1  0
                       0  1 -1   1  0 -1   0  0 -1       0 -1  1  -1  0  1   0  0  1
                      -1  0  0  -1  1  0  -1  0  1       1  0  0   1 -1  0   1  0 -1
                       0 -1  1   1 -1  0   0 -1  0       0  1 -1  -1  1  0   0  1  0
                       1  0  0   0  0  1   0  1  0      -1  0  0   0  0 -1   0 -1  0
                       0  1 -1   0  0 -1   1  0 -1       0 -1  1   0  0  1  -1  0  1
                      -1  0  1  -1  1  0  -1  0  0       1  0 -1   1 -1  0   1  0  0
                       0 -1  0   1 -1  0   0 -1  1       0  1  0  -1  1  0   0  1 -1
                       1  0 -1   0  0 -1   0  1 -1      -1  0  1   0  0  1   0 -1  1
                       0  1  0   0  0  1   1  0  0       0 -1  0   0  0 -1  -1  0  0
                       1  0 -1   0  1 -1   0  0 -1      -1  0  1   0 -1  1   0  0  1
                       0 -1  0   0 -1  1   1 -1  0       0  1  0   0  1 -1  -1  1  0
                      -1  0  1  -1  0  0  -1  1  0       1  0 -1   1  0  0   1 -1  0
                       0  1  0   1  0  0   0  0  1       0 -1  0  -1  0  0   0  0 -1
                       0  0 -1   0  1 -1   1  0 -1       0  0  1   0 -1  1  -1  0  1
                       1 -1  0   0 -1  1   0 -1  0      -1  1  0   0  1 -1   0  1  0
                       0  0  1   1  0  0   0  1  0       0  0 -1  -1  0  0   0 -1  0
                      -1  1  0  -1  0  0  -1  0  1       1 -1  0   1  0  0   1  0 -1
                       0  0  1   0  1  0   1  0  0       0  0 -1   0 -1  0  -1  0  0
                       1 -1  0   0 -1  0   0 -1  1      -1  1  0   0  1  0   0  1 -1
                       0  0 -1   1  0 -1   0  1 -1       0  0  1  -1  0  1   0 -1  1
                      -1  1  0  -1  0  1  -1  0  0       1 -1  0   1  0 -1   1  0  0
            tnons      0.0000000  0.0000000  0.0000000     0.2500000  0.2500000  0.2500000
                       0.0000000  0.0000000  0.0000000     0.2500000  0.2500000  0.2500000
                       0.0000000  0.0000000  0.0000000     0.2500000  0.2500000  0.2500000
                       0.0000000  0.0000000  0.0000000     0.2500000  0.2500000  0.2500000
                       0.0000000  0.0000000  0.0000000     0.2500000  0.2500000  0.2500000
                       0.0000000  0.0000000  0.0000000     0.2500000  0.2500000  0.2500000
                       0.0000000  0.0000000  0.0000000     0.2500000  0.2500000  0.2500000
                       0.0000000  0.0000000  0.0000000     0.2500000  0.2500000  0.2500000
                       0.0000000  0.0000000  0.0000000     0.2500000  0.2500000  0.2500000
                       0.0000000  0.0000000  0.0000000     0.2500000  0.2500000  0.2500000
                       0.0000000  0.0000000  0.0000000     0.2500000  0.2500000  0.2500000
                       0.0000000  0.0000000  0.0000000     0.2500000  0.2500000  0.2500000
                       0.0000000  0.0000000  0.0000000     0.2500000  0.2500000  0.2500000
                       0.0000000  0.0000000  0.0000000     0.2500000  0.2500000  0.2500000
                       0.0000000  0.0000000  0.0000000     0.2500000  0.2500000  0.2500000
                       0.0000000  0.0000000  0.0000000     0.2500000  0.2500000  0.2500000
                       0.0000000  0.0000000  0.0000000     0.2500000  0.2500000  0.2500000
                       0.0000000  0.0000000  0.0000000     0.2500000  0.2500000  0.2500000
                       0.0000000  0.0000000  0.0000000     0.2500000  0.2500000  0.2500000
                       0.0000000  0.0000000  0.0000000     0.2500000  0.2500000  0.2500000
                       0.0000000  0.0000000  0.0000000     0.2500000  0.2500000  0.2500000
                       0.0000000  0.0000000  0.0000000     0.2500000  0.2500000  0.2500000
                       0.0000000  0.0000000  0.0000000     0.2500000  0.2500000  0.2500000
                       0.0000000  0.0000000  0.0000000     0.2500000  0.2500000  0.2500000
           tolvrs      1.00000000E-10
            typat      1  1
           useylm           1
              wtk        0.02778    0.02778    0.02778    0.05556    0.02778    0.02778
                         0.05556    0.02778    0.05556    0.05556    0.02778    0.02778
                         0.02778    0.05556    0.02778    0.05556    0.05556    0.05556
                         0.02778    0.02778    0.02778    0.02778    0.02778    0.05556
                         0.05556    0.00926    0.00926    0.00926
           xangst      0.0000000000E+00  0.0000000000E+00  0.0000000000E+00
                       8.9175000000E-01  8.9175000000E-01  8.9175000000E-01
            xcart      0.0000000000E+00  0.0000000000E+00  0.0000000000E+00
                       1.6851632790E+00  1.6851632790E+00  1.6851632790E+00
             xred      0.0000000000E+00  0.0000000000E+00  0.0000000000E+00
                       2.5000000000E-01  2.5000000000E-01  2.5000000000E-01
            znucl        6.00000

================================================================================

 chkinp: Checking input parameters for consistency, jdtset=   1.

 chkinp: Checking input parameters for consistency, jdtset=   2.

 chkinp: Checking input parameters for consistency, jdtset=   3.

 chkinp: Checking input parameters for consistency, jdtset=   4.

 chkinp: Checking input parameters for consistency, jdtset=   5.

 chkinp: Checking input parameters for consistency, jdtset=   6.

 chkinp: Checking input parameters for consistency, jdtset=   7.

 chkinp: Checking input parameters for consistency, jdtset=   8.

 chkinp: Checking input parameters for consistency, jdtset=   9.

 chkinp: Checking input parameters for consistency, jdtset=  10.

================================================================================
== DATASET  1 ==================================================================
-   nproc =    1

 Exchange-correlation functional for the present dataset will be:
  LDA: Perdew-Wang 92 LSD fit to Ceperley-Alder data - ixc=7
 Citation for XC functional:
  J.P.Perdew and Y.Wang, PRB 45, 13244 (1992)

 Real(R)+Recip(G) space primitive vectors, cartesian coordinates (Bohr,Bohr^-1):
 R(1)=  0.0000000  3.3703266  3.3703266  G(1)= -0.1483536  0.1483536  0.1483536
 R(2)=  3.3703266  0.0000000  3.3703266  G(2)=  0.1483536 -0.1483536  0.1483536
 R(3)=  3.3703266  3.3703266  0.0000000  G(3)=  0.1483536  0.1483536 -0.1483536
 Unit cell volume ucvol=  7.6567760E+01 bohr^3
 Angles (23,13,12)=  6.00000000E+01  6.00000000E+01  6.00000000E+01 degrees

 Coarse grid specifications (used for wave-functions):

 getcut: wavevector=  0.0000  0.0000  0.0000  ngfft=  16  16  16
         ecut(hartree)=     12.000   => boxcut(ratio)=   2.15267

 Fine grid specifications (used for densities):

 getcut: wavevector=  0.0000  0.0000  0.0000  ngfft=  16  16  16
         ecut(hartree)=     12.000   => boxcut(ratio)=   2.15267

--- Pseudopotential description ------------------------------------------------
- pspini: atom type   1  psp file is /home/gonze/ABINIT/ABINITv7.9.3/trunk/7.9.3-private/tests/Psps_for_tests/6c.lda.atompaw
- pspatm: opening atomic psp file    /home/gonze/ABINIT/ABINITv7.9.3/trunk/7.9.3-private/tests/Psps_for_tests/6c.lda.atompaw
- Paw atomic data for element C - Generated by AtomPAW + AtomPAW2Abinit v3.2.1
-  6.00000   4.00000  20080326                znucl, zion, pspdat
    7    7    1    0       505   0.00000      pspcod,pspxc,lmax,lloc,mmax,r2well
 Pseudopotential format is: paw4
 basis_size (lnmax)=  4 (lmn_size=  8), orbitals=   0   0   1   1
 Spheres core radius: rc_sph= 1.50000000
 4 radial meshes are used:
  - mesh 1: r(i)=AA*[exp(BB*(i-1))-1], size= 505 , AA= 0.21824E-02 BB= 0.13095E-01
  - mesh 2: r(i)=AA*[exp(BB*(i-1))-1], size= 500 , AA= 0.21824E-02 BB= 0.13095E-01
  - mesh 3: r(i)=AA*[exp(BB*(i-1))-1], size= 530 , AA= 0.21824E-02 BB= 0.13095E-01
  - mesh 4: r(i)=AA*[exp(BB*(i-1))-1], size= 644 , AA= 0.21824E-02 BB= 0.13095E-01
 Shapefunction is SIN type: shapef(r)=[sin(pi*r/rshp)/(pi*r/rshp)]**2
 Radius for shape functions = sphere core radius
 Radial grid used for partial waves is grid 1
 Radial grid used for projectors is grid  2
 Radial grid used for (t)core density is grid 3
 Radial grid used for Vloc is grid 4
 Radial grid used for pseudo valence density is grid 4
 Compensation charge density is taken into account in XC energy/potential
 pspatm: atomic psp has been read  and splines computed

   4.14245303E+01                                ecore*ucvol(ha*bohr**3)
--------------------------------------------------------------------------------

P newkpt: treating      6 bands with npw=     158 for ikpt=   1 by node    0
P newkpt: treating      6 bands with npw=     150 for ikpt=   2 by node    0
P newkpt: treating      6 bands with npw=     156 for ikpt=   3 by node    0
P newkpt: treating      6 bands with npw=     151 for ikpt=   4 by node    0
P newkpt: treating      6 bands with npw=     155 for ikpt=   5 by node    0
P newkpt: treating      6 bands with npw=     148 for ikpt=   6 by node    0
P newkpt: treating      6 bands with npw=     154 for ikpt=   7 by node    0
P newkpt: treating      6 bands with npw=     151 for ikpt=   8 by node    0
P newkpt: treating      6 bands with npw=     149 for ikpt=   9 by node    0
P newkpt: treating      6 bands with npw=     150 for ikpt=  10 by node    0
P newkpt: treating      6 bands with npw=     151 for ikpt=  11 by node    0
P newkpt: treating      6 bands with npw=     154 for ikpt=  12 by node    0
P newkpt: treating      6 bands with npw=     149 for ikpt=  13 by node    0
P newkpt: treating      6 bands with npw=     151 for ikpt=  14 by node    0
P newkpt: treating      6 bands with npw=     152 for ikpt=  15 by node    0
P newkpt: treating      6 bands with npw=     150 for ikpt=  16 by node    0
P newkpt: treating      6 bands with npw=     153 for ikpt=  17 by node    0
P newkpt: treating      6 bands with npw=     152 for ikpt=  18 by node    0
P newkpt: treating      6 bands with npw=     154 for ikpt=  19 by node    0
P newkpt: treating      6 bands with npw=     149 for ikpt=  20 by node    0
P newkpt: treating      6 bands with npw=     153 for ikpt=  21 by node    0
P newkpt: treating      6 bands with npw=     150 for ikpt=  22 by node    0
P newkpt: treating      6 bands with npw=     152 for ikpt=  23 by node    0
P newkpt: treating      6 bands with npw=     152 for ikpt=  24 by node    0
P newkpt: treating      6 bands with npw=     151 for ikpt=  25 by node    0
P newkpt: treating      6 bands with npw=     159 for ikpt=  26 by node    0
P newkpt: treating      6 bands with npw=     150 for ikpt=  27 by node    0
P newkpt: treating      6 bands with npw=     147 for ikpt=  28 by node    0

_setup2: Arith. and geom. avg. npw (full set) are     151.667     151.650

================================================================================

     iter   Etot(hartree)      deltaE(h)  residm     nres2
 ETOT  1  -11.537286109689    -1.154E+01 1.578E-01 1.719E+00
 ETOT  2  -11.527110074052     1.018E-02 3.589E-02 1.836E-01
 ETOT  3  -11.524624292794     2.486E-03 1.032E-03 2.939E-03
 ETOT  4  -11.524630341878    -6.049E-06 1.847E-03 1.234E-04
 ETOT  5  -11.524629662067     6.798E-07 2.318E-04 7.506E-06
 ETOT  6  -11.524629594841     6.723E-08 1.535E-04 6.714E-09
 ETOT  7  -11.524629594987    -1.462E-10 1.550E-04 8.408E-10
 ETOT  8  -11.524629594989    -1.544E-12 1.040E-04 3.997E-11

 At SCF step    8       nres2   =  4.00E-11 < tolvrs=  1.00E-10 =>converged.

 Cartesian components of stress tensor (hartree/bohr^3)
  sigma(1 1)=  4.13022388E-04  sigma(3 2)=  0.00000000E+00
  sigma(2 2)=  4.13022388E-04  sigma(3 1)=  0.00000000E+00
  sigma(3 3)=  4.13022388E-04  sigma(2 1)=  0.00000000E+00


 PAW TEST:
 ==== Compensation charge inside spheres ============
 The following values must be close to each other ...
 Compensation charge over spherical meshes =      0.409459746967345
 Compensation charge over fft grid         =      0.409515573012764

 ==== Results concerning PAW augmentation regions ====

 Total pseudopotential strength Dij (hartree):
 Atom #  1
   0.59006  -1.64879   0.00000   0.00000   0.00000   0.00000   0.00000   0.00000
  -1.64879   4.11683   0.00000   0.00000   0.00000   0.00000   0.00000   0.00000
   0.00000   0.00000  -0.03421   0.00000   0.00000  -0.22960   0.00000   0.00000
   0.00000   0.00000   0.00000  -0.03421   0.00000   0.00000  -0.22960   0.00000
   0.00000   0.00000   0.00000   0.00000  -0.03421   0.00000   0.00000  -0.22960
   0.00000   0.00000  -0.22960   0.00000   0.00000   2.94411   0.00000   0.00000
   0.00000   0.00000   0.00000  -0.22960   0.00000   0.00000   2.94411   0.00000
   0.00000   0.00000   0.00000   0.00000  -0.22960   0.00000   0.00000   2.94411
 Atom #  2
   0.59006  -1.64879   0.00000   0.00000   0.00000   0.00000   0.00000   0.00000
  -1.64879   4.11683   0.00000   0.00000   0.00000   0.00000   0.00000   0.00000
   0.00000   0.00000  -0.03421   0.00000   0.00000  -0.22960   0.00000   0.00000
   0.00000   0.00000   0.00000  -0.03421   0.00000   0.00000  -0.22960   0.00000
   0.00000   0.00000   0.00000   0.00000  -0.03421   0.00000   0.00000  -0.22960
   0.00000   0.00000  -0.22960   0.00000   0.00000   2.94411   0.00000   0.00000
   0.00000   0.00000   0.00000  -0.22960   0.00000   0.00000   2.94411   0.00000
   0.00000   0.00000   0.00000   0.00000  -0.22960   0.00000   0.00000   2.94411


 Augmentation waves occupancies Rhoij:
 Atom #  1
   1.61522   0.04432   0.00000   0.00000   0.00000   0.00000   0.00000   0.00000
   0.04432   0.00167   0.00000   0.00000   0.00000   0.00000   0.00000   0.00000
   0.00000   0.00000   1.41631   0.00000   0.00000   0.06369   0.00000   0.00000
   0.00000   0.00000   0.00000   1.41631   0.00000   0.00000   0.06369   0.00000
   0.00000   0.00000   0.00000   0.00000   1.41631   0.00000   0.00000   0.06369
   0.00000   0.00000   0.06369   0.00000   0.00000   0.00339   0.00000   0.00000
   0.00000   0.00000   0.00000   0.06369   0.00000   0.00000   0.00339   0.00000
   0.00000   0.00000   0.00000   0.00000   0.06369   0.00000   0.00000   0.00339
 Atom #  2
   1.61522   0.04432   0.00000   0.00000   0.00000   0.00000   0.00000   0.00000
   0.04432   0.00167   0.00000   0.00000   0.00000   0.00000   0.00000   0.00000
   0.00000   0.00000   1.41631   0.00000   0.00000   0.06369   0.00000   0.00000
   0.00000   0.00000   0.00000   1.41631   0.00000   0.00000   0.06369   0.00000
   0.00000   0.00000   0.00000   0.00000   1.41631   0.00000   0.00000   0.06369
   0.00000   0.00000   0.06369   0.00000   0.00000   0.00339   0.00000   0.00000
   0.00000   0.00000   0.00000   0.06369   0.00000   0.00000   0.00339   0.00000
   0.00000   0.00000   0.00000   0.00000   0.06369   0.00000   0.00000   0.00339


================================================================================

 ----iterations are completed or convergence reached----

 Mean square residual over all n,k,spin=   1.3673E-06; max=  1.0399E-04
  -0.0833 -0.1667  0.0000    1  4.69627E-06 kpt; spin; max resid(k); each band:
  7.96E-16 3.79E-16 2.24E-16 1.59E-16 3.86E-10 4.70E-06
  -0.0833 -0.3333  0.0000    1  1.90541E-06 kpt; spin; max resid(k); each band:
  1.20E-15 3.23E-16 9.71E-17 6.03E-16 1.97E-09 1.91E-06
  -0.1667 -0.2500  0.0000    1  5.76199E-07 kpt; spin; max resid(k); each band:
  1.44E-15 5.87E-16 1.54E-16 4.57E-16 2.09E-14 5.76E-07
  -0.0833 -0.2500  0.0833    1  6.23522E-07 kpt; spin; max resid(k); each band:
  9.75E-16 5.54E-16 8.22E-16 2.44E-16 2.11E-12 6.24E-07
  -0.0833  0.5000  0.0000    1  1.24644E-05 kpt; spin; max resid(k); each band:
  4.59E-16 3.30E-16 2.25E-16 7.57E-17 2.83E-07 1.25E-05
  -0.1667 -0.4167  0.0000    1  4.29105E-05 kpt; spin; max resid(k); each band:
  1.20E-15 3.73E-16 5.49E-16 1.96E-16 6.92E-14 4.29E-05
  -0.0833 -0.4167  0.0833    1  2.30854E-09 kpt; spin; max resid(k); each band:
  1.40E-15 2.95E-16 1.05E-15 2.64E-16 2.15E-11 2.31E-09
  -0.2500 -0.3333  0.0000    1  2.67583E-11 kpt; spin; max resid(k); each band:
  9.77E-16 1.46E-15 5.74E-16 6.46E-17 1.48E-15 2.68E-11
  -0.1667 -0.3333  0.0833    1  1.65915E-06 kpt; spin; max resid(k); each band:
  1.12E-15 1.21E-15 1.22E-15 5.14E-16 5.81E-14 1.66E-06
  -0.0833 -0.3333  0.1667    1  3.44225E-12 kpt; spin; max resid(k); each band:
  9.71E-16 3.17E-16 1.43E-15 3.56E-16 3.68E-13 3.44E-12
  -0.0833  0.3333  0.0000    1  5.54521E-06 kpt; spin; max resid(k); each band:
  1.39E-15 2.46E-16 4.05E-16 3.66E-17 2.39E-07 5.55E-06
  -0.1667  0.4167  0.0000    1  3.16316E-08 kpt; spin; max resid(k); each band:
  5.14E-16 1.91E-15 2.95E-16 6.31E-17 1.09E-12 3.16E-08
  -0.2500  0.5000  0.0000    1  9.28235E-08 kpt; spin; max resid(k); each band:
  8.11E-16 3.68E-15 1.29E-15 3.94E-17 7.16E-15 9.28E-08
  -0.1667  0.5000  0.0833    1  1.73935E-10 kpt; spin; max resid(k); each band:
  7.54E-16 3.92E-16 1.83E-15 6.05E-16 2.35E-15 1.74E-10
  -0.3333 -0.4167  0.0000    1  4.43934E-15 kpt; spin; max resid(k); each band:
  1.64E-15 5.52E-16 1.21E-15 5.87E-17 1.18E-15 4.44E-15
  -0.2500 -0.4167  0.0833    1  2.50697E-13 kpt; spin; max resid(k); each band:
  3.05E-15 1.86E-15 2.02E-15 1.09E-15 4.31E-15 2.51E-13
  -0.1667 -0.4167  0.1667    1  1.31631E-09 kpt; spin; max resid(k); each band:
  7.67E-16 5.31E-16 2.69E-15 1.91E-15 6.45E-12 1.32E-09
  -0.0833 -0.4167  0.2500    1  8.88337E-09 kpt; spin; max resid(k); each band:
  1.00E-15 3.60E-16 2.54E-15 9.66E-16 3.80E-15 8.88E-09
  -0.0833  0.1667  0.0000    1  1.03995E-04 kpt; spin; max resid(k); each band:
  1.40E-15 2.75E-16 4.54E-16 7.29E-17 2.53E-07 1.04E-04
  -0.1667  0.2500  0.0000    1  2.39423E-08 kpt; spin; max resid(k); each band:
  1.34E-15 2.57E-16 3.62E-16 2.99E-17 2.39E-08 7.56E-09
  -0.2500  0.3333  0.0000    1  4.59612E-08 kpt; spin; max resid(k); each band:
  8.41E-16 2.19E-16 2.09E-16 4.47E-17 1.65E-14 4.60E-08
  -0.3333  0.4167  0.0000    1  1.67555E-12 kpt; spin; max resid(k); each band:
  1.26E-15 2.59E-15 4.15E-15 4.64E-17 1.78E-15 1.68E-12
  -0.4167  0.5000  0.0000    1  1.85934E-15 kpt; spin; max resid(k); each band:
  1.16E-15 2.63E-16 1.61E-15 4.60E-17 8.55E-16 1.86E-15
  -0.3333  0.5000  0.0833    1  5.27282E-15 kpt; spin; max resid(k); each band:
  2.44E-15 4.94E-16 4.05E-15 1.44E-15 2.99E-15 5.27E-15
  -0.2500  0.5000  0.1667    1  3.67322E-08 kpt; spin; max resid(k); each band:
  9.58E-16 8.72E-16 4.39E-15 3.44E-15 4.96E-13 3.67E-08
  -0.0833  0.0000  0.0000    1  3.79526E-05 kpt; spin; max resid(k); each band:
  5.03E-16 2.26E-15 4.75E-16 4.10E-16 1.88E-16 3.80E-05
  -0.2500  0.0000  0.0000    1  1.21388E-05 kpt; spin; max resid(k); each band:
  1.24E-15 1.55E-16 2.25E-16 2.13E-16 3.81E-16 1.21E-05
  -0.4167  0.0000  0.0000    1  4.21240E-06 kpt; spin; max resid(k); each band:
  8.49E-16 2.56E-16 5.34E-17 5.71E-17 3.38E-16 4.21E-06
 reduced coordinates (array xred) for    2 atoms
       0.000000000000      0.000000000000      0.000000000000
       0.250000000000      0.250000000000      0.250000000000
 rms dE/dt=  0.0000E+00; max dE/dt=  0.0000E+00; dE/dt below (all hartree)
    1       0.000000000000      0.000000000000      0.000000000000
    2       0.000000000000      0.000000000000      0.000000000000

 cartesian coordinates (angstrom) at end:
    1      0.00000000000000     0.00000000000000     0.00000000000000
    2      0.89175000000000     0.89175000000000     0.89175000000000

 cartesian forces (hartree/bohr) at end:
    1     -0.00000000000000    -0.00000000000000    -0.00000000000000
    2     -0.00000000000000    -0.00000000000000    -0.00000000000000
 frms,max,avg= 0.0000000E+00 0.0000000E+00   0.000E+00  0.000E+00  0.000E+00 h/b

 cartesian forces (eV/Angstrom) at end:
    1     -0.00000000000000    -0.00000000000000    -0.00000000000000
    2     -0.00000000000000    -0.00000000000000    -0.00000000000000
 frms,max,avg= 0.0000000E+00 0.0000000E+00   0.000E+00  0.000E+00  0.000E+00 e/A
 length scales=  6.740653116003  6.740653116003  6.740653116003 bohr
              =  3.567000000000  3.567000000000  3.567000000000 angstroms
 Fermi (or HOMO) energy (hartree) =   0.40117   Average Vxc (hartree)=  -0.49510
 Eigenvalues (hartree) for nkpt=  28  k points:
 kpt#   1, nband=  6, wtk=  0.02778, kpt= -0.0833 -0.1667  0.0000 (reduced coord)
  -0.34455   0.30773   0.35013   0.37891   0.62035   0.69733
 kpt#   2, nband=  6, wtk=  0.02778, kpt= -0.0833 -0.3333  0.0000 (reduced coord)
  -0.27064   0.10846   0.30523   0.32723   0.67992   0.75162
 kpt#   3, nband=  6, wtk=  0.02778, kpt= -0.1667 -0.2500  0.0000 (reduced coord)
  -0.30725   0.24367   0.29108   0.31654   0.60234   0.78248
 kpt#   4, nband=  6, wtk=  0.05556, kpt= -0.0833 -0.2500  0.0833 (reduced coord)
  -0.28885   0.18089   0.26024   0.33993   0.66056   0.75252
 kpt#   5, nband=  6, wtk=  0.02778, kpt= -0.0833  0.5000  0.0000 (reduced coord)
  -0.15805  -0.06268   0.28718   0.29765   0.70714   0.74431
 kpt#   6, nband=  6, wtk=  0.02778, kpt= -0.1667 -0.4167  0.0000 (reduced coord)
  -0.21685   0.05679   0.25772   0.26437   0.65648   0.81402
 kpt#   7, nband=  6, wtk=  0.05556, kpt= -0.0833 -0.4167  0.0833 (reduced coord)
  -0.18348  -0.00516   0.24153   0.28810   0.70601   0.74728
 kpt#   8, nband=  6, wtk=  0.02778, kpt= -0.2500 -0.3333  0.0000 (reduced coord)
  -0.25211   0.18052   0.24007   0.24119   0.58708   0.75376
 kpt#   9, nband=  6, wtk=  0.05556, kpt= -0.1667 -0.3333  0.0833 (reduced coord)
  -0.23427   0.12658   0.20902   0.26795   0.64645   0.79764
 kpt#  10, nband=  6, wtk=  0.05556, kpt= -0.0833 -0.3333  0.1667 (reduced coord)
  -0.19939   0.07069   0.16484   0.28307   0.72502   0.74531
 kpt#  11, nband=  6, wtk=  0.02778, kpt= -0.0833  0.3333  0.0000 (reduced coord)
  -0.23485   0.04402   0.28130   0.32762   0.71905   0.72686
 kpt#  12, nband=  6, wtk=  0.02778, kpt= -0.1667  0.4167  0.0000 (reduced coord)
  -0.14150  -0.04566   0.21345   0.28150   0.68777   0.78584
 kpt#  13, nband=  6, wtk=  0.02778, kpt= -0.2500  0.5000  0.0000 (reduced coord)
  -0.14856   0.02018   0.16697   0.23417   0.63439   0.82939
 kpt#  14, nband=  6, wtk=  0.05556, kpt= -0.1667  0.5000  0.0833 (reduced coord)
  -0.12469  -0.03040   0.18050   0.24133   0.68689   0.79191
 kpt#  15, nband=  6, wtk=  0.02778, kpt= -0.3333 -0.4167  0.0000 (reduced coord)
  -0.18038   0.09944   0.18485   0.20611   0.58093   0.67625
 kpt#  16, nband=  6, wtk=  0.05556, kpt= -0.2500 -0.4167  0.0833 (reduced coord)
  -0.16380   0.07609   0.15735   0.20362   0.63674   0.74288
 kpt#  17, nband=  6, wtk=  0.05556, kpt= -0.1667 -0.4167  0.1667 (reduced coord)
  -0.13244   0.03360   0.12798   0.20742   0.72791   0.77443
 kpt#  18, nband=  6, wtk=  0.05556, kpt= -0.0833 -0.4167  0.2500 (reduced coord)
  -0.09379  -0.00208   0.09687   0.22176   0.67508   0.84579
 kpt#  19, nband=  6, wtk=  0.02778, kpt= -0.0833  0.1667  0.0000 (reduced coord)
  -0.32587   0.24358   0.31490   0.38059   0.66364   0.70958
 kpt#  20, nband=  6, wtk=  0.02778, kpt= -0.1667  0.2500  0.0000 (reduced coord)
  -0.25250   0.12059   0.21050   0.33357   0.72502   0.72889
 kpt#  21, nband=  6, wtk=  0.02778, kpt= -0.2500  0.3333  0.0000 (reduced coord)
  -0.14987   0.02502   0.12426   0.27197   0.67487   0.82340
 kpt#  22, nband=  6, wtk=  0.02778, kpt= -0.3333  0.4167  0.0000 (reduced coord)
  -0.07554  -0.00454   0.08511   0.21835   0.62125   0.80736
 kpt#  23, nband=  6, wtk=  0.02778, kpt= -0.4167  0.5000  0.0000 (reduced coord)
  -0.09442   0.00176   0.16144   0.18810   0.58665   0.62775
 kpt#  24, nband=  6, wtk=  0.05556, kpt= -0.3333  0.5000  0.0833 (reduced coord)
  -0.08092   0.00657   0.11798   0.17750   0.63354   0.70833
 kpt#  25, nband=  6, wtk=  0.05556, kpt= -0.2500  0.5000  0.1667 (reduced coord)
  -0.06097   0.00346   0.09414   0.15224   0.72573   0.80511
 kpt#  26, nband=  6, wtk=  0.00926, kpt= -0.0833  0.0000  0.0000 (reduced coord)
  -0.36334   0.36844   0.40117   0.40117   0.63207   0.63251
 kpt#  27, nband=  6, wtk=  0.00926, kpt= -0.2500  0.0000  0.0000 (reduced coord)
  -0.30732   0.17293   0.34902   0.34902   0.69682   0.69684
 kpt#  28, nband=  6, wtk=  0.00926, kpt= -0.4167  0.0000  0.0000 (reduced coord)
  -0.20094  -0.02089   0.31491   0.31491   0.72031   0.72032
 Total charge density [el/Bohr^3]
,     Maximum=    2.7587E-01  at reduced coord.    0.0625    0.0625    0.8125
,Next maximum=    2.7587E-01  at reduced coord.    0.1875    0.1875    0.4375
,     Minimum=    1.3733E-02  at reduced coord.    0.5000    0.5000    0.5000
,Next minimum=    1.3733E-02  at reduced coord.    0.7500    0.7500    0.7500
,  Integrated=    8.0001E+00

--------------------------------------------------------------------------------
 Components of total free energy (in Hartree) :

    Kinetic energy  =  6.41066344863768E+00
    Hartree energy  =  9.63534583826678E-01
    XC energy       = -3.53237746063948E+00
    Ewald energy    = -1.27864121210521E+01
    PspCore energy  =  5.41017918797015E-01
    Loc. psp. energy= -5.26656014936568E+00
    Spherical terms =  2.14549359196662E+00
    >>>>>>>>> Etotal= -1.15246401878292E+01

 "Double-counting" decomposition of free energy:
    Band energy     =  6.87945752206322E-01
    Ewald energy    = -1.27864121210521E+01
    PspCore energy  =  5.41017918797015E-01
    Dble-C XC-energy=  1.22128061749936E-01
    Spherical terms = -8.93092066899208E-02
    >>>> Etotal (DC)= -1.15246295949887E+01

  >Total energy in eV           = -3.13601407999404E+02
  >Total DC energy in eV        = -3.13601119753554E+02
--------------------------------------------------------------------------------

 Cartesian components of stress tensor (hartree/bohr^3)
  sigma(1 1)=  4.13022388E-04  sigma(3 2)=  0.00000000E+00
  sigma(2 2)=  4.13022388E-04  sigma(3 1)=  0.00000000E+00
  sigma(3 3)=  4.13022388E-04  sigma(2 1)=  0.00000000E+00

-Cartesian components of stress tensor (GPa)         [Pressure= -1.2152E+01 GPa]
- sigma(1 1)=  1.21515361E+01  sigma(3 2)=  0.00000000E+00
- sigma(2 2)=  1.21515361E+01  sigma(3 1)=  0.00000000E+00
- sigma(3 3)=  1.21515361E+01  sigma(2 1)=  0.00000000E+00

================================================================================
== DATASET  2 ==================================================================
-   nproc =    1

 mkfilename : getwfk/=0, take file _WFK from output of DATASET   1.

 Exchange-correlation functional for the present dataset will be:
  LDA: Perdew-Wang 92 LSD fit to Ceperley-Alder data - ixc=7
 Citation for XC functional:
  J.P.Perdew and Y.Wang, PRB 45, 13244 (1992)

 Real(R)+Recip(G) space primitive vectors, cartesian coordinates (Bohr,Bohr^-1):
 R(1)=  0.0000000  3.3703266  3.3703266  G(1)= -0.1483536  0.1483536  0.1483536
 R(2)=  3.3703266  0.0000000  3.3703266  G(2)=  0.1483536 -0.1483536  0.1483536
 R(3)=  3.3703266  3.3703266  0.0000000  G(3)=  0.1483536  0.1483536 -0.1483536
 Unit cell volume ucvol=  7.6567760E+01 bohr^3
 Angles (23,13,12)=  6.00000000E+01  6.00000000E+01  6.00000000E+01 degrees

 Coarse grid specifications (used for wave-functions):

 getcut: wavevector=  0.0000  0.0000  0.0000  ngfft=  16  16  16
         ecut(hartree)=     12.000   => boxcut(ratio)=   2.15267

 Fine grid specifications (used for densities):

 getcut: wavevector=  0.0000  0.0000  0.0000  ngfft=  18  18  18
         ecut(hartree)=     15.000   => boxcut(ratio)=   2.17276

--- Pseudopotential description ------------------------------------------------
- pspini: atom type   1  psp file is /home/gonze/ABINIT/ABINITv7.9.3/trunk/7.9.3-private/tests/Psps_for_tests/6c.lda.atompaw
- pspatm: opening atomic psp file    /home/gonze/ABINIT/ABINITv7.9.3/trunk/7.9.3-private/tests/Psps_for_tests/6c.lda.atompaw
- Paw atomic data for element C - Generated by AtomPAW + AtomPAW2Abinit v3.2.1
-  6.00000   4.00000  20080326                znucl, zion, pspdat
    7    7    1    0       505   0.00000      pspcod,pspxc,lmax,lloc,mmax,r2well
 Pseudopotential format is: paw4
 basis_size (lnmax)=  4 (lmn_size=  8), orbitals=   0   0   1   1
 Spheres core radius: rc_sph= 1.50000000
 4 radial meshes are used:
  - mesh 1: r(i)=AA*[exp(BB*(i-1))-1], size= 505 , AA= 0.21824E-02 BB= 0.13095E-01
  - mesh 2: r(i)=AA*[exp(BB*(i-1))-1], size= 500 , AA= 0.21824E-02 BB= 0.13095E-01
  - mesh 3: r(i)=AA*[exp(BB*(i-1))-1], size= 530 , AA= 0.21824E-02 BB= 0.13095E-01
  - mesh 4: r(i)=AA*[exp(BB*(i-1))-1], size= 644 , AA= 0.21824E-02 BB= 0.13095E-01
 Shapefunction is SIN type: shapef(r)=[sin(pi*r/rshp)/(pi*r/rshp)]**2
 Radius for shape functions = sphere core radius
 Radial grid used for partial waves is grid 1
 Radial grid used for projectors is grid  2
 Radial grid used for (t)core density is grid 3
 Radial grid used for Vloc is grid 4
 Radial grid used for pseudo valence density is grid 4
 Compensation charge density is taken into account in XC energy/potential
 pspatm: atomic psp has been read  and splines computed

--------------------------------------------------------------------------------

-inwffil : will read wavefunctions from disk file tpaw1_3o_DS1_WFK
- newkpt: read input wf with ikpt,npw=   1     158, make ikpt,npw=   1     158
- newkpt: read input wf with ikpt,npw=   2     150, make ikpt,npw=   2     150
- newkpt: read input wf with ikpt,npw=   3     156, make ikpt,npw=   3     156
- newkpt: read input wf with ikpt,npw=   4     151, make ikpt,npw=   4     151
- newkpt: read input wf with ikpt,npw=   5     155, make ikpt,npw=   5     155
- newkpt: read input wf with ikpt,npw=   6     148, make ikpt,npw=   6     148
- newkpt: read input wf with ikpt,npw=   7     154, make ikpt,npw=   7     154
- newkpt: read input wf with ikpt,npw=   8     151, make ikpt,npw=   8     151
- newkpt: read input wf with ikpt,npw=   9     149, make ikpt,npw=   9     149
- newkpt: read input wf with ikpt,npw=  10     150, make ikpt,npw=  10     150
- newkpt: read input wf with ikpt,npw=  11     151, make ikpt,npw=  11     151
- newkpt: read input wf with ikpt,npw=  12     154, make ikpt,npw=  12     154
- newkpt: read input wf with ikpt,npw=  13     149, make ikpt,npw=  13     149
- newkpt: read input wf with ikpt,npw=  14     151, make ikpt,npw=  14     151
- newkpt: read input wf with ikpt,npw=  15     152, make ikpt,npw=  15     152
- newkpt: read input wf with ikpt,npw=  16     150, make ikpt,npw=  16     150
- newkpt: read input wf with ikpt,npw=  17     153, make ikpt,npw=  17     153
- newkpt: read input wf with ikpt,npw=  18     152, make ikpt,npw=  18     152
- newkpt: read input wf with ikpt,npw=  19     154, make ikpt,npw=  19     154
- newkpt: read input wf with ikpt,npw=  20     149, make ikpt,npw=  20     149
- newkpt: read input wf with ikpt,npw=  21     153, make ikpt,npw=  21     153
- newkpt: read input wf with ikpt,npw=  22     150, make ikpt,npw=  22     150
- newkpt: read input wf with ikpt,npw=  23     152, make ikpt,npw=  23     152
- newkpt: read input wf with ikpt,npw=  24     152, make ikpt,npw=  24     152
- newkpt: read input wf with ikpt,npw=  25     151, make ikpt,npw=  25     151
- newkpt: read input wf with ikpt,npw=  26     159, make ikpt,npw=  26     159
- newkpt: read input wf with ikpt,npw=  27     150, make ikpt,npw=  27     150
- newkpt: read input wf with ikpt,npw=  28     147, make ikpt,npw=  28     147

_setup2: Arith. and geom. avg. npw (full set) are     151.667     151.650

================================================================================

     iter   Etot(hartree)      deltaE(h)  residm     nres2
 ETOT  1  -11.524595840264    -1.152E+01 1.290E-04 4.969E-09
 ETOT  2  -11.524595840199     6.509E-11 1.311E-04 2.367E-10
 ETOT  3  -11.524595840197     2.215E-12 2.005E-04 2.365E-12

 At SCF step    3       nres2   =  2.37E-12 < tolvrs=  1.00E-10 =>converged.

 Cartesian components of stress tensor (hartree/bohr^3)
  sigma(1 1)=  4.18731026E-04  sigma(3 2)=  0.00000000E+00
  sigma(2 2)=  4.18731026E-04  sigma(3 1)=  0.00000000E+00
  sigma(3 3)=  4.18731026E-04  sigma(2 1)=  0.00000000E+00


 PAW TEST:
 ==== Compensation charge inside spheres ============
 The following values must be close to each other ...
 Compensation charge over spherical meshes =      0.409412856988167
 Compensation charge over fine fft grid    =      0.409428827655207

 ==== Results concerning PAW augmentation regions ====

 Total pseudopotential strength Dij (hartree):
 Atom #  1
   0.59006  -1.64877   0.00000   0.00000   0.00000   0.00000   0.00000   0.00000
  -1.64877   4.11673   0.00000   0.00000   0.00000   0.00000   0.00000   0.00000
   0.00000   0.00000  -0.03420   0.00000   0.00000  -0.22963   0.00000   0.00000
   0.00000   0.00000   0.00000  -0.03420   0.00000   0.00000  -0.22963   0.00000
   0.00000   0.00000   0.00000   0.00000  -0.03420   0.00000   0.00000  -0.22963
   0.00000   0.00000  -0.22963   0.00000   0.00000   2.94421   0.00000   0.00000
   0.00000   0.00000   0.00000  -0.22963   0.00000   0.00000   2.94421   0.00000
   0.00000   0.00000   0.00000   0.00000  -0.22963   0.00000   0.00000   2.94421
 Atom #  2
   0.59006  -1.64877   0.00000   0.00000   0.00000   0.00000   0.00000   0.00000
  -1.64877   4.11673   0.00000   0.00000   0.00000   0.00000   0.00000   0.00000
   0.00000   0.00000  -0.03420   0.00000   0.00000  -0.22963   0.00000   0.00000
   0.00000   0.00000   0.00000  -0.03420   0.00000   0.00000  -0.22963   0.00000
   0.00000   0.00000   0.00000   0.00000  -0.03420   0.00000   0.00000  -0.22963
   0.00000   0.00000  -0.22963   0.00000   0.00000   2.94421   0.00000   0.00000
   0.00000   0.00000   0.00000  -0.22963   0.00000   0.00000   2.94421   0.00000
   0.00000   0.00000   0.00000   0.00000  -0.22963   0.00000   0.00000   2.94421


 Augmentation waves occupancies Rhoij:
 Atom #  1
   1.61522   0.04431   0.00000   0.00000   0.00000   0.00000   0.00000   0.00000
   0.04431   0.00167   0.00000   0.00000   0.00000   0.00000   0.00000   0.00000
   0.00000   0.00000   1.41630   0.00000   0.00000   0.06369   0.00000   0.00000
   0.00000   0.00000   0.00000   1.41630   0.00000   0.00000   0.06369   0.00000
   0.00000   0.00000   0.00000   0.00000   1.41630   0.00000   0.00000   0.06369
   0.00000   0.00000   0.06369   0.00000   0.00000   0.00339   0.00000   0.00000
   0.00000   0.00000   0.00000   0.06369   0.00000   0.00000   0.00339   0.00000
   0.00000   0.00000   0.00000   0.00000   0.06369   0.00000   0.00000   0.00339
 Atom #  2
   1.61522   0.04431   0.00000   0.00000   0.00000   0.00000   0.00000   0.00000
   0.04431   0.00167   0.00000   0.00000   0.00000   0.00000   0.00000   0.00000
   0.00000   0.00000   1.41630   0.00000   0.00000   0.06369   0.00000   0.00000
   0.00000   0.00000   0.00000   1.41630   0.00000   0.00000   0.06369   0.00000
   0.00000   0.00000   0.00000   0.00000   1.41630   0.00000   0.00000   0.06369
   0.00000   0.00000   0.06369   0.00000   0.00000   0.00339   0.00000   0.00000
   0.00000   0.00000   0.00000   0.06369   0.00000   0.00000   0.00339   0.00000
   0.00000   0.00000   0.00000   0.00000   0.06369   0.00000   0.00000   0.00339


================================================================================

 ----iterations are completed or convergence reached----

 Mean square residual over all n,k,spin=   1.3568E-06; max=  2.0055E-04
  -0.0833 -0.1667  0.0000    1  1.25496E-06 kpt; spin; max resid(k); each band:
  6.52E-15 3.12E-15 5.11E-15 1.29E-15 4.96E-15 1.25E-06
  -0.0833 -0.3333  0.0000    1  2.07797E-06 kpt; spin; max resid(k); each band:
  1.62E-14 1.49E-14 1.04E-15 3.19E-15 2.39E-14 2.08E-06
  -0.1667 -0.2500  0.0000    1  9.47202E-07 kpt; spin; max resid(k); each band:
  1.54E-14 9.27E-15 1.18E-15 4.91E-15 8.97E-15 9.47E-07
  -0.0833 -0.2500  0.0833    1  1.03277E-08 kpt; spin; max resid(k); each band:
  1.19E-14 8.52E-15 5.37E-15 2.29E-15 8.35E-15 1.03E-08
  -0.0833  0.5000  0.0000    1  6.06425E-09 kpt; spin; max resid(k); each band:
  6.19E-15 4.40E-15 1.37E-15 2.13E-15 5.40E-11 6.06E-09
  -0.1667 -0.4167  0.0000    1  1.05277E-05 kpt; spin; max resid(k); each band:
  1.65E-14 5.90E-15 2.26E-15 7.06E-15 1.18E-14 1.05E-05
  -0.0833 -0.4167  0.0833    1  4.74966E-13 kpt; spin; max resid(k); each band:
  1.29E-14 1.44E-14 3.51E-15 5.42E-15 1.19E-14 4.75E-13
  -0.2500 -0.3333  0.0000    1  2.10118E-14 kpt; spin; max resid(k); each band:
  2.10E-14 2.01E-15 7.25E-15 2.98E-16 1.32E-14 7.85E-15
  -0.1667 -0.3333  0.0833    1  3.33490E-08 kpt; spin; max resid(k); each band:
  1.92E-14 1.23E-14 5.54E-15 1.53E-14 1.53E-14 3.33E-08
  -0.0833 -0.3333  0.1667    1  3.07314E-14 kpt; spin; max resid(k); each band:
  1.43E-14 1.50E-14 1.07E-14 5.91E-15 3.07E-14 1.32E-14
  -0.0833  0.3333  0.0000    1  1.28311E-09 kpt; spin; max resid(k); each band:
  6.16E-15 6.65E-15 3.86E-15 3.83E-16 2.43E-11 1.28E-09
  -0.1667  0.4167  0.0000    1  9.32170E-11 kpt; spin; max resid(k); each band:
  4.49E-15 1.22E-14 4.56E-15 2.51E-15 1.44E-14 9.32E-11
  -0.2500  0.5000  0.0000    1  3.24602E-11 kpt; spin; max resid(k); each band:
  1.74E-14 1.75E-14 1.91E-14 6.84E-16 1.80E-14 3.25E-11
  -0.1667  0.5000  0.0833    1  2.65055E-14 kpt; spin; max resid(k); each band:
  1.00E-14 1.74E-14 6.26E-15 1.28E-14 1.79E-14 2.65E-14
  -0.3333 -0.4167  0.0000    1  2.34540E-14 kpt; spin; max resid(k); each band:
  2.35E-14 5.71E-15 9.03E-15 5.88E-16 1.94E-14 1.39E-14
  -0.2500 -0.4167  0.0833    1  2.69661E-14 kpt; spin; max resid(k); each band:
  2.10E-14 4.29E-15 1.61E-14 1.28E-14 1.99E-14 2.70E-14
  -0.1667 -0.4167  0.1667    1  5.84760E-14 kpt; spin; max resid(k); each band:
  1.52E-14 1.65E-14 1.22E-14 2.62E-14 2.75E-14 5.85E-14
  -0.0833 -0.4167  0.2500    1  1.39363E-12 kpt; spin; max resid(k); each band:
  6.51E-15 1.91E-14 1.69E-14 1.02E-14 2.10E-14 1.39E-12
  -0.0833  0.1667  0.0000    1  2.00548E-04 kpt; spin; max resid(k); each band:
  1.06E-14 8.74E-15 5.05E-15 8.12E-16 2.21E-11 2.01E-04
  -0.1667  0.2500  0.0000    1  2.75064E-13 kpt; spin; max resid(k); each band:
  6.79E-15 9.49E-15 5.07E-15 7.38E-16 6.28E-14 2.75E-13
  -0.2500  0.3333  0.0000    1  6.88013E-12 kpt; spin; max resid(k); each band:
  7.37E-15 1.57E-14 7.46E-15 1.12E-15 1.70E-14 6.88E-12
  -0.3333  0.4167  0.0000    1  3.41361E-14 kpt; spin; max resid(k); each band:
  8.47E-15 1.69E-14 2.93E-14 4.13E-16 1.59E-14 3.41E-14
  -0.4167  0.5000  0.0000    1  2.00362E-14 kpt; spin; max resid(k); each band:
  2.00E-14 1.36E-14 8.45E-15 3.62E-16 1.60E-14 1.92E-14
  -0.3333  0.5000  0.0833    1  2.64077E-14 kpt; spin; max resid(k); each band:
  1.65E-14 8.71E-15 2.32E-14 8.76E-15 2.05E-14 2.64E-14
  -0.2500  0.5000  0.1667    1  7.97679E-12 kpt; spin; max resid(k); each band:
  7.22E-15 8.86E-15 3.38E-14 3.02E-14 2.91E-14 7.98E-12
  -0.0833  0.0000  0.0000    1  1.25219E-05 kpt; spin; max resid(k); each band:
  9.03E-16 2.47E-15 2.19E-15 2.20E-15 2.46E-15 1.25E-05
  -0.2500  0.0000  0.0000    1  1.05801E-08 kpt; spin; max resid(k); each band:
  3.39E-15 1.59E-15 3.68E-15 3.68E-15 3.63E-15 1.06E-08
  -0.4167  0.0000  0.0000    1  2.33982E-09 kpt; spin; max resid(k); each band:
  5.07E-15 2.19E-15 8.37E-16 8.37E-16 1.01E-15 2.34E-09
 reduced coordinates (array xred) for    2 atoms
       0.000000000000      0.000000000000      0.000000000000
       0.250000000000      0.250000000000      0.250000000000
 rms dE/dt=  7.6211E-30; max dE/dt=  4.2073E-30; dE/dt below (all hartree)
    1       0.000000000000     -0.000000000000      0.000000000000
    2      -0.000000000000     -0.000000000000      0.000000000000

 cartesian coordinates (angstrom) at end:
    1      0.00000000000000     0.00000000000000     0.00000000000000
    2      0.89175000000000     0.89175000000000     0.89175000000000

 cartesian forces (hartree/bohr) at end:
    1     -0.00000000000000    -0.00000000000000    -0.00000000000000
    2      0.00000000000000     0.00000000000000     0.00000000000000
 frms,max,avg= 1.0379916E-30 1.7944652E-30   0.000E+00  0.000E+00  0.000E+00 h/b

 cartesian forces (eV/Angstrom) at end:
    1     -0.00000000000000    -0.00000000000000    -0.00000000000000
    2      0.00000000000000     0.00000000000000     0.00000000000000
 frms,max,avg= 5.3375668E-29 9.2275101E-29   0.000E+00  0.000E+00  0.000E+00 e/A
 length scales=  6.740653116003  6.740653116003  6.740653116003 bohr
              =  3.567000000000  3.567000000000  3.567000000000 angstroms
 Fermi (or HOMO) energy (hartree) =   0.40118   Average Vxc (hartree)=  -0.49510
 Eigenvalues (hartree) for nkpt=  28  k points:
 kpt#   1, nband=  6, wtk=  0.02778, kpt= -0.0833 -0.1667  0.0000 (reduced coord)
  -0.34456   0.30774   0.35014   0.37892   0.62036   0.69728
 kpt#   2, nband=  6, wtk=  0.02778, kpt= -0.0833 -0.3333  0.0000 (reduced coord)
  -0.27064   0.10847   0.30524   0.32723   0.67993   0.75160
 kpt#   3, nband=  6, wtk=  0.02778, kpt= -0.1667 -0.2500  0.0000 (reduced coord)
  -0.30726   0.24367   0.29108   0.31654   0.60235   0.78248
 kpt#   4, nband=  6, wtk=  0.05556, kpt= -0.0833 -0.2500  0.0833 (reduced coord)
  -0.28885   0.18089   0.26024   0.33994   0.66057   0.75253
 kpt#   5, nband=  6, wtk=  0.02778, kpt= -0.0833  0.5000  0.0000 (reduced coord)
  -0.15806  -0.06268   0.28719   0.29766   0.70714   0.74431
 kpt#   6, nband=  6, wtk=  0.02778, kpt= -0.1667 -0.4167  0.0000 (reduced coord)
  -0.21685   0.05679   0.25773   0.26438   0.65648   0.81365
 kpt#   7, nband=  6, wtk=  0.05556, kpt= -0.0833 -0.4167  0.0833 (reduced coord)
  -0.18349  -0.00516   0.24153   0.28811   0.70602   0.74729
 kpt#   8, nband=  6, wtk=  0.02778, kpt= -0.2500 -0.3333  0.0000 (reduced coord)
  -0.25211   0.18052   0.24008   0.24120   0.58708   0.75376
 kpt#   9, nband=  6, wtk=  0.05556, kpt= -0.1667 -0.3333  0.0833 (reduced coord)
  -0.23428   0.12658   0.20902   0.26796   0.64645   0.79764
 kpt#  10, nband=  6, wtk=  0.05556, kpt= -0.0833 -0.3333  0.1667 (reduced coord)
  -0.19940   0.07069   0.16485   0.28308   0.72502   0.74532
 kpt#  11, nband=  6, wtk=  0.02778, kpt= -0.0833  0.3333  0.0000 (reduced coord)
  -0.23486   0.04402   0.28131   0.32763   0.71906   0.72687
 kpt#  12, nband=  6, wtk=  0.02778, kpt= -0.1667  0.4167  0.0000 (reduced coord)
  -0.14150  -0.04566   0.21346   0.28151   0.68778   0.78585
 kpt#  13, nband=  6, wtk=  0.02778, kpt= -0.2500  0.5000  0.0000 (reduced coord)
  -0.14856   0.02018   0.16698   0.23418   0.63439   0.82940
 kpt#  14, nband=  6, wtk=  0.05556, kpt= -0.1667  0.5000  0.0833 (reduced coord)
  -0.12470  -0.03040   0.18051   0.24133   0.68689   0.79191
 kpt#  15, nband=  6, wtk=  0.02778, kpt= -0.3333 -0.4167  0.0000 (reduced coord)
  -0.18039   0.09944   0.18486   0.20612   0.58093   0.67625
 kpt#  16, nband=  6, wtk=  0.05556, kpt= -0.2500 -0.4167  0.0833 (reduced coord)
  -0.16380   0.07608   0.15736   0.20362   0.63675   0.74289
 kpt#  17, nband=  6, wtk=  0.05556, kpt= -0.1667 -0.4167  0.1667 (reduced coord)
  -0.13244   0.03360   0.12798   0.20743   0.72792   0.77444
 kpt#  18, nband=  6, wtk=  0.05556, kpt= -0.0833 -0.4167  0.2500 (reduced coord)
  -0.09380  -0.00208   0.09688   0.22177   0.67508   0.84581
 kpt#  19, nband=  6, wtk=  0.02778, kpt= -0.0833  0.1667  0.0000 (reduced coord)
  -0.32588   0.24358   0.31491   0.38060   0.66365   0.70767
 kpt#  20, nband=  6, wtk=  0.02778, kpt= -0.1667  0.2500  0.0000 (reduced coord)
  -0.25251   0.12059   0.21051   0.33358   0.72502   0.72891
 kpt#  21, nband=  6, wtk=  0.02778, kpt= -0.2500  0.3333  0.0000 (reduced coord)
  -0.14988   0.02502   0.12426   0.27198   0.67488   0.82342
 kpt#  22, nband=  6, wtk=  0.02778, kpt= -0.3333  0.4167  0.0000 (reduced coord)
  -0.07555  -0.00455   0.08511   0.21835   0.62125   0.80737
 kpt#  23, nband=  6, wtk=  0.02778, kpt= -0.4167  0.5000  0.0000 (reduced coord)
  -0.09442   0.00175   0.16145   0.18810   0.58665   0.62775
 kpt#  24, nband=  6, wtk=  0.05556, kpt= -0.3333  0.5000  0.0833 (reduced coord)
  -0.08093   0.00657   0.11799   0.17751   0.63354   0.70833
 kpt#  25, nband=  6, wtk=  0.05556, kpt= -0.2500  0.5000  0.1667 (reduced coord)
  -0.06098   0.00345   0.09415   0.15225   0.72573   0.80512
 kpt#  26, nband=  6, wtk=  0.00926, kpt= -0.0833  0.0000  0.0000 (reduced coord)
  -0.36334   0.36845   0.40118   0.40118   0.63208   0.63215
 kpt#  27, nband=  6, wtk=  0.00926, kpt= -0.2500  0.0000  0.0000 (reduced coord)
  -0.30733   0.17293   0.34903   0.34903   0.69684   0.69684
 kpt#  28, nband=  6, wtk=  0.00926, kpt= -0.4167  0.0000  0.0000 (reduced coord)
  -0.20095  -0.02089   0.31492   0.31492   0.72032   0.72032
 Total charge density [el/Bohr^3]
,     Maximum=    2.7448E-01  at reduced coord.    0.0556    0.0556    0.8333
,Next maximum=    2.7448E-01  at reduced coord.    0.0556    0.8333    0.0556
,     Minimum=    1.3733E-02  at reduced coord.    0.5000    0.5000    0.5000
,Next minimum=    1.4205E-02  at reduced coord.    0.7778    0.7222    0.7222
,  Integrated=    8.0000E+00

--------------------------------------------------------------------------------
 Components of total free energy (in Hartree) :

    Kinetic energy  =  6.41066462901254E+00
    Hartree energy  =  9.63515364197854E-01
    XC energy       = -3.53235177326177E+00
    Ewald energy    = -1.27864121210521E+01
    PspCore energy  =  5.41017918797015E-01
    Loc. psp. energy= -5.26649839535202E+00
    Spherical terms =  2.14546799781080E+00
    >>>>>>>>> Etotal= -1.15245963798477E+01

 "Double-counting" decomposition of free energy:
    Band energy     =  6.87963801087127E-01
    Ewald energy    = -1.27864121210521E+01
    PspCore energy  =  5.41017918797015E-01
    Dble-C XC-energy=  1.22139275455202E-01
    Spherical terms = -8.93047144839403E-02
    >>>> Etotal (DC)= -1.15245958401967E+01

  >Total energy in eV           = -3.13600215923601E+02
  >Total DC energy in eV        = -3.13600201238951E+02
--------------------------------------------------------------------------------

 Cartesian components of stress tensor (hartree/bohr^3)
  sigma(1 1)=  4.18731026E-04  sigma(3 2)=  0.00000000E+00
  sigma(2 2)=  4.18731026E-04  sigma(3 1)=  0.00000000E+00
  sigma(3 3)=  4.18731026E-04  sigma(2 1)=  0.00000000E+00

-Cartesian components of stress tensor (GPa)         [Pressure= -1.2319E+01 GPa]
- sigma(1 1)=  1.23194900E+01  sigma(3 2)=  0.00000000E+00
- sigma(2 2)=  1.23194900E+01  sigma(3 1)=  0.00000000E+00
- sigma(3 3)=  1.23194900E+01  sigma(2 1)=  0.00000000E+00

================================================================================
== DATASET  3 ==================================================================
-   nproc =    1

 mkfilename : getwfk/=0, take file _WFK from output of DATASET   2.

 Exchange-correlation functional for the present dataset will be:
  LDA: Perdew-Wang 92 LSD fit to Ceperley-Alder data - ixc=7
 Citation for XC functional:
  J.P.Perdew and Y.Wang, PRB 45, 13244 (1992)

 Real(R)+Recip(G) space primitive vectors, cartesian coordinates (Bohr,Bohr^-1):
 R(1)=  0.0000000  3.3703266  3.3703266  G(1)= -0.1483536  0.1483536  0.1483536
 R(2)=  3.3703266  0.0000000  3.3703266  G(2)=  0.1483536 -0.1483536  0.1483536
 R(3)=  3.3703266  3.3703266  0.0000000  G(3)=  0.1483536  0.1483536 -0.1483536
 Unit cell volume ucvol=  7.6567760E+01 bohr^3
 Angles (23,13,12)=  6.00000000E+01  6.00000000E+01  6.00000000E+01 degrees

 Coarse grid specifications (used for wave-functions):

 getcut: wavevector=  0.0000  0.0000  0.0000  ngfft=  16  16  16
         ecut(hartree)=     12.000   => boxcut(ratio)=   2.15267

 Fine grid specifications (used for densities):

 getcut: wavevector=  0.0000  0.0000  0.0000  ngfft=  20  20  20
         ecut(hartree)=     18.000   => boxcut(ratio)=   2.19706

--- Pseudopotential description ------------------------------------------------
- pspini: atom type   1  psp file is /home/gonze/ABINIT/ABINITv7.9.3/trunk/7.9.3-private/tests/Psps_for_tests/6c.lda.atompaw
- pspatm: opening atomic psp file    /home/gonze/ABINIT/ABINITv7.9.3/trunk/7.9.3-private/tests/Psps_for_tests/6c.lda.atompaw
- Paw atomic data for element C - Generated by AtomPAW + AtomPAW2Abinit v3.2.1
-  6.00000   4.00000  20080326                znucl, zion, pspdat
    7    7    1    0       505   0.00000      pspcod,pspxc,lmax,lloc,mmax,r2well
 Pseudopotential format is: paw4
 basis_size (lnmax)=  4 (lmn_size=  8), orbitals=   0   0   1   1
 Spheres core radius: rc_sph= 1.50000000
 4 radial meshes are used:
  - mesh 1: r(i)=AA*[exp(BB*(i-1))-1], size= 505 , AA= 0.21824E-02 BB= 0.13095E-01
  - mesh 2: r(i)=AA*[exp(BB*(i-1))-1], size= 500 , AA= 0.21824E-02 BB= 0.13095E-01
  - mesh 3: r(i)=AA*[exp(BB*(i-1))-1], size= 530 , AA= 0.21824E-02 BB= 0.13095E-01
  - mesh 4: r(i)=AA*[exp(BB*(i-1))-1], size= 644 , AA= 0.21824E-02 BB= 0.13095E-01
 Shapefunction is SIN type: shapef(r)=[sin(pi*r/rshp)/(pi*r/rshp)]**2
 Radius for shape functions = sphere core radius
 Radial grid used for partial waves is grid 1
 Radial grid used for projectors is grid  2
 Radial grid used for (t)core density is grid 3
 Radial grid used for Vloc is grid 4
 Radial grid used for pseudo valence density is grid 4
 Compensation charge density is taken into account in XC energy/potential
 pspatm: atomic psp has been read  and splines computed

--------------------------------------------------------------------------------

-inwffil : will read wavefunctions from disk file tpaw1_3o_DS2_WFK
- newkpt: read input wf with ikpt,npw=   1     158, make ikpt,npw=   1     158
- newkpt: read input wf with ikpt,npw=   2     150, make ikpt,npw=   2     150
- newkpt: read input wf with ikpt,npw=   3     156, make ikpt,npw=   3     156
- newkpt: read input wf with ikpt,npw=   4     151, make ikpt,npw=   4     151
- newkpt: read input wf with ikpt,npw=   5     155, make ikpt,npw=   5     155
- newkpt: read input wf with ikpt,npw=   6     148, make ikpt,npw=   6     148
- newkpt: read input wf with ikpt,npw=   7     154, make ikpt,npw=   7     154
- newkpt: read input wf with ikpt,npw=   8     151, make ikpt,npw=   8     151
- newkpt: read input wf with ikpt,npw=   9     149, make ikpt,npw=   9     149
- newkpt: read input wf with ikpt,npw=  10     150, make ikpt,npw=  10     150
- newkpt: read input wf with ikpt,npw=  11     151, make ikpt,npw=  11     151
- newkpt: read input wf with ikpt,npw=  12     154, make ikpt,npw=  12     154
- newkpt: read input wf with ikpt,npw=  13     149, make ikpt,npw=  13     149
- newkpt: read input wf with ikpt,npw=  14     151, make ikpt,npw=  14     151
- newkpt: read input wf with ikpt,npw=  15     152, make ikpt,npw=  15     152
- newkpt: read input wf with ikpt,npw=  16     150, make ikpt,npw=  16     150
- newkpt: read input wf with ikpt,npw=  17     153, make ikpt,npw=  17     153
- newkpt: read input wf with ikpt,npw=  18     152, make ikpt,npw=  18     152
- newkpt: read input wf with ikpt,npw=  19     154, make ikpt,npw=  19     154
- newkpt: read input wf with ikpt,npw=  20     149, make ikpt,npw=  20     149
- newkpt: read input wf with ikpt,npw=  21     153, make ikpt,npw=  21     153
- newkpt: read input wf with ikpt,npw=  22     150, make ikpt,npw=  22     150
- newkpt: read input wf with ikpt,npw=  23     152, make ikpt,npw=  23     152
- newkpt: read input wf with ikpt,npw=  24     152, make ikpt,npw=  24     152
- newkpt: read input wf with ikpt,npw=  25     151, make ikpt,npw=  25     151
- newkpt: read input wf with ikpt,npw=  26     159, make ikpt,npw=  26     159
- newkpt: read input wf with ikpt,npw=  27     150, make ikpt,npw=  27     150
- newkpt: read input wf with ikpt,npw=  28     147, make ikpt,npw=  28     147

_setup2: Arith. and geom. avg. npw (full set) are     151.667     151.650

================================================================================

     iter   Etot(hartree)      deltaE(h)  residm     nres2
 ETOT  1  -11.524585370015    -1.152E+01 1.602E-04 5.638E-10
 ETOT  2  -11.524585370009     5.226E-12 1.170E-04 2.852E-11

 At SCF step    2       nres2   =  2.85E-11 < tolvrs=  1.00E-10 =>converged.

 Cartesian components of stress tensor (hartree/bohr^3)
  sigma(1 1)=  4.22187399E-04  sigma(3 2)=  0.00000000E+00
  sigma(2 2)=  4.22187399E-04  sigma(3 1)=  0.00000000E+00
  sigma(3 3)=  4.22187399E-04  sigma(2 1)=  0.00000000E+00


 PAW TEST:
 ==== Compensation charge inside spheres ============
 The following values must be close to each other ...
 Compensation charge over spherical meshes =      0.409400980802059
 Compensation charge over fine fft grid    =      0.409392233610589

 ==== Results concerning PAW augmentation regions ====

 Total pseudopotential strength Dij (hartree):
 Atom #  1
   0.59005  -1.64876   0.00000   0.00000   0.00000   0.00000   0.00000   0.00000
  -1.64876   4.11670   0.00000   0.00000   0.00000   0.00000   0.00000   0.00000
   0.00000   0.00000  -0.03420   0.00000   0.00000  -0.22964   0.00000   0.00000
   0.00000   0.00000   0.00000  -0.03420   0.00000   0.00000  -0.22964   0.00000
   0.00000   0.00000   0.00000   0.00000  -0.03420   0.00000   0.00000  -0.22964
   0.00000   0.00000  -0.22964   0.00000   0.00000   2.94423   0.00000   0.00000
   0.00000   0.00000   0.00000  -0.22964   0.00000   0.00000   2.94423   0.00000
   0.00000   0.00000   0.00000   0.00000  -0.22964   0.00000   0.00000   2.94423
 Atom #  2
   0.59005  -1.64876   0.00000   0.00000   0.00000   0.00000   0.00000   0.00000
  -1.64876   4.11670   0.00000   0.00000   0.00000   0.00000   0.00000   0.00000
   0.00000   0.00000  -0.03420   0.00000   0.00000  -0.22964   0.00000   0.00000
   0.00000   0.00000   0.00000  -0.03420   0.00000   0.00000  -0.22964   0.00000
   0.00000   0.00000   0.00000   0.00000  -0.03420   0.00000   0.00000  -0.22964
   0.00000   0.00000  -0.22964   0.00000   0.00000   2.94423   0.00000   0.00000
   0.00000   0.00000   0.00000  -0.22964   0.00000   0.00000   2.94423   0.00000
   0.00000   0.00000   0.00000   0.00000  -0.22964   0.00000   0.00000   2.94423


 Augmentation waves occupancies Rhoij:
 Atom #  1
   1.61522   0.04431   0.00000   0.00000   0.00000   0.00000   0.00000   0.00000
   0.04431   0.00167   0.00000   0.00000   0.00000   0.00000   0.00000   0.00000
   0.00000   0.00000   1.41630   0.00000   0.00000   0.06370   0.00000   0.00000
   0.00000   0.00000   0.00000   1.41630   0.00000   0.00000   0.06370   0.00000
   0.00000   0.00000   0.00000   0.00000   1.41630   0.00000   0.00000   0.06370
   0.00000   0.00000   0.06370   0.00000   0.00000   0.00339   0.00000   0.00000
   0.00000   0.00000   0.00000   0.06370   0.00000   0.00000   0.00339   0.00000
   0.00000   0.00000   0.00000   0.00000   0.06370   0.00000   0.00000   0.00339
 Atom #  2
   1.61522   0.04431   0.00000   0.00000   0.00000   0.00000   0.00000   0.00000
   0.04431   0.00167   0.00000   0.00000   0.00000   0.00000   0.00000   0.00000
   0.00000   0.00000   1.41630   0.00000   0.00000   0.06370   0.00000   0.00000
   0.00000   0.00000   0.00000   1.41630   0.00000   0.00000   0.06370   0.00000
   0.00000   0.00000   0.00000   0.00000   1.41630   0.00000   0.00000   0.06370
   0.00000   0.00000   0.06370   0.00000   0.00000   0.00339   0.00000   0.00000
   0.00000   0.00000   0.00000   0.06370   0.00000   0.00000   0.00339   0.00000
   0.00000   0.00000   0.00000   0.00000   0.06370   0.00000   0.00000   0.00339


================================================================================

 ----iterations are completed or convergence reached----

 Mean square residual over all n,k,spin=   7.6153E-07; max=  1.1703E-04
  -0.0833 -0.1667  0.0000    1  1.04171E-06 kpt; spin; max resid(k); each band:
  5.41E-18 9.28E-19 5.02E-18 9.87E-19 1.67E-17 1.04E-06
  -0.0833 -0.3333  0.0000    1  2.51266E-06 kpt; spin; max resid(k); each band:
  9.00E-18 2.92E-18 6.19E-20 4.59E-19 4.66E-15 2.51E-06
  -0.1667 -0.2500  0.0000    1  8.66097E-07 kpt; spin; max resid(k); each band:
  9.94E-18 7.68E-19 6.45E-20 1.23E-18 2.30E-17 8.66E-07
  -0.0833 -0.2500  0.0833    1  3.25333E-10 kpt; spin; max resid(k); each band:
  1.85E-17 1.06E-18 4.43E-19 1.06E-19 6.38E-17 3.25E-10
  -0.0833  0.5000  0.0000    1  7.58366E-11 kpt; spin; max resid(k); each band:
  6.20E-18 1.03E-18 4.29E-20 4.18E-19 5.43E-14 7.58E-11
  -0.1667 -0.4167  0.0000    1  3.73563E-06 kpt; spin; max resid(k); each band:
  4.32E-17 7.39E-18 2.21E-19 1.27E-18 1.78E-16 3.74E-06
  -0.0833 -0.4167  0.0833    1  1.91425E-14 kpt; spin; max resid(k); each band:
  3.00E-17 6.86E-18 1.47E-19 3.13E-19 8.32E-16 1.91E-14
  -0.2500 -0.3333  0.0000    1  3.30089E-16 kpt; spin; max resid(k); each band:
  3.20E-17 1.21E-18 1.06E-18 3.33E-20 3.67E-19 3.30E-16
  -0.1667 -0.3333  0.0833    1  6.92156E-10 kpt; spin; max resid(k); each band:
  3.47E-17 2.80E-18 3.26E-18 1.42E-18 5.41E-17 6.92E-10
  -0.0833 -0.3333  0.1667    1  4.61703E-16 kpt; spin; max resid(k); each band:
  4.17E-17 4.23E-18 1.16E-18 2.12E-18 4.62E-16 3.00E-16
  -0.0833  0.3333  0.0000    1  1.51847E-11 kpt; spin; max resid(k); each band:
  2.94E-18 1.31E-18 5.18E-19 3.88E-21 1.63E-13 1.52E-11
  -0.1667  0.4167  0.0000    1  3.39150E-13 kpt; spin; max resid(k); each band:
  1.54E-18 6.76E-18 5.41E-19 5.22E-19 1.03E-15 3.39E-13
  -0.2500  0.5000  0.0000    1  9.52795E-14 kpt; spin; max resid(k); each band:
  3.31E-17 4.69E-18 2.36E-18 1.15E-19 1.94E-16 9.53E-14
  -0.1667  0.5000  0.0833    1  2.53407E-15 kpt; spin; max resid(k); each band:
  1.42E-17 7.57E-18 5.25E-19 6.15E-19 9.63E-17 2.53E-15
  -0.3333 -0.4167  0.0000    1  6.81104E-17 kpt; spin; max resid(k); each band:
  6.81E-17 2.73E-18 8.88E-19 3.69E-20 2.72E-18 2.07E-17
  -0.2500 -0.4167  0.0833    1  4.37202E-16 kpt; spin; max resid(k); each band:
  4.62E-17 3.73E-18 2.04E-18 1.28E-18 3.70E-17 4.37E-16
  -0.1667 -0.4167  0.1667    1  4.62651E-15 kpt; spin; max resid(k); each band:
  2.82E-17 6.04E-18 1.94E-18 3.21E-18 2.14E-16 4.63E-15
  -0.0833 -0.4167  0.2500    1  7.19927E-15 kpt; spin; max resid(k); each band:
  7.44E-18 8.33E-18 2.90E-18 4.57E-18 3.70E-17 7.20E-15
  -0.0833  0.1667  0.0000    1  1.17026E-04 kpt; spin; max resid(k); each band:
  4.10E-18 2.49E-18 3.33E-18 1.64E-19 6.20E-14 1.17E-04
  -0.1667  0.2500  0.0000    1  1.17619E-14 kpt; spin; max resid(k); each band:
  1.83E-18 2.00E-18 6.14E-19 2.61E-19 1.18E-14 3.83E-17
  -0.2500  0.3333  0.0000    1  1.27623E-15 kpt; spin; max resid(k); each band:
  1.13E-17 6.71E-18 1.67E-18 2.10E-19 1.21E-16 1.28E-15
  -0.3333  0.4167  0.0000    1  1.19360E-16 kpt; spin; max resid(k); each band:
  1.65E-17 7.12E-18 4.97E-18 2.33E-20 2.84E-18 1.19E-16
  -0.4167  0.5000  0.0000    1  7.88531E-17 kpt; spin; max resid(k); each band:
  7.89E-17 6.55E-18 3.63E-18 7.99E-21 3.29E-18 2.10E-18
  -0.3333  0.5000  0.0833    1  6.82472E-17 kpt; spin; max resid(k); each band:
  6.82E-17 1.17E-17 8.99E-18 5.03E-18 2.06E-17 4.58E-17
  -0.2500  0.5000  0.1667    1  1.36263E-14 kpt; spin; max resid(k); each band:
  1.28E-17 1.86E-17 4.28E-18 1.89E-17 3.36E-16 1.36E-14
  -0.0833  0.0000  0.0000    1  2.75297E-06 kpt; spin; max resid(k); each band:
  3.96E-20 2.78E-18 4.33E-19 4.79E-19 1.58E-19 2.75E-06
  -0.2500  0.0000  0.0000    1  2.36289E-10 kpt; spin; max resid(k); each band:
  1.16E-18 1.13E-19 5.58E-19 5.58E-19 2.45E-16 2.36E-10
  -0.4167  0.0000  0.0000    1  3.88952E-11 kpt; spin; max resid(k); each band:
  2.49E-18 7.32E-19 1.14E-19 1.14E-19 2.18E-15 3.89E-11
 reduced coordinates (array xred) for    2 atoms
       0.000000000000      0.000000000000      0.000000000000
       0.250000000000      0.250000000000      0.250000000000
 rms dE/dt=  0.0000E+00; max dE/dt=  0.0000E+00; dE/dt below (all hartree)
    1       0.000000000000      0.000000000000      0.000000000000
    2       0.000000000000      0.000000000000      0.000000000000

 cartesian coordinates (angstrom) at end:
    1      0.00000000000000     0.00000000000000     0.00000000000000
    2      0.89175000000000     0.89175000000000     0.89175000000000

 cartesian forces (hartree/bohr) at end:
    1     -0.00000000000000    -0.00000000000000    -0.00000000000000
    2     -0.00000000000000    -0.00000000000000    -0.00000000000000
 frms,max,avg= 0.0000000E+00 0.0000000E+00   0.000E+00  0.000E+00  0.000E+00 h/b

 cartesian forces (eV/Angstrom) at end:
    1     -0.00000000000000    -0.00000000000000    -0.00000000000000
    2     -0.00000000000000    -0.00000000000000    -0.00000000000000
 frms,max,avg= 0.0000000E+00 0.0000000E+00   0.000E+00  0.000E+00  0.000E+00 e/A
 length scales=  6.740653116003  6.740653116003  6.740653116003 bohr
              =  3.567000000000  3.567000000000  3.567000000000 angstroms
 Fermi (or HOMO) energy (hartree) =   0.40118   Average Vxc (hartree)=  -0.49510
 Eigenvalues (hartree) for nkpt=  28  k points:
 kpt#   1, nband=  6, wtk=  0.02778, kpt= -0.0833 -0.1667  0.0000 (reduced coord)
  -0.34456   0.30774   0.35014   0.37892   0.62036   0.69725
 kpt#   2, nband=  6, wtk=  0.02778, kpt= -0.0833 -0.3333  0.0000 (reduced coord)
  -0.27065   0.10847   0.30525   0.32724   0.67993   0.75157
 kpt#   3, nband=  6, wtk=  0.02778, kpt= -0.1667 -0.2500  0.0000 (reduced coord)
  -0.30726   0.24367   0.29109   0.31655   0.60235   0.78248
 kpt#   4, nband=  6, wtk=  0.05556, kpt= -0.0833 -0.2500  0.0833 (reduced coord)
  -0.28886   0.18090   0.26024   0.33995   0.66057   0.75253
 kpt#   5, nband=  6, wtk=  0.02778, kpt= -0.0833  0.5000  0.0000 (reduced coord)
  -0.15806  -0.06268   0.28720   0.29766   0.70715   0.74431
 kpt#   6, nband=  6, wtk=  0.02778, kpt= -0.1667 -0.4167  0.0000 (reduced coord)
  -0.21685   0.05679   0.25773   0.26438   0.65648   0.81356
 kpt#   7, nband=  6, wtk=  0.05556, kpt= -0.0833 -0.4167  0.0833 (reduced coord)
  -0.18349  -0.00516   0.24154   0.28811   0.70602   0.74729
 kpt#   8, nband=  6, wtk=  0.02778, kpt= -0.2500 -0.3333  0.0000 (reduced coord)
  -0.25212   0.18052   0.24008   0.24120   0.58708   0.75376
 kpt#   9, nband=  6, wtk=  0.05556, kpt= -0.1667 -0.3333  0.0833 (reduced coord)
  -0.23428   0.12658   0.20903   0.26796   0.64645   0.79765
 kpt#  10, nband=  6, wtk=  0.05556, kpt= -0.0833 -0.3333  0.1667 (reduced coord)
  -0.19940   0.07069   0.16485   0.28308   0.72503   0.74532
 kpt#  11, nband=  6, wtk=  0.02778, kpt= -0.0833  0.3333  0.0000 (reduced coord)
  -0.23486   0.04402   0.28131   0.32763   0.71906   0.72687
 kpt#  12, nband=  6, wtk=  0.02778, kpt= -0.1667  0.4167  0.0000 (reduced coord)
  -0.14151  -0.04566   0.21346   0.28151   0.68778   0.78585
[...]
 kpt#  21, nband=  6, wtk=  0.02778, kpt= -0.2500  0.3333  0.0000 (reduced coord)
  -0.14988   0.02502   0.12426   0.27198   0.67488   0.82342
 kpt#  22, nband=  6, wtk=  0.02778, kpt= -0.3333  0.4167  0.0000 (reduced coord)
  -0.07555  -0.00455   0.08512   0.21836   0.62125   0.80737
 kpt#  23, nband=  6, wtk=  0.02778, kpt= -0.4167  0.5000  0.0000 (reduced coord)
  -0.09443   0.00175   0.16145   0.18811   0.58664   0.62775
 kpt#  24, nband=  6, wtk=  0.05556, kpt= -0.3333  0.5000  0.0833 (reduced coord)
  -0.08093   0.00657   0.11799   0.17752   0.63354   0.70834
 kpt#  25, nband=  6, wtk=  0.05556, kpt= -0.2500  0.5000  0.1667 (reduced coord)
  -0.06098   0.00345   0.09415   0.15225   0.72573   0.80513
 kpt#  26, nband=  6, wtk=  0.00926, kpt= -0.0833  0.0000  0.0000 (reduced coord)
  -0.36335   0.36845   0.40119   0.40119   0.63209   0.63209
 kpt#  27, nband=  6, wtk=  0.00926, kpt= -0.2500  0.0000  0.0000 (reduced coord)
  -0.30733   0.17293   0.34904   0.34904   0.69684   0.69684
 kpt#  28, nband=  6, wtk=  0.00926, kpt= -0.4167  0.0000  0.0000 (reduced coord)
  -0.20095  -0.02089   0.31493   0.31493   0.72033   0.72033
 Total charge density [el/Bohr^3]
,     Maximum=    2.7544E-01  at reduced coord.    0.0667    0.0667    0.8000
,Next maximum=    2.7544E-01  at reduced coord.    0.0667    0.8000    0.0667
,     Minimum=    1.3733E-02  at reduced coord.    0.5000    0.5000    0.5000
,Next minimum=    1.3902E-02  at reduced coord.    0.7667    0.7333    0.7333
,  Integrated=    8.0000E+00

--------------------------------------------------------------------------------
 Components of total free energy (in Hartree) :

    Kinetic energy  =  6.41066442075185E+00
    Hartree energy  =  9.63509714299289E-01
    XC energy       = -3.53234143921226E+00
    Ewald energy    = -1.27864121210521E+01
    PspCore energy  =  5.41017918797015E-01
    Loc. psp. energy= -5.26647440455675E+00
    Spherical terms =  2.14545373050018E+00
    >>>>>>>>> Etotal= -1.15245821804728E+01

 "Double-counting" decomposition of free energy:
    Band energy     =  6.87972867681559E-01
    Ewald energy    = -1.27864121210521E+01
    PspCore energy  =  5.41017918797015E-01
    Dble-C XC-energy=  1.22141713340748E-01
    Spherical terms = -8.93026944833286E-02
    >>>> Etotal (DC)= -1.15245823157161E+01

  >Total energy in eV           = -3.13599829538960E+02
  >Total DC energy in eV        = -3.13599833219118E+02
--------------------------------------------------------------------------------

 Cartesian components of stress tensor (hartree/bohr^3)
  sigma(1 1)=  4.18216296E-04  sigma(3 2)=  0.00000000E+00
  sigma(2 2)=  4.18216296E-04  sigma(3 1)=  0.00000000E+00
  sigma(3 3)=  4.18216296E-04  sigma(2 1)=  0.00000000E+00

-Cartesian components of stress tensor (GPa)         [Pressure= -1.2304E+01 GPa]
- sigma(1 1)=  1.23043462E+01  sigma(3 2)=  0.00000000E+00
- sigma(2 2)=  1.23043462E+01  sigma(3 1)=  0.00000000E+00
- sigma(3 3)=  1.23043462E+01  sigma(2 1)=  0.00000000E+00

== END DATASET(S) ==============================================================
================================================================================
  
 -outvars: echo values of variables after computation  --------
            acell      6.7406531160E+00  6.7406531160E+00  6.7406531160E+00 Bohr
              amu      1.20110000E+01
             ecut      1.20000000E+01 Hartree
           ecutsm      5.00000000E-01 Hartree
           etotal1    -1.1524629595E+01
           etotal2    -1.1524595840E+01
           etotal3    -1.1524585370E+01
           etotal4    -1.1524580630E+01
           etotal5    -1.1524584720E+01
           etotal6    -1.1524583573E+01
           etotal7    -1.1524582786E+01
           etotal8    -1.1524582633E+01
           etotal9    -1.1524582213E+01
           etotal10   -1.1524582316E+01
            fcart1    -0.0000000000E+00 -0.0000000000E+00 -0.0000000000E+00
                      -0.0000000000E+00 -0.0000000000E+00 -0.0000000000E+00
            fcart2    -7.8020224613E-32 -7.8020224613E-32 -1.7944651661E-30
                       7.8020224613E-32  7.8020224613E-32  1.7944651661E-30
            fcart3    -0.0000000000E+00 -0.0000000000E+00 -0.0000000000E+00
                      -0.0000000000E+00 -0.0000000000E+00 -0.0000000000E+00
            fcart4    -0.0000000000E+00 -0.0000000000E+00 -0.0000000000E+00
                      -0.0000000000E+00 -0.0000000000E+00 -0.0000000000E+00
            fcart5    -0.0000000000E+00 -0.0000000000E+00 -0.0000000000E+00
                      -0.0000000000E+00 -0.0000000000E+00 -0.0000000000E+00
            fcart6    -0.0000000000E+00 -0.0000000000E+00 -0.0000000000E+00
                      -0.0000000000E+00 -0.0000000000E+00 -0.0000000000E+00
            fcart7    -0.0000000000E+00 -0.0000000000E+00 -0.0000000000E+00
                      -0.0000000000E+00 -0.0000000000E+00 -0.0000000000E+00
            fcart8    -0.0000000000E+00 -0.0000000000E+00 -0.0000000000E+00
                      -0.0000000000E+00 -0.0000000000E+00 -0.0000000000E+00
            fcart9    -0.0000000000E+00 -0.0000000000E+00 -0.0000000000E+00
                      -0.0000000000E+00 -0.0000000000E+00 -0.0000000000E+00
            fcart10   -0.0000000000E+00 -0.0000000000E+00 -0.0000000000E+00
                      -0.0000000000E+00 -0.0000000000E+00 -0.0000000000E+00
-          fftalg         112
           getwfk          -1
              ixc           7
           jdtset        1    2    3    4    5    6    7    8    9   10
              kpt     -8.33333333E-02 -1.66666667E-01  0.00000000E+00
                      -8.33333333E-02 -3.33333333E-01  0.00000000E+00
                      -1.66666667E-01 -2.50000000E-01  0.00000000E+00
                      -8.33333333E-02 -2.50000000E-01  8.33333333E-02
                      -8.33333333E-02  5.00000000E-01  0.00000000E+00
                      -1.66666667E-01 -4.16666667E-01  0.00000000E+00
                      -8.33333333E-02 -4.16666667E-01  8.33333333E-02
                      -2.50000000E-01 -3.33333333E-01  0.00000000E+00
                      -1.66666667E-01 -3.33333333E-01  8.33333333E-02
                      -8.33333333E-02 -3.33333333E-01  1.66666667E-01
                      -8.33333333E-02  3.33333333E-01  0.00000000E+00
                      -1.66666667E-01  4.16666667E-01  0.00000000E+00
                      -2.50000000E-01  5.00000000E-01  0.00000000E+00
                      -1.66666667E-01  5.00000000E-01  8.33333333E-02
                      -3.33333333E-01 -4.16666667E-01  0.00000000E+00
                      -2.50000000E-01 -4.16666667E-01  8.33333333E-02
                      -1.66666667E-01 -4.16666667E-01  1.66666667E-01
                      -8.33333333E-02 -4.16666667E-01  2.50000000E-01
                      -8.33333333E-02  1.66666667E-01  0.00000000E+00
                      -1.66666667E-01  2.50000000E-01  0.00000000E+00
                      -2.50000000E-01  3.33333333E-01  0.00000000E+00
                      -3.33333333E-01  4.16666667E-01  0.00000000E+00
                      -4.16666667E-01  5.00000000E-01  0.00000000E+00
                      -3.33333333E-01  5.00000000E-01  8.33333333E-02
                      -2.50000000E-01  5.00000000E-01  1.66666667E-01
                      -8.33333333E-02  0.00000000E+00  0.00000000E+00
                      -2.50000000E-01  0.00000000E+00  0.00000000E+00
                      -4.16666667E-01  0.00000000E+00  0.00000000E+00
         kptrlatt        6   -6    6     -6    6    6     -6   -6    6
          kptrlen      4.04439187E+01
P           mkmem          28
            natom           2
            nband           6
           ndtset          10
            ngfft          16      16      16
          ngfftdg1         16      16      16
          ngfftdg2         18      18      18
          ngfftdg3         20      20      20
          ngfftdg4         20      20      20
          ngfftdg5         24      24      24
          ngfftdg6         24      24      24
          ngfftdg7         24      24      24
          ngfftdg8         27      27      27
          ngfftdg9         27      27      27
          ngfftdg10        30      30      30
             nkpt          28
            nstep          20
             nsym          48
           ntypat           1
              occ      2.000000  2.000000  2.000000  2.000000  0.000000  0.000000
        pawecutdg1     1.20000000E+01 Hartree
        pawecutdg2     1.50000000E+01 Hartree
        pawecutdg3     1.80000000E+01 Hartree
        pawecutdg4     2.10000000E+01 Hartree
        pawecutdg5     2.40000000E+01 Hartree
        pawecutdg6     2.70000000E+01 Hartree
        pawecutdg7     3.00000000E+01 Hartree
        pawecutdg8     3.30000000E+01 Hartree
        pawecutdg9     3.60000000E+01 Hartree
        pawecutdg10    3.90000000E+01 Hartree
           prtden           0
           prteig           0
            rprim      0.0000000000E+00  5.0000000000E-01  5.0000000000E-01
                       5.0000000000E-01  0.0000000000E+00  5.0000000000E-01
                       5.0000000000E-01  5.0000000000E-01  0.0000000000E+00
           shiftk      5.00000000E-01  5.00000000E-01  5.00000000E-01
          spgroup         227
           strten1     4.1302238823E-04  4.1302238823E-04  4.1302238823E-04
                       0.0000000000E+00  0.0000000000E+00  0.0000000000E+00
           strten2     4.1873102627E-04  4.1873102627E-04  4.1873102627E-04
                       0.0000000000E+00  0.0000000000E+00  0.0000000000E+00
           strten3     4.2218739885E-04  4.2218739885E-04  4.2218739885E-04
                       0.0000000000E+00  0.0000000000E+00  0.0000000000E+00
           strten4     4.2214850914E-04  4.2214850914E-04  4.2214850914E-04
                       0.0000000000E+00  0.0000000000E+00  0.0000000000E+00
           strten5     4.1687293414E-04  4.1687293414E-04  4.1687293414E-04
                       0.0000000000E+00  0.0000000000E+00  0.0000000000E+00
           strten6     4.1678613686E-04  4.1678613686E-04  4.1678613686E-04
                       0.0000000000E+00  0.0000000000E+00  0.0000000000E+00
           strten7     4.1689530624E-04  4.1689530624E-04  4.1689530624E-04
                       0.0000000000E+00  0.0000000000E+00  0.0000000000E+00
           strten8     4.1769749313E-04  4.1769749313E-04  4.1769749313E-04
                       0.0000000000E+00  0.0000000000E+00  0.0000000000E+00
           strten9     4.1767849700E-04  4.1767849700E-04  4.1767849700E-04
                       0.0000000000E+00  0.0000000000E+00  0.0000000000E+00
           strten10    4.1821629567E-04  4.1821629567E-04  4.1821629567E-04
                       0.0000000000E+00  0.0000000000E+00  0.0000000000E+00
           symrel      1  0  0   0  1  0   0  0  1      -1  0  0   0 -1  0   0  0 -1
                       0 -1  1   0 -1  0   1 -1  0       0  1 -1   0  1  0  -1  1  0
                      -1  0  0  -1  0  1  -1  1  0       1  0  0   1  0 -1   1 -1  0
                       0  1 -1   1  0 -1   0  0 -1       0 -1  1  -1  0  1   0  0  1
                      -1  0  0  -1  1  0  -1  0  1       1  0  0   1 -1  0   1  0 -1
                       0 -1  1   1 -1  0   0 -1  0       0  1 -1  -1  1  0   0  1  0
                       1  0  0   0  0  1   0  1  0      -1  0  0   0  0 -1   0 -1  0
                       0  1 -1   0  0 -1   1  0 -1       0 -1  1   0  0  1  -1  0  1
                      -1  0  1  -1  1  0  -1  0  0       1  0 -1   1 -1  0   1  0  0
                       0 -1  0   1 -1  0   0 -1  1       0  1  0  -1  1  0   0  1 -1
                       1  0 -1   0  0 -1   0  1 -1      -1  0  1   0  0  1   0 -1  1
                       0  1  0   0  0  1   1  0  0       0 -1  0   0  0 -1  -1  0  0
                       1  0 -1   0  1 -1   0  0 -1      -1  0  1   0 -1  1   0  0  1
                       0 -1  0   0 -1  1   1 -1  0       0  1  0   0  1 -1  -1  1  0
                      -1  0  1  -1  0  0  -1  1  0       1  0 -1   1  0  0   1 -1  0
                       0  1  0   1  0  0   0  0  1       0 -1  0  -1  0  0   0  0 -1
                       0  0 -1   0  1 -1   1  0 -1       0  0  1   0 -1  1  -1  0  1
                       1 -1  0   0 -1  1   0 -1  0      -1  1  0   0  1 -1   0  1  0
                       0  0  1   1  0  0   0  1  0       0  0 -1  -1  0  0   0 -1  0
                      -1  1  0  -1  0  0  -1  0  1       1 -1  0   1  0  0   1  0 -1
                       0  0  1   0  1  0   1  0  0       0  0 -1   0 -1  0  -1  0  0
                       1 -1  0   0 -1  0   0 -1  1      -1  1  0   0  1  0   0  1 -1
                       0  0 -1   1  0 -1   0  1 -1       0  0  1  -1  0  1   0 -1  1
                      -1  1  0  -1  0  1  -1  0  0       1 -1  0   1  0 -1   1  0  0
            tnons      0.0000000  0.0000000  0.0000000     0.2500000  0.2500000  0.2500000
                       0.0000000  0.0000000  0.0000000     0.2500000  0.2500000  0.2500000
                       0.0000000  0.0000000  0.0000000     0.2500000  0.2500000  0.2500000
                       0.0000000  0.0000000  0.0000000     0.2500000  0.2500000  0.2500000
                       0.0000000  0.0000000  0.0000000     0.2500000  0.2500000  0.2500000
                       0.0000000  0.0000000  0.0000000     0.2500000  0.2500000  0.2500000
                       0.0000000  0.0000000  0.0000000     0.2500000  0.2500000  0.2500000
                       0.0000000  0.0000000  0.0000000     0.2500000  0.2500000  0.2500000
                       0.0000000  0.0000000  0.0000000     0.2500000  0.2500000  0.2500000
                       0.0000000  0.0000000  0.0000000     0.2500000  0.2500000  0.2500000
                       0.0000000  0.0000000  0.0000000     0.2500000  0.2500000  0.2500000
                       0.0000000  0.0000000  0.0000000     0.2500000  0.2500000  0.2500000
                       0.0000000  0.0000000  0.0000000     0.2500000  0.2500000  0.2500000
                       0.0000000  0.0000000  0.0000000     0.2500000  0.2500000  0.2500000
                       0.0000000  0.0000000  0.0000000     0.2500000  0.2500000  0.2500000
                       0.0000000  0.0000000  0.0000000     0.2500000  0.2500000  0.2500000
                       0.0000000  0.0000000  0.0000000     0.2500000  0.2500000  0.2500000
                       0.0000000  0.0000000  0.0000000     0.2500000  0.2500000  0.2500000
                       0.0000000  0.0000000  0.0000000     0.2500000  0.2500000  0.2500000
                       0.0000000  0.0000000  0.0000000     0.2500000  0.2500000  0.2500000
                       0.0000000  0.0000000  0.0000000     0.2500000  0.2500000  0.2500000
                       0.0000000  0.0000000  0.0000000     0.2500000  0.2500000  0.2500000
                       0.0000000  0.0000000  0.0000000     0.2500000  0.2500000  0.2500000
                       0.0000000  0.0000000  0.0000000     0.2500000  0.2500000  0.2500000
           tolvrs      1.00000000E-10
            typat      1  1
           useylm           1
              wtk        0.02778    0.02778    0.02778    0.05556    0.02778    0.02778
                         0.05556    0.02778    0.05556    0.05556    0.02778    0.02778
                         0.02778    0.05556    0.02778    0.05556    0.05556    0.05556
                         0.02778    0.02778    0.02778    0.02778    0.02778    0.05556
                         0.05556    0.00926    0.00926    0.00926
           xangst      0.0000000000E+00  0.0000000000E+00  0.0000000000E+00
                       8.9175000000E-01  8.9175000000E-01  8.9175000000E-01
            xcart      0.0000000000E+00  0.0000000000E+00  0.0000000000E+00
                       1.6851632790E+00  1.6851632790E+00  1.6851632790E+00
             xred      0.0000000000E+00  0.0000000000E+00  0.0000000000E+00
                       2.5000000000E-01  2.5000000000E-01  2.5000000000E-01
            znucl        6.00000

================================================================================


- Timing analysis has been suppressed with timopt=0



================================================================================

 Suggested references for the acknowledgment of ABINIT usage.

 The users of ABINIT have little formal obligations with respect to the ABINIT group
 (those specified in the GNU General Public License, http://www.gnu.org/copyleft/gpl.txt).
 However, it is common practice in the scientific literature,
 to acknowledge the efforts of people that have made the research possible.
 In this spirit, please find below suggested citations of work written by ABINIT developers,
 corresponding to implementations inside of ABINIT that you have used in the present run.
 Note also that it will be of great value to readers of publications presenting these results,
 to read papers enabling them to understand the theoretical formalism and details
 of the ABINIT implementation.
 For information on why they are suggested, see also http://www.abinit.org/about/?text=acknowledgments.

 [1] Implementation of the Projector Augmented-Wave Method in the ABINIT code.
 M. Torrent, F. Jollet, F. Bottin, G. Zerah, and X. Gonze Comput. Mat. Science 42, 337, (2008).
 Comment : PAW calculations. Strong suggestion to cite this paper.

 [2] ABINIT : First-principles approach of materials and nanosystem properties.
 X. Gonze, B. Amadon, P.-M. Anglade, J.-M. Beuken, F. Bottin, P. Boulanger, F. Bruneval,
 D. Caliste, R. Caracas, M. Cote, T. Deutsch, L. Genovese, Ph. Ghosez, M. Giantomassi
 S. Goedecker, D.R. Hamann, P. Hermet, F. Jollet, G. Jomard, S. Leroux, M. Mancini, S. Mazevet,
 M.J.T. Oliveira, G. Onida, Y. Pouillon, T. Rangel, G.-M. Rignanese, D. Sangalli, R. Shaltaf,
 M. Torrent, M.J. Verstraete, G. Zerah, J.W. Zwanziger
 Computer Phys. Comm. 180, 2582-2615 (2009).
 Comment : the third generic paper describing the ABINIT project.
 Note that a version of this paper, that is not formatted for Computer Phys. Comm. 
 is available at http://www.abinit.org/about/ABINIT_CPC_v10.pdf .
 The licence allows the authors to put it on the Web.

 [3] A brief introduction to the ABINIT software package.
 X. Gonze, G.-M. Rignanese, M. Verstraete, J.-M. Beuken, Y. Pouillon, R. Caracas, F. Jollet,
 M. Torrent, G. Zerah, M. Mikami, Ph. Ghosez, M. Veithen, J.-Y. Raty, V. Olevano, F. Bruneval,
 L. Reining, R. Godby, G. Onida, D.R. Hamann, and D.C. Allan.
 Z. Kristallogr. 220, 558-562 (2005).
 Comment : the second generic paper describing the ABINIT project. Note that this paper
 should be cited especially if you are using the GW part of ABINIT, as several authors
 of this part are not in the list of authors of the first or third paper.
 The .pdf of the latter paper is available at http://www.abinit.org/about/zfk_0505-06_558-562.pdf.
 Note that it should not redistributed (Copyright by Oldenburg Wissenshaftverlag,
 the licence allows the authors to put it on the Web).


 And optionally :

 [4] First-principles computation of material properties : the ABINIT software project. 
 X. Gonze, J.-M. Beuken, R. Caracas, F. Detraux, M. Fuchs, G.-M. Rignanese, L. Sindic,
 M. Verstraete, G. Zerah, F. Jollet, M. Torrent, A. Roy, M. Mikami, Ph. Ghosez, J.-Y. Raty, D.C. Allan.
 Computational Materials Science 25, 478-492 (2002). http://dx.doi.org/10.1016/S0927-0256(02)00325-7
 Comment : the original paper describing the ABINIT project.

 [5] Fast radix 2, 3, 4 and 5 kernels for Fast Fourier Transformations
 on computers with overlapping multiply-add instructions.
 S. Goedecker, SIAM J. on Scientific Computing 18, 1605 (1997).
-
- Proc.   0 individual time (sec): cpu=         13.2  wall=         13.2

================================================================================

 Calculation completed.
.Delivered   37 WARNINGs and   4 COMMENTs to log file.
+Overall time at end (sec) : cpu=         13.2  wall=         13.2
