
.Version 7.9.3 of ABINIT 
.(MPI version, prepared for a x86_64_linux_gnu4.7 computer) 

.Copyright (C) 1998-2014 ABINIT group . 
 ABINIT comes with ABSOLUTELY NO WARRANTY.
 It is free software, and you are welcome to redistribute it
 under certain conditions (GNU General Public License,
 see ~abinit/COPYING or http://www.gnu.org/copyleft/gpl.txt).

 ABINIT is a project of the Universite Catholique de Louvain,
 Corning Inc. and other collaborators, see ~abinit/doc/developers/contributors.txt .
 Please read ~abinit/doc/users/acknowledgments.html for suggested
 acknowledgments of the ABINIT effort.
 For more information, see http://www.abinit.org .

.Starting date : Sat 30 Aug 2014.
- ( at 22h42 )
  
- input  file    -> t04.in
- output file    -> t04.out
- root for input  files -> t04i
- root for output files -> t04o


 DATASET    1 : space group Fd -3 m (#227); Bravais cF (face-center cubic)
================================================================================
 Values of the parameters that define the memory need for DATASET  1.
   intxc =         0  ionmov =         0    iscf =         7 xclevel =         1
  lmnmax =         1   lnmax =         1   mband =         5  mffmem =         1
P  mgfft =        15   mkmem =        10 mpssoang=         2     mpw =        87
  mqgrid =      3001   natom =         2    nfft =      3375    nkpt =        10
  nloalg =         4  nspden =         1 nspinor =         1  nsppol =         1
    nsym =        48  n1xccc =      2501  ntypat =         1  occopt =         1
================================================================================
P This job should need less than                       1.531 Mbytes of memory.
  Rough estimation (10% accuracy) of disk space for files :
_ WF disk file :      0.068 Mbytes ; DEN or POT disk file :      0.028 Mbytes.
================================================================================


 DATASET    2 : space group Fd -3 m (#227); Bravais cF (face-center cubic)
================================================================================
 Values of the parameters that define the memory need for DATASET  2.
   intxc =         0  ionmov =         0    iscf =        -2 xclevel =         1
  lmnmax =         1   lnmax =         1   mband =        20  mffmem =         1
P  mgfft =        15   mkmem =         6 mpssoang=         2     mpw =        92
  mqgrid =      3001   natom =         2    nfft =      3375    nkpt =         6
  nloalg =         4  nspden =         1 nspinor =         1  nsppol =         1
    nsym =        48  n1xccc =      2501  ntypat =         1  occopt =         1
================================================================================
P This job should need less than                       1.241 Mbytes of memory.
  Rough estimation (10% accuracy) of disk space for files :
_ WF disk file :      0.170 Mbytes ; DEN or POT disk file :      0.028 Mbytes.
================================================================================


 DATASET    3 : space group Fd -3 m (#227); Bravais cF (face-center cubic)
================================================================================
 Values of the parameters that define the memory need for DATASET  3.
   intxc =         0  ionmov =         0    iscf =         7 xclevel =         1
  lmnmax =         1   lnmax =         1   mband =        20  mffmem =         1
P  mgfft =        12   mkmem =         6 mpssoang=         2     mpw =        70
  mqgrid =      3001   natom =         2    nfft =      1728    nkpt =         6
  nloalg =         4  nspden =         1 nspinor =         1  nsppol =         1
    nsym =        48  n1xccc =      2501  ntypat =         1  occopt =         1
================================================================================
P This job should need less than                       1.166 Mbytes of memory.
  Rough estimation (10% accuracy) of disk space for files :
_ WF disk file :      0.130 Mbytes ; DEN or POT disk file :      0.015 Mbytes.
================================================================================


 DATASET    4 : space group Fd -3 m (#227); Bravais cF (face-center cubic)
================================================================================
 Values of the parameters that define the memory need for DATASET  4.
   intxc =         0  ionmov =         0    iscf =         7 xclevel =         1
  lmnmax =         1   lnmax =         1   mband =        20  mffmem =         1
P  mgfft =        12   mkmem =         6 mpssoang=         2     mpw =        70
  mqgrid =      3001   natom =         2    nfft =      1728    nkpt =         6
  nloalg =         4  nspden =         1 nspinor =         1  nsppol =         1
    nsym =        48  n1xccc =      2501  ntypat =         1  occopt =         1
================================================================================
P This job should need less than                       1.166 Mbytes of memory.
  Rough estimation (10% accuracy) of disk space for files :
_ WF disk file :      0.130 Mbytes ; DEN or POT disk file :      0.015 Mbytes.
================================================================================

--------------------------------------------------------------------------------
------------- Echo of variables that govern the present computation ------------
--------------------------------------------------------------------------------
-
- outvars: echo of selected default values                                      
-   accesswff0 =  0 , fftalg0 =112 , wfoptalg0 =  0
-
- outvars: echo of global parameters not present in the input file              
-  max_nthreads =    0
-
 -outvars: echo values of preprocessed input variables --------
            acell      6.7406530879E+00  6.7406530879E+00  6.7406530879E+00 Bohr
              amu      1.20110000E+01
             bdgw4          1       8       1       8       1       8       1       8
                            1       8       1       8
           diemac      1.20000000E+01
             ecut1     8.00000000E+00 Hartree
             ecut2     8.00000000E+00 Hartree
             ecut3     6.95097571E+00 Hartree
             ecut4     6.95097571E+00 Hartree
          ecuteps1     0.00000000E+00 Hartree
          ecuteps2     0.00000000E+00 Hartree
          ecuteps3     3.47548785E+00 Hartree
          ecuteps4     3.47548785E+00 Hartree
         ecutsigx1     0.00000000E+00 Hartree
         ecutsigx2     0.00000000E+00 Hartree
         ecutsigx3     0.00000000E+00 Hartree
         ecutsigx4     3.47548785E+00 Hartree
          ecutwfn1     8.00000000E+00 Hartree
          ecutwfn2     8.00000000E+00 Hartree
          ecutwfn3     6.95097571E+00 Hartree
          ecutwfn4     6.95097571E+00 Hartree
           enunit           1
-          fftalg         112
           getden1          0
           getden2         -1
           getden3          0
           getden4          0
           getkss1          0
           getkss2          0
           getkss3          2
           getkss4          2
           getscr1          0
           getscr2          0
           getscr3          0
           getscr4         -1
        gwcalctyp1          0
        gwcalctyp2          0
        gwcalctyp3          0
        gwcalctyp4         28
           gwpara           2
         icutcoul1          6
         icutcoul2          6
         icutcoul3          6
         icutcoul4          3
          inclvkb1          1
          inclvkb2          1
          inclvkb3          2
          inclvkb4          1
             iscf1          7
             iscf2         -2
             iscf3          7
             iscf4          7
           istwfk2       0    0    1    0    1    1
           istwfk3       0    0    1    0    1    1
           istwfk4       0    0    1    0    1    1
           jdtset        1    2    3    4
              kpt1    -1.25000000E-01 -2.50000000E-01  0.00000000E+00
                      -1.25000000E-01  5.00000000E-01  0.00000000E+00
                      -2.50000000E-01 -3.75000000E-01  0.00000000E+00
                      -1.25000000E-01 -3.75000000E-01  1.25000000E-01
                      -1.25000000E-01  2.50000000E-01  0.00000000E+00
                      -2.50000000E-01  3.75000000E-01  0.00000000E+00
                      -3.75000000E-01  5.00000000E-01  0.00000000E+00
                      -2.50000000E-01  5.00000000E-01  1.25000000E-01
                      -1.25000000E-01  0.00000000E+00  0.00000000E+00
                      -3.75000000E-01  0.00000000E+00  0.00000000E+00
              kpt2    -2.50000000E-01 -2.50000000E-01  0.00000000E+00
                      -2.50000000E-01  2.50000000E-01  0.00000000E+00
                       5.00000000E-01  5.00000000E-01  0.00000000E+00
                      -2.50000000E-01  5.00000000E-01  2.50000000E-01
                       5.00000000E-01  0.00000000E+00  0.00000000E+00
                       0.00000000E+00  0.00000000E+00  0.00000000E+00
              kpt3    -2.50000000E-01 -2.50000000E-01  0.00000000E+00
                      -2.50000000E-01  2.50000000E-01  0.00000000E+00
                       5.00000000E-01  5.00000000E-01  0.00000000E+00
                      -2.50000000E-01  5.00000000E-01  2.50000000E-01
                       5.00000000E-01  0.00000000E+00  0.00000000E+00
                       0.00000000E+00  0.00000000E+00  0.00000000E+00
              kpt4    -2.50000000E-01 -2.50000000E-01  0.00000000E+00
                      -2.50000000E-01  2.50000000E-01  0.00000000E+00
                       5.00000000E-01  5.00000000E-01  0.00000000E+00
                      -2.50000000E-01  5.00000000E-01  2.50000000E-01
                       5.00000000E-01  0.00000000E+00  0.00000000E+00
                       0.00000000E+00  0.00000000E+00  0.00000000E+00
            kptgw4    -2.50000000E-01 -2.50000000E-01  0.00000000E+00
                      -2.50000000E-01  2.50000000E-01  0.00000000E+00
                       5.00000000E-01  5.00000000E-01  0.00000000E+00
                      -2.50000000E-01  5.00000000E-01  2.50000000E-01
                       5.00000000E-01  0.00000000E+00  0.00000000E+00
                       0.00000000E+00  0.00000000E+00  0.00000000E+00
         kptrlatt1       4   -4    4     -4    4    4     -4   -4    4
         kptrlatt2       2   -2    2     -2    2    2     -2   -2    2
         kptrlatt3       2   -2    2     -2    2    2     -2   -2    2
         kptrlatt4       2   -2    2     -2    2    2     -2   -2    2
          kptrlen1     2.69626124E+01
          kptrlen2     1.34813062E+01
          kptrlen3     1.34813062E+01
          kptrlen4     1.34813062E+01
          kssform1          1
          kssform2          3
          kssform3          1
          kssform4          1
P           mkmem1         10
P           mkmem2          6
P           mkmem3          6
P           mkmem4          6
            natom           2
            nband1          5
            nband2         20
            nband3         20
            nband4         20
         nbandkss1          0
         nbandkss2         20
         nbandkss3          0
         nbandkss4          0
           nbdbuf1          0
           nbdbuf2          2
           nbdbuf3          0
           nbdbuf4          0
           ndtset           4
            ngfft1         15      15      15
            ngfft2         15      15      15
            ngfft3         12      12      12
            ngfft4         12      12      12
             nkpt1         10
             nkpt2          6
             nkpt3          6
             nkpt4          6
           nkptgw1          0
           nkptgw2          0
           nkptgw3          0
           nkptgw4          6
           npweps1          0
           npweps2          0
           npweps3         27
           npweps4         27
          npwsigx1          0
          npwsigx2          0
          npwsigx3          0
          npwsigx4         27
           npwwfn1          0
           npwwfn2          0
           npwwfn3         65
           npwwfn4         65
           nsheps1          0
           nsheps2          0
           nsheps3          4
           nsheps4          4
          nshsigx1          0
          nshsigx2          0
          nshsigx3          0
          nshsigx4          4
            nstep         250
             nsym          48
           ntypat           1
              occ1     2.000000  2.000000  2.000000  2.000000  0.000000
              occ3     2.000000  2.000000  2.000000  2.000000  0.000000  0.000000
                       0.000000  0.000000  0.000000  0.000000  0.000000  0.000000
                       0.000000  0.000000  0.000000  0.000000  0.000000  0.000000
                       0.000000  0.000000
              occ4     2.000000  2.000000  2.000000  2.000000  0.000000  0.000000
                       0.000000  0.000000  0.000000  0.000000  0.000000  0.000000
                       0.000000  0.000000  0.000000  0.000000  0.000000  0.000000
                       0.000000  0.000000
        optdriver1          0
        optdriver2          0
        optdriver3          3
        optdriver4          4
            rprim      0.0000000000E+00  5.0000000000E-01  5.0000000000E-01
                       5.0000000000E-01  0.0000000000E+00  5.0000000000E-01
                       5.0000000000E-01  5.0000000000E-01  0.0000000000E+00
           shiftk1     5.00000000E-01  5.00000000E-01  5.00000000E-01
           shiftk2     0.00000000E+00  0.00000000E+00  0.00000000E+00
           shiftk3     0.00000000E+00  0.00000000E+00  0.00000000E+00
           shiftk4     0.00000000E+00  0.00000000E+00  0.00000000E+00
          spgroup         227
           symchi1       0
           symchi2       0
           symchi3       1
           symchi4       0
           symrel      1  0  0   0  1  0   0  0  1      -1  0  0   0 -1  0   0  0 -1
                       0 -1  1   0 -1  0   1 -1  0       0  1 -1   0  1  0  -1  1  0
                      -1  0  0  -1  0  1  -1  1  0       1  0  0   1  0 -1   1 -1  0
                       0  1 -1   1  0 -1   0  0 -1       0 -1  1  -1  0  1   0  0  1
                      -1  0  0  -1  1  0  -1  0  1       1  0  0   1 -1  0   1  0 -1
                       0 -1  1   1 -1  0   0 -1  0       0  1 -1  -1  1  0   0  1  0
                       1  0  0   0  0  1   0  1  0      -1  0  0   0  0 -1   0 -1  0
                       0  1 -1   0  0 -1   1  0 -1       0 -1  1   0  0  1  -1  0  1
                      -1  0  1  -1  1  0  -1  0  0       1  0 -1   1 -1  0   1  0  0
                       0 -1  0   1 -1  0   0 -1  1       0  1  0  -1  1  0   0  1 -1
                       1  0 -1   0  0 -1   0  1 -1      -1  0  1   0  0  1   0 -1  1
                       0  1  0   0  0  1   1  0  0       0 -1  0   0  0 -1  -1  0  0
                       1  0 -1   0  1 -1   0  0 -1      -1  0  1   0 -1  1   0  0  1
                       0 -1  0   0 -1  1   1 -1  0       0  1  0   0  1 -1  -1  1  0
                      -1  0  1  -1  0  0  -1  1  0       1  0 -1   1  0  0   1 -1  0
                       0  1  0   1  0  0   0  0  1       0 -1  0  -1  0  0   0  0 -1
                       0  0 -1   0  1 -1   1  0 -1       0  0  1   0 -1  1  -1  0  1
                       1 -1  0   0 -1  1   0 -1  0      -1  1  0   0  1 -1   0  1  0
                       0  0  1   1  0  0   0  1  0       0  0 -1  -1  0  0   0 -1  0
                      -1  1  0  -1  0  0  -1  0  1       1 -1  0   1  0  0   1  0 -1
                       0  0  1   0  1  0   1  0  0       0  0 -1   0 -1  0  -1  0  0
                       1 -1  0   0 -1  0   0 -1  1      -1  1  0   0  1  0   0  1 -1
                       0  0 -1   1  0 -1   0  1 -1       0  0  1  -1  0  1   0 -1  1
                      -1  1  0  -1  0  1  -1  0  0       1 -1  0   1  0 -1   1  0  0
            tnons      0.0000000  0.0000000  0.0000000     0.2500000  0.2500000  0.2500000
                       0.0000000  0.0000000  0.0000000     0.2500000  0.2500000  0.2500000
                       0.0000000  0.0000000  0.0000000     0.2500000  0.2500000  0.2500000
                       0.0000000  0.0000000  0.0000000     0.2500000  0.2500000  0.2500000
                       0.0000000  0.0000000  0.0000000     0.2500000  0.2500000  0.2500000
                       0.0000000  0.0000000  0.0000000     0.2500000  0.2500000  0.2500000
                       0.0000000  0.0000000  0.0000000     0.2500000  0.2500000  0.2500000
                       0.0000000  0.0000000  0.0000000     0.2500000  0.2500000  0.2500000
                       0.0000000  0.0000000  0.0000000     0.2500000  0.2500000  0.2500000
                       0.0000000  0.0000000  0.0000000     0.2500000  0.2500000  0.2500000
                       0.0000000  0.0000000  0.0000000     0.2500000  0.2500000  0.2500000
                       0.0000000  0.0000000  0.0000000     0.2500000  0.2500000  0.2500000
                       0.0000000  0.0000000  0.0000000     0.2500000  0.2500000  0.2500000
                       0.0000000  0.0000000  0.0000000     0.2500000  0.2500000  0.2500000
                       0.0000000  0.0000000  0.0000000     0.2500000  0.2500000  0.2500000
                       0.0000000  0.0000000  0.0000000     0.2500000  0.2500000  0.2500000
                       0.0000000  0.0000000  0.0000000     0.2500000  0.2500000  0.2500000
                       0.0000000  0.0000000  0.0000000     0.2500000  0.2500000  0.2500000
                       0.0000000  0.0000000  0.0000000     0.2500000  0.2500000  0.2500000
                       0.0000000  0.0000000  0.0000000     0.2500000  0.2500000  0.2500000
                       0.0000000  0.0000000  0.0000000     0.2500000  0.2500000  0.2500000
                       0.0000000  0.0000000  0.0000000     0.2500000  0.2500000  0.2500000
                       0.0000000  0.0000000  0.0000000     0.2500000  0.2500000  0.2500000
                       0.0000000  0.0000000  0.0000000     0.2500000  0.2500000  0.2500000
           tolvrs1     1.00000000E-10
           tolvrs2     0.00000000E+00
           tolvrs3     0.00000000E+00
           tolvrs4     0.00000000E+00
           tolwfr1     0.00000000E+00
           tolwfr2     1.00000000E-10
           tolwfr3     0.00000000E+00
           tolwfr4     0.00000000E+00
            typat      1  1
              wtk1       0.09375    0.09375    0.09375    0.18750    0.09375    0.09375
                         0.09375    0.18750    0.03125    0.03125
              wtk2       0.18750    0.37500    0.09375    0.18750    0.12500    0.03125
              wtk3       0.18750    0.37500    0.09375    0.18750    0.12500    0.03125
              wtk4       0.18750    0.37500    0.09375    0.18750    0.12500    0.03125
           xangst      0.0000000000E+00  0.0000000000E+00  0.0000000000E+00
                       8.9174999628E-01  8.9174999628E-01  8.9174999628E-01
            xcart      0.0000000000E+00  0.0000000000E+00  0.0000000000E+00
                       1.6851632720E+00  1.6851632720E+00  1.6851632720E+00
             xred      0.0000000000E+00  0.0000000000E+00  0.0000000000E+00
                       2.5000000000E-01  2.5000000000E-01  2.5000000000E-01
            znucl        6.00000

================================================================================

 chkinp: Checking input parameters for consistency, jdtset=   1.

 chkinp: Checking input parameters for consistency, jdtset=   2.

 chkinp: Checking input parameters for consistency, jdtset=   3.

 chkinp: Checking input parameters for consistency, jdtset=   4.

================================================================================
== DATASET  1 ==================================================================
-   nproc =    1

 Exchange-correlation functional for the present dataset will be:
  LDA: new Teter (4/93) with spin-polarized option - ixc=1
 Citation for XC functional:
  S. Goedecker, M. Teter, J. Huetter, PRB 54, 1703 (1996)

 Real(R)+Recip(G) space primitive vectors, cartesian coordinates (Bohr,Bohr^-1):
 R(1)=  0.0000000  3.3703265  3.3703265  G(1)= -0.1483536  0.1483536  0.1483536
 R(2)=  3.3703265  0.0000000  3.3703265  G(2)=  0.1483536 -0.1483536  0.1483536
 R(3)=  3.3703265  3.3703265  0.0000000  G(3)=  0.1483536  0.1483536 -0.1483536
 Unit cell volume ucvol=  7.6567759E+01 bohr^3
 Angles (23,13,12)=  6.00000000E+01  6.00000000E+01  6.00000000E+01 degrees

 getcut: wavevector=  0.0000  0.0000  0.0000  ngfft=  15  15  15
         ecut(hartree)=      8.000   => boxcut(ratio)=   2.31865

 getcut : COMMENT -
  Note that boxcut > 2.2 ; recall that boxcut=Gcut(box)/Gcut(sphere) = 2
  is sufficient for exact treatment of convolution.
  Such a large boxcut is a waste : you could raise ecut
  e.g. ecut=   10.752291 Hartrees makes boxcut=2


--- Pseudopotential description ------------------------------------------------
- pspini: atom type   1  psp file is /home/gonze/ABINIT/ABINITv7.9.3/trunk/7.9.3-private/tests/Psps_for_tests/6c.pspnc
- pspatm: opening atomic psp file    /home/gonze/ABINIT/ABINITv7.9.3/trunk/7.9.3-private/tests/Psps_for_tests/6c.pspnc
-  Troullier-Martins psp for element  C         Thu Oct 27 17:29:33 EDT 1994
-  6.00000   4.00000    940714                znucl, zion, pspdat
    1    1    1    1      2001   0.00000      pspcod,pspxc,lmax,lloc,mmax,r2well
    0  10.372  24.987    1   1.4850707        l,e99.0,e99.9,nproj,rcpsp
   0.00000000   0.00000000   0.00000000   0.00000000     rms, ekb1, ekb2, epsatm
    1  15.431  21.987    0   1.4850707        l,e99.0,e99.9,nproj,rcpsp
   0.00000000   0.00000000   0.00000000   0.00000000     rms, ekb1, ekb2, epsatm
    0.83985002509544    0.99012430797080    0.51184907750884   rchrg,fchrg,qchrg
 pspatm: epsatm=    0.92590353
         --- l  ekb(1:nproj) -->
             0    4.921466
 pspatm: atomic psp has been read  and splines computed

   1.48144565E+01                                ecore*ucvol(ha*bohr**3)
--------------------------------------------------------------------------------

P newkpt: treating      5 bands with npw=      79 for ikpt=   1 by node    0
P newkpt: treating      5 bands with npw=      81 for ikpt=   2 by node    0
P newkpt: treating      5 bands with npw=      81 for ikpt=   3 by node    0
P newkpt: treating      5 bands with npw=      84 for ikpt=   4 by node    0
P newkpt: treating      5 bands with npw=      79 for ikpt=   5 by node    0
P newkpt: treating      5 bands with npw=      87 for ikpt=   6 by node    0
P newkpt: treating      5 bands with npw=      86 for ikpt=   7 by node    0
P newkpt: treating      5 bands with npw=      83 for ikpt=   8 by node    0
P newkpt: treating      5 bands with npw=      71 for ikpt=   9 by node    0
P newkpt: treating      5 bands with npw=      74 for ikpt=  10 by node    0

_setup2: Arith. and geom. avg. npw (full set) are      82.063      81.984

================================================================================

     iter   Etot(hartree)      deltaE(h)  residm     vres2
 ETOT  1  -11.650974376611    -1.165E+01 1.884E-02 2.343E+00
 ETOT  2  -11.653051843393    -2.077E-03 7.880E-05 1.229E-02
 ETOT  3  -11.653056786856    -4.943E-06 7.680E-05 1.653E-04
 ETOT  4  -11.653056865565    -7.871E-08 8.974E-06 2.442E-07
 ETOT  5  -11.653056865654    -8.940E-11 2.556E-05 1.090E-10
 ETOT  6  -11.653056865654    -7.283E-14 3.364E-06 2.618E-13

 At SCF step    6       vres2   =  2.62E-13 < tolvrs=  1.00E-10 =>converged.

 Cartesian components of stress tensor (hartree/bohr^3)
  sigma(1 1)=  4.47191737E-03  sigma(3 2)=  0.00000000E+00
  sigma(2 2)=  4.47191737E-03  sigma(3 1)=  0.00000000E+00
  sigma(3 3)=  4.47191737E-03  sigma(2 1)=  0.00000000E+00

================================================================================

 ----iterations are completed or convergence reached----

 Mean square residual over all n,k,spin=   7.4119E-08; max=  3.3638E-06
  -0.1250 -0.2500  0.0000    1  7.44052E-15 kpt; spin; max resid(k); each band:
  2.05E-16 7.78E-17 1.42E-18 6.15E-17 7.44E-15
  -0.1250  0.5000  0.0000    1  1.80784E-12 kpt; spin; max resid(k); each band:
  1.07E-16 1.30E-16 3.30E-17 1.62E-17 1.81E-12
  -0.2500 -0.3750  0.0000    1  3.16426E-15 kpt; spin; max resid(k); each band:
  2.76E-16 5.74E-17 6.49E-17 6.88E-18 3.16E-15
  -0.1250 -0.3750  0.1250    1  1.03502E-10 kpt; spin; max resid(k); each band:
  1.81E-16 6.25E-17 1.56E-16 5.95E-17 1.04E-10
  -0.1250  0.2500  0.0000    1  3.41942E-07 kpt; spin; max resid(k); each band:
  9.33E-17 1.26E-16 4.78E-17 3.91E-18 3.42E-07
  -0.2500  0.3750  0.0000    1  7.31008E-16 kpt; spin; max resid(k); each band:
  2.57E-17 1.67E-16 7.25E-17 1.46E-18 7.31E-16
  -0.3750  0.5000  0.0000    1  1.59339E-13 kpt; spin; max resid(k); each band:
  1.69E-16 6.95E-17 2.79E-17 7.97E-18 1.59E-13
  -0.2500  0.5000  0.1250    1  9.96769E-15 kpt; spin; max resid(k); each band:
  8.61E-17 8.22E-17 7.11E-17 2.78E-16 9.97E-15
  -0.1250  0.0000  0.0000    1  3.36382E-06 kpt; spin; max resid(k); each band:
  1.29E-16 5.40E-17 3.06E-17 4.27E-17 3.36E-06
  -0.3750  0.0000  0.0000    1  6.60237E-11 kpt; spin; max resid(k); each band:
  1.64E-16 2.19E-16 5.07E-18 5.04E-18 6.60E-11
 reduced coordinates (array xred) for    2 atoms
       0.000000000000      0.000000000000      0.000000000000
       0.250000000000      0.250000000000      0.250000000000
 rms dE/dt=  0.0000E+00; max dE/dt=  0.0000E+00; dE/dt below (all hartree)
    1       0.000000000000      0.000000000000      0.000000000000
    2       0.000000000000      0.000000000000      0.000000000000

 cartesian coordinates (angstrom) at end:
    1      0.00000000000000     0.00000000000000     0.00000000000000
    2      0.89174999627579     0.89174999627579     0.89174999627579

 cartesian forces (hartree/bohr) at end:
    1     -0.00000000000000    -0.00000000000000    -0.00000000000000
    2     -0.00000000000000    -0.00000000000000    -0.00000000000000
 frms,max,avg= 0.0000000E+00 0.0000000E+00   0.000E+00  0.000E+00  0.000E+00 h/b

 cartesian forces (eV/Angstrom) at end:
    1     -0.00000000000000    -0.00000000000000    -0.00000000000000
    2     -0.00000000000000    -0.00000000000000    -0.00000000000000
 frms,max,avg= 0.0000000E+00 0.0000000E+00   0.000E+00  0.000E+00  0.000E+00 e/A
 length scales=  6.740653087852  6.740653087852  6.740653087852 bohr
              =  3.566999985103  3.566999985103  3.566999985103 angstroms
 prteigrs : about to open file t04o_DS1_EIG
 Fermi (or HOMO) energy (eV) =  14.69972   Average Vxc (eV)= -13.81341
 Eigenvalues (   eV  ) for nkpt=  10  k points:
 kpt#   1, nband=  5, wtk=  0.09375, kpt= -0.1250 -0.2500  0.0000 (reduced coord)
  -7.36720   8.62452  11.62744  12.28197  19.97301
 kpt#   2, nband=  5, wtk=  0.09375, kpt= -0.1250  0.5000  0.0000 (reduced coord)
  -3.09916   0.49561   9.77148  10.98058  21.27303
 kpt#   3, nband=  5, wtk=  0.09375, kpt= -0.2500 -0.3750  0.0000 (reduced coord)
  -4.97016   5.84119   8.64572   9.06584  18.57055
 kpt#   4, nband=  5, wtk=  0.18750, kpt= -0.1250 -0.3750  0.1250 (reduced coord)
  -3.89520   3.33065   7.31677   9.80132  21.86420
 kpt#   5, nband=  5, wtk=  0.09375, kpt= -0.1250  0.2500  0.0000 (reduced coord)
  -6.16361   5.68179   9.52774  12.90091  22.44540
 kpt#   6, nband=  5, wtk=  0.09375, kpt= -0.2500  0.3750  0.0000 (reduced coord)
  -2.07045   1.45294   5.61504   9.73194  19.98665
 kpt#   7, nband=  5, wtk=  0.09375, kpt= -0.3750  0.5000  0.0000 (reduced coord)
  -1.63852   2.26925   6.31766   7.75585  17.86409
 kpt#   8, nband=  5, wtk=  0.18750, kpt= -0.2500  0.5000  0.1250 (reduced coord)
  -0.89819   1.84604   5.07144   7.47154  20.96178
 kpt#   9, nband=  5, wtk=  0.03125, kpt= -0.1250  0.0000  0.0000 (reduced coord)
  -8.57142  11.96668  14.69972  14.69972  21.31343
 kpt#  10, nband=  5, wtk=  0.03125, kpt= -0.3750  0.0000  0.0000 (reduced coord)
  -5.00954   2.57235  12.35235  12.35235  21.37243
 Total charge density [el/Bohr^3]
,     Maximum=    2.6413E-01  at reduced coord.    0.1333    0.1333    0.6000
,Next maximum=    2.6413E-01  at reduced coord.    0.1333    0.6000    0.1333
,     Minimum=    1.6792E-02  at reduced coord.    0.7333    0.7333    0.7333
,Next minimum=    1.6792E-02  at reduced coord.    0.8000    0.7333    0.7333
,  Integrated=    8.0000E+00

--------------------------------------------------------------------------------
 Components of total free energy (in Hartree) :

    Kinetic energy  =  7.28840801507944E+00
    Hartree energy  =  8.19404515297405E-01
    XC energy       = -4.26023994973697E+00
    Ewald energy    = -1.27864121744519E+01
    PspCore energy  =  1.93481650844766E-01
    Loc. psp. energy= -4.51306980421677E+00
    NL   psp  energy=  1.60537088152989E+00
    >>>>>>>>> Etotal= -1.16530568656541E+01

 Other information on the energy :
    Total energy(eV)= -3.17095803513723E+02 ; Band energy (Ha)=   1.3210544331E+00
--------------------------------------------------------------------------------

 Cartesian components of stress tensor (hartree/bohr^3)
  sigma(1 1)=  4.47191737E-03  sigma(3 2)=  0.00000000E+00
  sigma(2 2)=  4.47191737E-03  sigma(3 1)=  0.00000000E+00
  sigma(3 3)=  4.47191737E-03  sigma(2 1)=  0.00000000E+00

-Cartesian components of stress tensor (GPa)         [Pressure= -1.3157E+02 GPa]
- sigma(1 1)=  1.31568329E+02  sigma(3 2)=  0.00000000E+00
- sigma(2 2)=  1.31568329E+02  sigma(3 1)=  0.00000000E+00
- sigma(3 3)=  1.31568329E+02  sigma(2 1)=  0.00000000E+00

================================================================================
== DATASET  2 ==================================================================
-   nproc =    1

 mkfilename : getden/=0, take file _DEN from output of DATASET   1.

 Exchange-correlation functional for the present dataset will be:
  LDA: new Teter (4/93) with spin-polarized option - ixc=1
 Citation for XC functional:
  S. Goedecker, M. Teter, J. Huetter, PRB 54, 1703 (1996)

 Real(R)+Recip(G) space primitive vectors, cartesian coordinates (Bohr,Bohr^-1):
 R(1)=  0.0000000  3.3703265  3.3703265  G(1)= -0.1483536  0.1483536  0.1483536
 R(2)=  3.3703265  0.0000000  3.3703265  G(2)=  0.1483536 -0.1483536  0.1483536
 R(3)=  3.3703265  3.3703265  0.0000000  G(3)=  0.1483536  0.1483536 -0.1483536
 Unit cell volume ucvol=  7.6567759E+01 bohr^3
 Angles (23,13,12)=  6.00000000E+01  6.00000000E+01  6.00000000E+01 degrees

 getcut: wavevector=  0.0000  0.0000  0.0000  ngfft=  15  15  15
         ecut(hartree)=      8.000   => boxcut(ratio)=   2.31865

 getcut : COMMENT -
  Note that boxcut > 2.2 ; recall that boxcut=Gcut(box)/Gcut(sphere) = 2
  is sufficient for exact treatment of convolution.
  Such a large boxcut is a waste : you could raise ecut
  e.g. ecut=   10.752291 Hartrees makes boxcut=2

--------------------------------------------------------------------------------

P newkpt: treating     20 bands with npw=      84 for ikpt=   1 by node    0
P newkpt: treating     20 bands with npw=      79 for ikpt=   2 by node    0
P newkpt: treating     20 bands with npw=      92 for ikpt=   3 by node    0
P newkpt: treating     20 bands with npw=      84 for ikpt=   4 by node    0
P newkpt: treating     20 bands with npw=      76 for ikpt=   5 by node    0
P newkpt: treating     20 bands with npw=      65 for ikpt=   6 by node    0


================================================================================
 prteigrs : about to open file t04o_DS2_EIG
 Non-SCF case, kpt    1 ( -0.25000 -0.25000  0.00000), residuals and eigenvalues=
  1.24E-12  1.35E-11  1.96E-11  6.84E-12  3.68E-11  2.30E-11  2.08E-11  1.39E-11
  2.80E-11  8.59E-12  6.18E-12  1.04E-11  6.45E-12  1.67E-11  6.85E-12  9.04E-11
  1.92E-11  6.80E-11  8.74E-11  1.41E-05
 -2.4326E-01  3.3293E-01  3.5760E-01  3.5760E-01  6.5991E-01  8.4383E-01
  1.0038E+00  1.0038E+00  1.2215E+00  1.3570E+00  1.5646E+00  1.6876E+00
  1.6876E+00  1.7736E+00  2.0629E+00  2.0629E+00  2.2127E+00  2.3705E+00
  2.4204E+00  2.9275E+00
  prteigrs : nnsclo,ikpt=  250    1 max resid (incl. the buffer)=  1.41153E-05
 Non-SCF case, kpt    2 ( -0.25000  0.25000  0.00000), residuals and eigenvalues=
  7.79E-12  5.79E-11  1.22E-11  8.02E-11  1.66E-11  2.73E-12  6.84E-11  2.87E-12
  1.61E-11  3.84E-11  4.33E-12  9.17E-11  1.65E-11  1.11E-11  3.20E-11  1.41E-11
  5.88E-11  4.23E-11  1.36E-09  1.77E-09
 -1.5703E-01  1.6632E-01  2.2386E-01  4.2320E-01  7.8797E-01  9.3042E-01
  9.9495E-01  1.0131E+00  1.2431E+00  1.2870E+00  1.4785E+00  1.6956E+00
  1.8034E+00  2.0216E+00  2.1061E+00  2.1540E+00  2.3919E+00  2.5104E+00
  2.5323E+00  2.5583E+00
  prteigrs : nnsclo,ikpt=  250    2 max resid (incl. the buffer)=  1.76690E-09
 Non-SCF case, kpt    3 (  0.50000  0.50000  0.00000), residuals and eigenvalues=
  1.09E-11  6.29E-12  1.58E-11  1.70E-11  1.56E-11  2.34E-12  4.24E-11  7.88E-11
  3.12E-11  2.13E-11  6.04E-12  6.55E-12  1.51E-11  8.10E-12  2.36E-11  4.97E-11
  9.88E-11  3.41E-11  1.87E-10  4.92E-09
 -4.9384E-04 -4.9373E-04  2.6883E-01  2.6883E-01  6.4127E-01  6.4127E-01
  1.2281E+00  1.2281E+00  1.3917E+00  1.3917E+00  1.6937E+00  1.6937E+00
  1.8861E+00  1.8861E+00  2.2626E+00  2.2626E+00  2.2731E+00  2.2731E+00
  2.3215E+00  2.3215E+00
  prteigrs : nnsclo,ikpt=  250    3 max resid (incl. the buffer)=  4.91983E-09
 Non-SCF case, kpt    4 ( -0.25000  0.50000  0.25000), residuals and eigenvalues=
  3.22E-12  1.32E-11  4.05E-11  2.16E-12  2.12E-11  1.14E-11  4.98E-11  7.78E-11
  1.80E-11  2.33E-11  5.90E-11  5.59E-11  2.27E-11  8.11E-11  1.99E-11  5.77E-11
  4.62E-11  3.51E-11  3.43E-05  3.00E-05
  3.5326E-02  3.5326E-02  1.9008E-01  1.9008E-01  9.0886E-01  9.0886E-01
  9.6535E-01  9.6535E-01  1.3828E+00  1.3828E+00  1.6499E+00  1.6499E+00
  2.0707E+00  2.0707E+00  2.1351E+00  2.1351E+00  2.3050E+00  2.3050E+00
  2.5950E+00  2.5955E+00
  prteigrs : nnsclo,ikpt=  250    4 max resid (incl. the buffer)=  3.42978E-05
 Non-SCF case, kpt    5 (  0.50000  0.00000  0.00000), residuals and eigenvalues=
  1.16E-11  7.48E-11  1.29E-11  7.16E-12  6.66E-11  4.61E-12  8.55E-11  2.68E-11
  3.13E-11  3.78E-11  3.58E-11  5.08E-11  1.41E-11  2.71E-11  9.15E-11  8.87E-11
  4.07E-11  6.01E-11  3.15E-10  2.90E-10
 -1.1345E-01 -1.0618E-02  4.4295E-01  4.4295E-01  7.8358E-01  8.5354E-01
  8.5354E-01  1.0994E+00  1.3424E+00  1.4246E+00  1.4971E+00  1.4971E+00
  1.7355E+00  1.7355E+00  2.1772E+00  2.5265E+00  2.5265E+00  2.5359E+00
  2.6123E+00  2.6123E+00
  prteigrs : nnsclo,ikpt=  250    5 max resid (incl. the buffer)=  3.14855E-10
 Non-SCF case, kpt    6 (  0.00000  0.00000  0.00000), residuals and eigenvalues=
  8.82E-13  1.88E-11  2.65E-11  9.16E-11  4.98E-12  1.03E-11  1.71E-11  2.53E-12
  7.98E-12  4.94E-12  7.88E-11  9.09E-12  7.61E-12  2.18E-11  7.55E-12  1.49E-11
  1.60E-11  4.64E-11  5.34E-08  7.69E-07
 -3.3075E-01  5.7629E-01  5.7629E-01  5.7629E-01  7.5602E-01  7.5602E-01
  7.5602E-01  9.4612E-01  1.1574E+00  1.4617E+00  1.4617E+00  1.4958E+00
  1.4958E+00  1.4958E+00  1.7272E+00  2.4343E+00  2.4343E+00  2.4343E+00
  3.0030E+00  3.0030E+00
  prteigrs : nnsclo,ikpt=  250    6 max resid (incl. the buffer)=  7.69097E-07

======================================================================
 Calculating and writing out Kohn-Sham electronic Structure file
 Using conjugate gradient wavefunctions and energies (kssform=3)
 number of Gamma centered plane waves    161
 number of Gamma centered shells     11
 number of bands     20
 maximum angular momentum components      2
 Conjugate gradient eigenvalues
   k    eigenvalues [eV]
   1       -6.62    9.06    9.73    9.73   17.96   22.96   27.32   27.32   33.24
           36.93   42.57   45.92   45.92   48.26   56.13   56.13   60.21   64.51
           65.86   79.66
   2       -4.27    4.53    6.09   11.52   21.44   25.32   27.07   27.57   33.83
           35.02   40.23   46.14   49.07   55.01   57.31   58.61   65.09   68.31
           68.91   69.62
   3       -0.01   -0.01    7.32    7.32   17.45   17.45   33.42   33.42   37.87
           37.87   46.09   46.09   51.32   51.32   61.57   61.57   61.85   61.85
           63.17   63.17
   4        0.96    0.96    5.17    5.17   24.73   24.73   26.27   26.27   37.63
           37.63   44.90   44.90   56.35   56.35   58.10   58.10   62.72   62.72
           70.61   70.63
   5       -3.09   -0.29   12.05   12.05   21.32   23.23   23.23   29.92   36.53
           38.77   40.74   40.74   47.23   47.23   59.25   68.75   68.75   69.01
           71.09   71.09
   6       -9.00   15.68   15.68   15.68   20.57   20.57   20.57   25.75   31.50
           39.77   39.77   40.70   40.70   40.70   47.00   66.24   66.24   66.24
           81.72   81.72
 Test on the normalization of the wavefunctions
  min sum_G |a(n,k,G)| =  1.000000
  max sum_G |a(n,k,G)| =  1.000000
 Test on the orthogonalization of the wavefunctions
  min sum_G a(n,k,G)a(n',k,G) =  0.000000
  max sum_G a(n,k,G)a(n',k,G) =  0.000000

================================================================================

 ----iterations are completed or convergence reached----

 Mean square residual over all n,k,spin=   6.6059E-07; max=  3.4298E-05
  -0.2500 -0.2500  0.0000    1  1.41153E-05 kpt; spin; max resid(k); each band:
  1.24E-12 1.35E-11 1.96E-11 6.84E-12 3.68E-11 2.30E-11 2.08E-11 1.39E-11
  2.80E-11 8.59E-12 6.18E-12 1.04E-11 6.45E-12 1.67E-11 6.85E-12 9.04E-11
  1.92E-11 6.80E-11 8.74E-11 1.41E-05
  -0.2500  0.2500  0.0000    1  1.76690E-09 kpt; spin; max resid(k); each band:
  7.79E-12 5.79E-11 1.22E-11 8.02E-11 1.66E-11 2.73E-12 6.84E-11 2.87E-12
  1.61E-11 3.84E-11 4.33E-12 9.17E-11 1.65E-11 1.11E-11 3.20E-11 1.41E-11
  5.88E-11 4.23E-11 1.36E-09 1.77E-09
   0.5000  0.5000  0.0000    1  4.91983E-09 kpt; spin; max resid(k); each band:
  1.09E-11 6.29E-12 1.58E-11 1.70E-11 1.56E-11 2.34E-12 4.24E-11 7.88E-11
  3.12E-11 2.13E-11 6.04E-12 6.55E-12 1.51E-11 8.10E-12 2.36E-11 4.97E-11
  9.88E-11 3.41E-11 1.87E-10 4.92E-09
  -0.2500  0.5000  0.2500    1  3.42978E-05 kpt; spin; max resid(k); each band:
  3.22E-12 1.32E-11 4.05E-11 2.16E-12 2.12E-11 1.14E-11 4.98E-11 7.78E-11
  1.80E-11 2.33E-11 5.90E-11 5.59E-11 2.27E-11 8.11E-11 1.99E-11 5.77E-11
  4.62E-11 3.51E-11 3.43E-05 3.00E-05
   0.5000  0.0000  0.0000    1  3.14855E-10 kpt; spin; max resid(k); each band:
  1.16E-11 7.48E-11 1.29E-11 7.16E-12 6.66E-11 4.61E-12 8.55E-11 2.68E-11
  3.13E-11 3.78E-11 3.58E-11 5.08E-11 1.41E-11 2.71E-11 9.15E-11 8.87E-11
  4.07E-11 6.01E-11 3.15E-10 2.90E-10
   0.0000  0.0000  0.0000    1  7.69097E-07 kpt; spin; max resid(k); each band:
  8.82E-13 1.88E-11 2.65E-11 9.16E-11 4.98E-12 1.03E-11 1.71E-11 2.53E-12
  7.98E-12 4.94E-12 7.88E-11 9.09E-12 7.61E-12 2.18E-11 7.55E-12 1.49E-11
  1.60E-11 4.64E-11 5.34E-08 7.69E-07
 reduced coordinates (array xred) for    2 atoms
       0.000000000000      0.000000000000      0.000000000000
       0.250000000000      0.250000000000      0.250000000000

 cartesian coordinates (angstrom) at end:
    1      0.00000000000000     0.00000000000000     0.00000000000000
    2      0.89174999627579     0.89174999627579     0.89174999627579
 length scales=  6.740653087852  6.740653087852  6.740653087852 bohr
              =  3.566999985103  3.566999985103  3.566999985103 angstroms
 prteigrs : about to open file t04o_DS2_EIG
 Eigenvalues (   eV  ) for nkpt=   6  k points:
 kpt#   1, nband= 20, wtk=  0.18750, kpt= -0.2500 -0.2500  0.0000 (reduced coord)
  -6.61957   9.05941   9.73087   9.73087  17.95694  22.96190  27.31532  27.31532
  33.23834  36.92519  42.57361  45.92121  45.92121  48.26149  56.13450  56.13450
  60.21174  64.50573  65.86247  79.66232
 kpt#   2, nband= 20, wtk=  0.37500, kpt= -0.2500  0.2500  0.0000 (reduced coord)
  -4.27291   4.52583   6.09151  11.51576  21.44189  25.31800  27.07403  27.56840
  33.82559  35.02105  40.23116  46.13882  49.07373  55.01021  57.30912  58.61466
  65.08777  68.31247  68.90742  69.61527
 kpt#   3, nband= 20, wtk=  0.09375, kpt=  0.5000  0.5000  0.0000 (reduced coord)
  -0.01344  -0.01344   7.31527   7.31527  17.44993  17.44993  33.41879  33.41879
  37.86946  37.86948  46.08834  46.08834  51.32268  51.32268  61.56977  61.56977
  61.85362  61.85362  63.17052  63.17052
 kpt#   4, nband= 20, wtk=  0.18750, kpt= -0.2500  0.5000  0.2500 (reduced coord)
   0.96128   0.96128   5.17227   5.17227  24.73132  24.73132  26.26857  26.26858
  37.62800  37.62800  44.89631  44.89632  56.34638  56.34639  58.09936  58.09937
  62.72217  62.72217  70.61484  70.62712
 kpt#   5, nband= 20, wtk=  0.12500, kpt=  0.5000  0.0000  0.0000 (reduced coord)
  -3.08722  -0.28894  12.05320  12.05320  21.32236  23.22598  23.22598  29.91600
  36.52828  38.76505  40.73702  40.73702  47.22517  47.22517  59.24592  68.74826
  68.74826  69.00642  71.08523  71.08523
 kpt#   6, nband= 20, wtk=  0.03125, kpt=  0.0000  0.0000  0.0000 (reduced coord)
  -9.00029  15.68176  15.68176  15.68176  20.57224  20.57224  20.57224  25.74526
  31.49511  39.77358  39.77358  40.70343  40.70343  40.70343  46.99861  66.23981
  66.23981  66.23981  81.71519  81.71520
 Total charge density [el/Bohr^3]
,     Maximum=    2.6413E-01  at reduced coord.    0.1333    0.1333    0.6000
,Next maximum=    2.6413E-01  at reduced coord.    0.1333    0.6000    0.1333
,     Minimum=    1.6792E-02  at reduced coord.    0.7333    0.7333    0.7333
,Next minimum=    1.6792E-02  at reduced coord.    0.8000    0.7333    0.7333
,  Integrated=    8.0000E+00

================================================================================
== DATASET  3 ==================================================================
-   nproc =    1

 mkfilename : getkss/=0, take file _KSS from output of DATASET   2.

 Exchange-correlation functional for the present dataset will be:
  LDA: new Teter (4/93) with spin-polarized option - ixc=1
 Citation for XC functional:
  S. Goedecker, M. Teter, J. Huetter, PRB 54, 1703 (1996)

 SCREENING: Calculation of the susceptibility and dielectric matrices 

 Based on a program developped by R.W. Godby, V. Olevano, G. Onida, and L. Reining.
 Incorporated in ABINIT by V. Olevano, G.-M. Rignanese, and M. Torrent.
.Using double precision arithmetic ; gwpc =  8

 Real(R)+Recip(G) space primitive vectors, cartesian coordinates (Bohr,Bohr^-1):
 R(1)=  0.0000000  3.3703265  3.3703265  G(1)= -0.1483536  0.1483536  0.1483536
 R(2)=  3.3703265  0.0000000  3.3703265  G(2)=  0.1483536 -0.1483536  0.1483536
 R(3)=  3.3703265  3.3703265  0.0000000  G(3)=  0.1483536  0.1483536 -0.1483536
 Unit cell volume ucvol=  7.6567759E+01 bohr^3
 Angles (23,13,12)=  6.00000000E+01  6.00000000E+01  6.00000000E+01 degrees

--- Pseudopotential description ------------------------------------------------
- pspini: atom type   1  psp file is /home/gonze/ABINIT/ABINITv7.9.3/trunk/7.9.3-private/tests/Psps_for_tests/6c.pspnc
- pspatm: opening atomic psp file    /home/gonze/ABINIT/ABINITv7.9.3/trunk/7.9.3-private/tests/Psps_for_tests/6c.pspnc
-  Troullier-Martins psp for element  C         Thu Oct 27 17:29:33 EDT 1994
-  6.00000   4.00000    940714                znucl, zion, pspdat
    1    1    1    1      2001   0.00000      pspcod,pspxc,lmax,lloc,mmax,r2well
    0  10.372  24.987    1   1.4850707        l,e99.0,e99.9,nproj,rcpsp
   0.00000000   0.00000000   0.00000000   0.00000000     rms, ekb1, ekb2, epsatm
    1  15.431  21.987    0   1.4850707        l,e99.0,e99.9,nproj,rcpsp
   0.00000000   0.00000000   0.00000000   0.00000000     rms, ekb1, ekb2, epsatm
    0.83985002509544    0.99012430797080    0.51184907750884   rchrg,fchrg,qchrg
 pspatm: epsatm=    0.92590353
         --- l  ekb(1:nproj) -->
             0    4.921466
 pspatm: atomic psp has been read  and splines computed

--------------------------------------------------------------------------------

 ==== K-mesh for the wavefunctions ====
 Number of points in the irreducible wedge :     6
 Reduced coordinates and weights : 

     1)    -2.50000000E-01 -2.50000000E-01  0.00000000E+00       0.18750
     2)    -2.50000000E-01  2.50000000E-01  0.00000000E+00       0.37500
     3)     5.00000000E-01  5.00000000E-01  0.00000000E+00       0.09375
     4)    -2.50000000E-01  5.00000000E-01  2.50000000E-01       0.18750
     5)     5.00000000E-01  0.00000000E+00  0.00000000E+00       0.12500
     6)     0.00000000E+00  0.00000000E+00  0.00000000E+00       0.03125

 Together with 48 symmetry operations and time-reversal symmetry 
 yields    32 points in the full Brillouin Zone.


 ==== Q-mesh for the screening function ====
 Number of points in the irreducible wedge :     6
 Reduced coordinates and weights : 

     1)     0.00000000E+00  0.00000000E+00  0.00000000E+00       0.03125
     2)     5.00000000E-01  5.00000000E-01  0.00000000E+00       0.09375
     3)     5.00000000E-01  2.50000000E-01  2.50000000E-01       0.37500
     4)     0.00000000E+00  5.00000000E-01  0.00000000E+00       0.12500
     5)     5.00000000E-01 -2.50000000E-01  2.50000000E-01       0.18750
     6)     0.00000000E+00 -2.50000000E-01 -2.50000000E-01       0.18750

 Together with 48 symmetry operations and time-reversal symmetry 
 yields    32 points in the full Brillouin Zone.


 setmesh: FFT mesh size selected  =  12x 12x 12
          total number of points  =     1728


 screening : taking advantage of time-reversal symmetry 
 Maximum band index for partially occupied states nbvw =     4
 Remaining bands to be divided among processors   nbcw =    16
P Number of bands treated by each node ~   16

 k       eigenvalues [eV]
  1         -6.62   9.06   9.73   9.73  17.96  22.96  27.32  27.32  33.24  36.93
            42.57  45.92  45.92  48.26  56.13  56.13  60.21  64.51  65.86  79.66

  2         -4.27   4.53   6.09  11.52  21.44  25.32  27.07  27.57  33.83  35.02
            40.23  46.14  49.07  55.01  57.31  58.61  65.09  68.31  68.91  69.62

  3         -0.01  -0.01   7.32   7.32  17.45  17.45  33.42  33.42  37.87  37.87
            46.09  46.09  51.32  51.32  61.57  61.57  61.85  61.85  63.17  63.17

  4          0.96   0.96   5.17   5.17  24.73  24.73  26.27  26.27  37.63  37.63
            44.90  44.90  56.35  56.35  58.10  58.10  62.72  62.72  70.61  70.63

  5         -3.09  -0.29  12.05  12.05  21.32  23.23  23.23  29.92  36.53  38.77
            40.74  40.74  47.23  47.23  59.25  68.75  68.75  69.01  71.09  71.09

  6         -9.00  15.68  15.68  15.68  20.57  20.57  20.57  25.75  31.50  39.77
            39.77  40.70  40.70  40.70  47.00  66.24  66.24  66.24  81.72  81.72

 Number of electrons calculated from density =    7.9781; Expected =    8.0000
 average of density, n =  0.104196
 r_s =    1.3183
 omega_plasma =   31.1373 [eV]


 calculating chi0 at frequencies [eV] :
  1    0.000000E+00    0.000000E+00
  2    0.000000E+00    3.113731E+01


--------------------------------------------------------------------------------
  q-point number  1        q = ( 0.000000, 0.000000, 0.000000) [r.l.u.]
--------------------------------------------------------------------------------
  chi0(G,G') at the    1 th omega   0.0000   0.0000 [eV]
       1       2       3       4       5       6       7       8       9
    1  -0.000   0.000  -0.000  -0.000   0.000   0.000  -0.000  -0.000   0.000
        0.000   0.000   0.000  -0.000  -0.000   0.000   0.000  -0.000  -0.000

    2   0.000  -7.488   0.000  -1.122  -0.002  -1.124  -0.003  -1.119   0.009
       -0.000  -0.000  -2.509   0.002  -0.826   0.000  -0.826   0.003  -0.819

  chi0(G,G') at the    2 th omega   0.0000  31.1373 [eV]
       1       2       3       4       5       6       7       8       9
    1  -0.000   0.000  -0.000  -0.000   0.000   0.000  -0.000  -0.000   0.000
        0.000   0.000   0.000  -0.000  -0.000   0.000   0.000  -0.000  -0.000

    2   0.000  -3.225   0.000  -0.275  -0.001  -0.277  -0.003  -0.273   0.007
       -0.000  -0.000  -0.545   0.002  -0.178   0.000  -0.178   0.003  -0.172

 For q-point:  0.000010 0.000020 0.000030
  dielectric constant =  11.4131
  dielectric constant without local fields =  11.8620

  Average fulfillment of the sum rule on Im[epsilon] for q-point    1 :     47.16  [%]
  Heads and wings of the symmetrical epsilon^-1(G,G') 

   Upper and lower wings at the    1 th omega   0.0000   0.0000 [eV]
       1       2       3       4       5       6       7       8       9
      0.088   0.005  -0.005  -0.014   0.014   0.014  -0.014  -0.005   0.005
      0.000   0.005   0.005  -0.014  -0.014   0.014   0.014  -0.005  -0.005
       1       2       3       4       5       6       7       8       9
      0.088   0.005  -0.005  -0.014   0.014   0.014  -0.014  -0.005   0.005
      0.000  -0.005  -0.005   0.014   0.014  -0.014  -0.014   0.005   0.005


   Upper and lower wings at the    2 th omega   0.0000  31.1373 [eV]
       1       2       3       4       5       6       7       8       9
      0.534   0.006  -0.006  -0.018   0.018   0.018  -0.018  -0.006   0.006
      0.000   0.006   0.006  -0.018  -0.018   0.018   0.018  -0.006  -0.006
       1       2       3       4       5       6       7       8       9
      0.534   0.006  -0.006  -0.018   0.018   0.018  -0.018  -0.006   0.006
      0.000  -0.006  -0.006   0.018   0.018  -0.018  -0.018   0.006   0.006




--------------------------------------------------------------------------------
  q-point number  2        q = ( 0.500000, 0.500000, 0.000000) [r.l.u.]
--------------------------------------------------------------------------------
  chi0(G,G') at the    1 th omega   0.0000   0.0000 [eV]
       1       2       3       4       5       6       7       8       9
    1  -7.801  -1.239  -0.795  -0.794  -1.238  -0.794  -1.238  -1.236  -0.797
        0.000  -1.235   0.795  -0.794   1.238  -0.795   1.239  -1.238   0.795

    2  -1.239  -5.647  -0.001  -0.598  -0.001  -0.600  -0.002  -0.569   0.007
        1.235  -0.000  -1.244   0.002  -0.094  -0.002  -0.093  -0.007  -0.271

  chi0(G,G') at the    2 th omega   0.0000  31.1373 [eV]
       1       2       3       4       5       6       7       8       9
    1  -2.407  -0.390  -0.195  -0.194  -0.389  -0.194  -0.389  -0.388  -0.196
        0.000  -0.387   0.195  -0.194   0.390  -0.195   0.390  -0.390   0.195

    2  -0.390  -2.486  -0.001  -0.212  -0.001  -0.214  -0.001  -0.097   0.006
        0.387  -0.000  -0.290   0.001  -0.081  -0.002  -0.080  -0.006  -0.067

  Average fulfillment of the sum rule on Im[epsilon] for q-point    2 :     71.42  [%]


--------------------------------------------------------------------------------
  q-point number  3        q = ( 0.500000, 0.250000, 0.250000) [r.l.u.]
--------------------------------------------------------------------------------
  chi0(G,G') at the    1 th omega   0.0000   0.0000 [eV]
       1       2       3       4       5       6       7       8       9
    1  -5.849  -0.893  -0.027  -1.030  -1.030  -0.027  -0.893  -1.029  -1.031
        0.000  -0.893   0.027  -1.029   1.030  -0.027   0.893  -1.032   1.030

    2  -0.893  -6.020  -0.000  -0.810   0.001  -0.687   0.000  -0.809   0.003
        0.893  -0.000  -1.757   0.006  -0.372  -0.000  -0.364  -0.005  -0.361

  chi0(G,G') at the    2 th omega   0.0000  31.1373 [eV]
       1       2       3       4       5       6       7       8       9
    1  -1.470  -0.301   0.082  -0.233  -0.233   0.082  -0.301  -0.233  -0.234
        0.000  -0.301  -0.082  -0.232   0.234   0.082   0.301  -0.235   0.233

    2  -0.301  -2.628  -0.000  -0.197   0.001  -0.205   0.000  -0.196   0.002
        0.301   0.000  -0.426   0.005  -0.110  -0.000  -0.117  -0.004  -0.100

  Average fulfillment of the sum rule on Im[epsilon] for q-point    3 :     74.11  [%]


--------------------------------------------------------------------------------
  q-point number  4        q = ( 0.000000, 0.500000, 0.000000) [r.l.u.]
--------------------------------------------------------------------------------
  chi0(G,G') at the    1 th omega   0.0000   0.0000 [eV]
       1       2       3       4       5       6       7       8       9
    1  -6.128  -1.061  -0.995  -1.061  -0.996  -1.061  -0.995  -0.777   0.966
       -0.000  -1.061   0.996  -1.061   0.996  -1.061   0.996  -0.779  -0.966

    2  -1.061  -8.151  -0.001  -0.980   0.003  -0.983   0.003  -0.428  -0.001
        1.061  -0.000  -1.348   0.001  -0.231   0.000  -0.229   0.000  -0.518

  chi0(G,G') at the    2 th omega   0.0000  31.1373 [eV]
       1       2       3       4       5       6       7       8       9
    1  -1.964  -0.239  -0.336  -0.239  -0.337  -0.239  -0.336  -0.334   0.247
        0.000  -0.239   0.337  -0.239   0.337  -0.240   0.337  -0.336  -0.247

    2  -0.239  -3.327  -0.001  -0.319   0.002  -0.321   0.002  -0.145  -0.000
        0.239  -0.000  -0.331   0.001  -0.076   0.000  -0.075   0.000  -0.081

  Average fulfillment of the sum rule on Im[epsilon] for q-point    4 :     73.01  [%]


--------------------------------------------------------------------------------
  q-point number  5        q = ( 0.500000,-0.250000, 0.250000) [r.l.u.]
--------------------------------------------------------------------------------
  chi0(G,G') at the    1 th omega   0.0000   0.0000 [eV]
       1       2       3       4       5       6       7       8       9
    1  -8.068  -0.970  -0.817  -1.306  -1.214  -1.217  -1.302  -0.817  -0.968
        0.000  -0.969   0.816  -1.308   1.218  -1.219   1.307  -0.815   0.967

    2  -0.970  -4.682   0.002  -0.301  -0.001  -0.224  -0.000  -0.428   0.005
        0.969  -0.000  -1.258   0.000  -0.179   0.001  -0.134   0.001  -0.210

  chi0(G,G') at the    2 th omega   0.0000  31.1373 [eV]
       1       2       3       4       5       6       7       8       9
    1  -2.692  -0.380  -0.102  -0.424  -0.375  -0.377  -0.421  -0.102  -0.379
        0.000  -0.379   0.101  -0.425   0.378  -0.379   0.425  -0.101   0.377

    2  -0.380  -2.057   0.002  -0.074  -0.001  -0.121  -0.000  -0.121   0.004
        0.379  -0.000  -0.266   0.000  -0.068   0.001  -0.073   0.001  -0.082

  Average fulfillment of the sum rule on Im[epsilon] for q-point    5 :     71.87  [%]


--------------------------------------------------------------------------------
  q-point number  6        q = ( 0.000000,-0.250000,-0.250000) [r.l.u.]
--------------------------------------------------------------------------------
  chi0(G,G') at the    1 th omega   0.0000   0.0000 [eV]
       1       2       3       4       5       6       7       8       9
    1  -4.146  -0.864  -0.183  -0.183  -0.864  -0.864  -0.183  -0.183  -0.864
       -0.000  -0.865   0.182  -0.183   0.863  -0.865   0.183  -0.183   0.864

    2  -0.864  -6.942  -0.000  -1.048   0.001  -1.101  -0.006  -1.048   0.002
        0.865  -0.000  -1.859  -0.004  -0.498  -0.000  -0.604   0.003  -0.483

  chi0(G,G') at the    2 th omega   0.0000  31.1373 [eV]
       1       2       3       4       5       6       7       8       9
    1  -0.831  -0.206   0.012   0.012  -0.206  -0.206   0.012   0.012  -0.206
       -0.000  -0.207  -0.013   0.012   0.205  -0.207  -0.012   0.012   0.206

    2  -0.206  -2.990  -0.000  -0.265   0.001  -0.231  -0.005  -0.266   0.002
        0.207   0.000  -0.471  -0.003  -0.134  -0.000  -0.139   0.002  -0.122

  Average fulfillment of the sum rule on Im[epsilon] for q-point    6 :     79.54  [%]

================================================================================
== DATASET  4 ==================================================================
-   nproc =    1

 mkfilename : getscr/=0, take file _SCR from output of DATASET   3.

 mkfilename : getkss/=0, take file _KSS from output of DATASET   2.

 Exchange-correlation functional for the present dataset will be:
  LDA: new Teter (4/93) with spin-polarized option - ixc=1
 Citation for XC functional:
  S. Goedecker, M. Teter, J. Huetter, PRB 54, 1703 (1996)

 SIGMA: Calculation of the GW corrections 

 Based on a program developped by R.W. Godby, V. Olevano, G. Onida, and L. Reining.
 Incorporated in ABINIT by V. Olevano, G.-M. Rignanese, and M. Torrent.
.Using double precision arithmetic ; gwpc =  8

 Real(R)+Recip(G) space primitive vectors, cartesian coordinates (Bohr,Bohr^-1):
 R(1)=  0.0000000  3.3703265  3.3703265  G(1)= -0.1483536  0.1483536  0.1483536
 R(2)=  3.3703265  0.0000000  3.3703265  G(2)=  0.1483536 -0.1483536  0.1483536
 R(3)=  3.3703265  3.3703265  0.0000000  G(3)=  0.1483536  0.1483536 -0.1483536
 Unit cell volume ucvol=  7.6567759E+01 bohr^3
 Angles (23,13,12)=  6.00000000E+01  6.00000000E+01  6.00000000E+01 degrees
--------------------------------------------------------------------------------

 ==== K-mesh for the wavefunctions ====
 Number of points in the irreducible wedge :     6
 Reduced coordinates and weights : 

     1)    -2.50000000E-01 -2.50000000E-01  0.00000000E+00       0.18750
     2)    -2.50000000E-01  2.50000000E-01  0.00000000E+00       0.37500
     3)     5.00000000E-01  5.00000000E-01  0.00000000E+00       0.09375
     4)    -2.50000000E-01  5.00000000E-01  2.50000000E-01       0.18750
     5)     5.00000000E-01  0.00000000E+00  0.00000000E+00       0.12500
     6)     0.00000000E+00  0.00000000E+00  0.00000000E+00       0.03125

 Together with 48 symmetry operations and time-reversal symmetry 
 yields    32 points in the full Brillouin Zone.


 ==== Q-mesh for screening function ====
 Number of points in the irreducible wedge :     6
 Reduced coordinates and weights : 

     1)     0.00000000E+00  0.00000000E+00  0.00000000E+00       0.03125
     2)     5.00000000E-01  5.00000000E-01  0.00000000E+00       0.09375
     3)     5.00000000E-01  2.50000000E-01  2.50000000E-01       0.37500
     4)     0.00000000E+00  5.00000000E-01  0.00000000E+00       0.12500
     5)     5.00000000E-01 -2.50000000E-01  2.50000000E-01       0.18750
     6)     0.00000000E+00 -2.50000000E-01 -2.50000000E-01       0.18750

 Together with 48 symmetry operations and time-reversal symmetry 
 yields    32 points in the full Brillouin Zone.


 setmesh: FFT mesh size selected  =  12x 12x 12
          total number of points  =     1728


 k       eigenvalues [eV]
  1         -6.62   9.06   9.73   9.73  17.96  22.96  27.32  27.32  33.24  36.93
            42.57  45.92  45.92  48.26  56.13  56.13  60.21  64.51  65.86  79.66

  2         -4.27   4.53   6.09  11.52  21.44  25.32  27.07  27.57  33.83  35.02
            40.23  46.14  49.07  55.01  57.31  58.61  65.09  68.31  68.91  69.62

  3         -0.01  -0.01   7.32   7.32  17.45  17.45  33.42  33.42  37.87  37.87
            46.09  46.09  51.32  51.32  61.57  61.57  61.85  61.85  63.17  63.17

  4          0.96   0.96   5.17   5.17  24.73  24.73  26.27  26.27  37.63  37.63
            44.90  44.90  56.35  56.35  58.10  58.10  62.72  62.72  70.61  70.63

  5         -3.09  -0.29  12.05  12.05  21.32  23.23  23.23  29.92  36.53  38.77
            40.74  40.74  47.23  47.23  59.25  68.75  68.75  69.01  71.09  71.09

  6         -9.00  15.68  15.68  15.68  20.57  20.57  20.57  25.75  31.50  39.77
            39.77  40.70  40.70  40.70  47.00  66.24  66.24  66.24  81.72  81.72

 Number of electrons calculated from density =    7.9781; Expected =    8.0000
 average of density, n =  0.104196
 r_s =    1.3183
 omega_plasma =   31.1373 [eV]


 rdqps: reading QP wavefunctions of the previous step 
        looking for file t04i_DS4_QPS
 file not found, 1st iteration initialized with KS eigenelements 

 Number of electrons calculated from density =    7.9781; Expected =    8.0000
 average of density, n =  0.104196
 r_s =    1.3183
 omega_plasma =   31.1373 [eV]


--------------------------------------------------------------------------------

 QP results after the unitary transformation in the KS subspace: 

  Number of electrons    =    7.9781

  QP Band energy    [Ha] =  1.34160597426198E+00
  QP Hartree energy [Ha] =  8.13336900406386E-01

--------------------------------------------------------------------------------

 === KS Band Gaps ===
  >>>> For spin  1
   Minimum optical gap =   4.8905 [eV], located at k-point      :   0.0000  0.0000  0.0000
   Fundamental gap     =   1.7682 [eV], Top of valence bands at :   0.0000  0.0000  0.0000
                                        Bottom of conduction at :   0.5000  0.5000  0.0000
 SIGMA fundamental parameters:
 MODEL GW with PLASMON POLE MODEL  1
 number of plane-waves for SigmaX                   27
 number of plane-waves for SigmaC and W             27
 number of plane-waves for wavefunctions            65
 number of bands                                    20
 number of independent spin polarizations            1
 number of spinorial components                      1
 number of k-points in IBZ                           6
 number of q-points in IBZ                           6
 number of symmetry operations                      48
 number of k-points in BZ                           32
 number of q-points in BZ                           32
 number of frequencies for dSigma/dE                 1
 frequency step for dSigma/dE [eV]                0.00
 number of omega for Sigma on real axis              0
 max omega for Sigma on real axis  [eV]           0.00
 zcut for avoiding poles [eV]                     0.10

 EPSILON^-1 parameters (SCR file):
 dimension of the eps^-1 matrix on file             27
 dimension of the eps^-1 matrix used                27
 number of plane-waves for wavefunctions            65
 number of bands                                    20
 number of q-points in IBZ                           6
 number of frequencies                               2
 number of real frequencies                          1
 number of imag frequencies                          1

 matrix elements of self-energy operator (all in [eV])

 Self-Consistent on Energies and Wavefunctions

 k =   -0.250  -0.250   0.000
 Band     E_lda   <Vxclda>   E(N-1)  <Hhartree>   SigX  SigC[E(N-1)]    Z     dSigC/dE  Sig[E(N)]  DeltaE  E(N)_pert E(N)_diago
    1    -6.620   -14.984    -6.620     8.364   -24.080     8.665     1.000     0.000   -15.415    -0.432    -7.051    -7.052
    2     9.059   -16.229     9.059    25.288   -19.502     3.943     1.000     0.000   -15.559     0.670     9.729     9.725
    3     9.731   -15.646     9.731    25.377   -18.078     3.475     1.000     0.000   -14.603     1.043    10.774    10.771
    4     9.731   -15.646     9.731    25.377   -18.080     3.475     1.000     0.000   -14.605     1.041    10.772    10.774
    5    17.957   -14.218    17.957    32.174    -7.892    -4.114     1.000     0.000   -12.006     2.211    20.168    20.169
    6    22.962   -13.446    22.962    36.407    -6.011    -5.119     1.000     0.000   -11.130     2.316    25.277    25.281
    7    27.315   -15.766    27.315    43.081    -6.819    -5.234     1.000     0.000   -12.052     3.713    31.029    31.021
    8    27.315   -15.766    27.315    43.081    -6.819    -5.240     1.000     0.000   -12.059     3.707    31.022    31.030

 E^0_gap          8.226
 E^GW_gap         9.396
 DeltaE^GW_gap    1.170


 k =   -0.250   0.250   0.000
 Band     E_lda   <Vxclda>   E(N-1)  <Hhartree>   SigX  SigC[E(N-1)]    Z     dSigC/dE  Sig[E(N)]  DeltaE  E(N)_pert E(N)_diago
    1    -4.273   -15.183    -4.273    10.910   -23.547     7.851     1.000     0.000   -15.696    -0.513    -4.786    -4.787
    2     4.526   -15.666     4.526    20.192   -20.517     5.044     1.000     0.000   -15.473     0.193     4.719     4.711
    3     6.092   -14.987     6.092    21.078   -18.572     4.060     1.000     0.000   -14.513     0.474     6.566     6.565
    4    11.516   -15.986    11.516    27.501   -18.145     3.311     1.000     0.000   -14.834     1.152    12.668    12.668
    5    21.442   -14.227    21.442    35.669    -7.067    -4.650     1.000     0.000   -11.717     2.510    23.952    23.945
    6    25.318   -15.301    25.318    40.619    -6.746    -5.178     1.000     0.000   -11.924     3.377    28.695    28.695
    7    27.074   -15.126    27.074    42.201    -6.798    -5.174     1.000     0.000   -11.972     3.155    30.229    30.231
    8    27.568   -14.931    27.568    42.499    -5.657    -5.988     1.000     0.000   -11.645     3.286    30.854    30.870

 E^0_gap          9.926
 E^GW_gap        11.284
 DeltaE^GW_gap    1.358


 k =    0.500   0.500   0.000
 Band     E_lda   <Vxclda>   E(N-1)  <Hhartree>   SigX  SigC[E(N-1)]    Z     dSigC/dE  Sig[E(N)]  DeltaE  E(N)_pert E(N)_diago
    1    -0.013   -15.456    -0.013    15.442   -22.190     6.480     1.000     0.000   -15.710    -0.254    -0.268    -0.290
    2    -0.013   -15.456    -0.013    15.442   -22.190     6.480     1.000     0.000   -15.710    -0.254    -0.268    -0.249
    3     7.315   -15.547     7.315    22.862   -18.921     4.125     1.000     0.000   -14.796     0.751     8.066     8.066
    4     7.315   -15.547     7.315    22.862   -18.915     4.122     1.000     0.000   -14.792     0.754     8.070     8.070
    5    17.450   -13.534    17.450    30.984    -7.397    -4.236     1.000     0.000   -11.633     1.902    19.351    19.349
    6    17.450   -13.534    17.450    30.984    -7.397    -4.236     1.000     0.000   -11.633     1.902    19.352    19.357
    7    33.419   -16.023    33.419    49.442    -4.867    -6.775     1.000     0.000   -11.642     4.381    37.800    37.795
    8    33.419   -16.023    33.419    49.442    -4.872    -6.775     1.000     0.000   -11.646     4.377    37.796    37.801

 E^0_gap         10.135
 E^GW_gap        11.282
 DeltaE^GW_gap    1.147


 k =   -0.250   0.500   0.250
 Band     E_lda   <Vxclda>   E(N-1)  <Hhartree>   SigX  SigC[E(N-1)]    Z     dSigC/dE  Sig[E(N)]  DeltaE  E(N)_pert E(N)_diago
    1     0.961   -15.798     0.961    16.759   -22.430     6.321     1.000     0.000   -16.109    -0.312     0.650     0.636
    2     0.961   -15.798     0.961    16.759   -22.430     6.322     1.000     0.000   -16.108    -0.310     0.651     0.660
    3     5.172   -14.734     5.172    19.907   -18.521     4.249     1.000     0.000   -14.272     0.462     5.635     5.619
    4     5.172   -14.734     5.172    19.907   -18.521     4.250     1.000     0.000   -14.271     0.464     5.636     5.641
    5    24.731   -13.805    24.731    38.536    -6.235    -4.892     1.000     0.000   -11.127     2.678    27.410    27.403
    6    24.731   -13.805    24.731    38.536    -6.235    -4.892     1.000     0.000   -11.126     2.679    27.410    27.427
    7    26.269   -15.429    26.269    41.698    -6.459    -5.636     1.000     0.000   -12.095     3.334    29.602    29.592
    8    26.269   -15.429    26.269    41.698    -6.459    -5.636     1.000     0.000   -12.095     3.334    29.603    29.619

 E^0_gap         19.559
 E^GW_gap        21.774
 DeltaE^GW_gap    2.215


 k =    0.500   0.000   0.000
 Band     E_lda   <Vxclda>   E(N-1)  <Hhartree>   SigX  SigC[E(N-1)]    Z     dSigC/dE  Sig[E(N)]  DeltaE  E(N)_pert E(N)_diago
    1    -3.087   -15.573    -3.087    12.486   -23.738     7.657     1.000     0.000   -16.082    -0.508    -3.595    -3.597
    2    -0.289   -14.591    -0.289    14.302   -20.755     6.076     1.000     0.000   -14.679    -0.088    -0.377    -0.378
    3    12.053   -16.173    12.053    28.226   -18.303     3.267     1.000     0.000   -15.036     1.137    13.190    13.189
    4    12.053   -16.173    12.053    28.226   -18.288     3.269     1.000     0.000   -15.019     1.154    13.207    13.208
    5    21.322   -15.292    21.322    36.615    -8.050    -4.873     1.000     0.000   -12.922     2.370    23.692    23.694
    6    23.226   -14.564    23.226    37.790    -7.040    -4.671     1.000     0.000   -11.711     2.853    26.079    26.077
    7    23.226   -14.564    23.226    37.790    -7.040    -4.671     1.000     0.000   -11.711     2.853    26.079    26.082
    8    29.916   -12.642    29.916    42.558    -3.720    -6.196     1.000     0.000    -9.915     2.727    32.643    32.644

 E^0_gap          9.269
 E^GW_gap        10.485
 DeltaE^GW_gap    1.216


 k =    0.000   0.000   0.000
 Band     E_lda   <Vxclda>   E(N-1)  <Hhartree>   SigX  SigC[E(N-1)]    Z     dSigC/dE  Sig[E(N)]  DeltaE  E(N)_pert E(N)_diago
    1    -9.000   -14.857    -9.000     5.857   -24.729     9.601     1.000     0.000   -15.128    -0.270    -9.270    -9.270
    2    15.682   -16.502    15.682    32.184   -17.631     2.628     1.000     0.000   -15.003     1.499    17.181    17.177
    3    15.682   -16.502    15.682    32.184   -17.627     2.632     1.000     0.000   -14.995     1.507    17.189    17.181
    4    15.682   -16.502    15.682    32.184   -17.628     2.628     1.000     0.000   -14.999     1.503    17.184    17.196
    5    20.572   -15.038    20.572    35.611    -7.970    -4.217     1.000     0.000   -12.187     2.852    23.424    23.420
    6    20.572   -15.038    20.572    35.611    -7.956    -4.217     1.000     0.000   -12.173     2.865    23.438    23.421
    7    20.572   -15.038    20.572    35.611    -7.971    -4.216     1.000     0.000   -12.187     2.851    23.423    23.444
    8    25.745   -15.802    25.745    41.547    -6.896    -6.140     1.000     0.000   -13.035     2.766    28.512    28.512

 E^0_gap          4.890
 E^GW_gap         6.239
 DeltaE^GW_gap    1.349


 New Fermi energy :        6.715087E-01 Ha ,    1.827268E+01 eV
 New Exchange energy :    -2.971909E+00 Ha ,   -8.086975E+01 eV

 === QP Band Gaps ===
  >>>> For spin  1
   Minimum optical gap =   6.2235 [eV], located at k-point      :   0.0000  0.0000  0.0000
   Fundamental gap     =   2.1531 [eV], Top of valence bands at :   0.0000  0.0000  0.0000
                                        Bottom of conduction at :   0.5000  0.5000  0.0000

 writing QP data on file : t04o_DS4_QPS

 Convergence of QP corrections
 >>>>> For spin  1 <<<<<
.  kptgw no:  1; Maximum DeltaE = (   3.713   0.000) for band index:  7
.  kptgw no:  2; Maximum DeltaE = (   3.377  -0.000) for band index:  6
.  kptgw no:  3; Maximum DeltaE = (   4.381  -0.000) for band index:  7
.  kptgw no:  4; Maximum DeltaE = (   3.334   0.000) for band index:  8
.  kptgw no:  5; Maximum DeltaE = (   2.853  -0.000) for band index:  6
.  kptgw no:  6; Maximum DeltaE = (   2.865   0.000) for band index:  6

== END DATASET(S) ==============================================================
================================================================================
  
 -outvars: echo values of variables after computation  --------
            acell      6.7406530879E+00  6.7406530879E+00  6.7406530879E+00 Bohr
              amu      1.20110000E+01
             bdgw4          1       8       1       8       1       8       1       8
                            1       8       1       8
           diemac      1.20000000E+01
             ecut1     8.00000000E+00 Hartree
             ecut2     8.00000000E+00 Hartree
             ecut3     6.95097571E+00 Hartree
             ecut4     6.95097571E+00 Hartree
          ecuteps1     0.00000000E+00 Hartree
          ecuteps2     0.00000000E+00 Hartree
          ecuteps3     3.47548785E+00 Hartree
          ecuteps4     3.47548785E+00 Hartree
         ecutsigx1     0.00000000E+00 Hartree
         ecutsigx2     0.00000000E+00 Hartree
         ecutsigx3     0.00000000E+00 Hartree
         ecutsigx4     3.47548785E+00 Hartree
          ecutwfn1     8.00000000E+00 Hartree
          ecutwfn2     8.00000000E+00 Hartree
          ecutwfn3     6.95097571E+00 Hartree
          ecutwfn4     6.95097571E+00 Hartree
           enunit           1
           etotal1    -1.1653056866E+01
           etotal3     0.0000000000E+00
           etotal4     0.0000000000E+00
            fcart1    -0.0000000000E+00 -0.0000000000E+00 -0.0000000000E+00
                      -0.0000000000E+00 -0.0000000000E+00 -0.0000000000E+00
            fcart3     0.0000000000E+00  0.0000000000E+00  0.0000000000E+00
                       0.0000000000E+00  0.0000000000E+00  0.0000000000E+00
            fcart4     0.0000000000E+00  0.0000000000E+00  0.0000000000E+00
                       0.0000000000E+00  0.0000000000E+00  0.0000000000E+00
-          fftalg         112
           getden1          0
           getden2         -1
           getden3          0
           getden4          0
           getkss1          0
           getkss2          0
           getkss3          2
           getkss4          2
           getscr1          0
           getscr2          0
           getscr3          0
           getscr4         -1
        gwcalctyp1          0
        gwcalctyp2          0
        gwcalctyp3          0
        gwcalctyp4         28
           gwpara           2
         icutcoul1          6
         icutcoul2          6
         icutcoul3          6
         icutcoul4          3
          inclvkb1          1
          inclvkb2          1
          inclvkb3          2
          inclvkb4          1
             iscf1          7
             iscf2         -2
             iscf3          7
             iscf4          7
           istwfk2       0    0    1    0    1    1
           istwfk3       0    0    1    0    1    1
           istwfk4       0    0    1    0    1    1
           jdtset        1    2    3    4
              kpt1    -1.25000000E-01 -2.50000000E-01  0.00000000E+00
                      -1.25000000E-01  5.00000000E-01  0.00000000E+00
                      -2.50000000E-01 -3.75000000E-01  0.00000000E+00
                      -1.25000000E-01 -3.75000000E-01  1.25000000E-01
                      -1.25000000E-01  2.50000000E-01  0.00000000E+00
                      -2.50000000E-01  3.75000000E-01  0.00000000E+00
                      -3.75000000E-01  5.00000000E-01  0.00000000E+00
                      -2.50000000E-01  5.00000000E-01  1.25000000E-01
                      -1.25000000E-01  0.00000000E+00  0.00000000E+00
                      -3.75000000E-01  0.00000000E+00  0.00000000E+00
              kpt2    -2.50000000E-01 -2.50000000E-01  0.00000000E+00
                      -2.50000000E-01  2.50000000E-01  0.00000000E+00
                       5.00000000E-01  5.00000000E-01  0.00000000E+00
                      -2.50000000E-01  5.00000000E-01  2.50000000E-01
                       5.00000000E-01  0.00000000E+00  0.00000000E+00
                       0.00000000E+00  0.00000000E+00  0.00000000E+00
              kpt3    -2.50000000E-01 -2.50000000E-01  0.00000000E+00
                      -2.50000000E-01  2.50000000E-01  0.00000000E+00
                       5.00000000E-01  5.00000000E-01  0.00000000E+00
                      -2.50000000E-01  5.00000000E-01  2.50000000E-01
                       5.00000000E-01  0.00000000E+00  0.00000000E+00
                       0.00000000E+00  0.00000000E+00  0.00000000E+00
              kpt4    -2.50000000E-01 -2.50000000E-01  0.00000000E+00
                      -2.50000000E-01  2.50000000E-01  0.00000000E+00
                       5.00000000E-01  5.00000000E-01  0.00000000E+00
                      -2.50000000E-01  5.00000000E-01  2.50000000E-01
                       5.00000000E-01  0.00000000E+00  0.00000000E+00
                       0.00000000E+00  0.00000000E+00  0.00000000E+00
            kptgw4    -2.50000000E-01 -2.50000000E-01  0.00000000E+00
                      -2.50000000E-01  2.50000000E-01  0.00000000E+00
                       5.00000000E-01  5.00000000E-01  0.00000000E+00
                      -2.50000000E-01  5.00000000E-01  2.50000000E-01
                       5.00000000E-01  0.00000000E+00  0.00000000E+00
                       0.00000000E+00  0.00000000E+00  0.00000000E+00
         kptrlatt1       4   -4    4     -4    4    4     -4   -4    4
         kptrlatt2       2   -2    2     -2    2    2     -2   -2    2
         kptrlatt3       2   -2    2     -2    2    2     -2   -2    2
         kptrlatt4       2   -2    2     -2    2    2     -2   -2    2
          kptrlen1     2.69626124E+01
          kptrlen2     1.34813062E+01
          kptrlen3     1.34813062E+01
          kptrlen4     1.34813062E+01
          kssform1          1
          kssform2          3
          kssform3          1
          kssform4          1
P           mkmem1         10
P           mkmem2          6
P           mkmem3          6
P           mkmem4          6
            natom           2
            nband1          5
            nband2         20
            nband3         20
            nband4         20
         nbandkss1          0
         nbandkss2         20
         nbandkss3          0
         nbandkss4          0
           nbdbuf1          0
           nbdbuf2          2
           nbdbuf3          0
           nbdbuf4          0
           ndtset           4
            ngfft1         15      15      15
            ngfft2         15      15      15
            ngfft3         12      12      12
            ngfft4         12      12      12
             nkpt1         10
             nkpt2          6
             nkpt3          6
             nkpt4          6
           nkptgw1          0
           nkptgw2          0
           nkptgw3          0
           nkptgw4          6
           npweps1          0
           npweps2          0
           npweps3         27
           npweps4         27
          npwsigx1          0
          npwsigx2          0
          npwsigx3          0
          npwsigx4         27
           npwwfn1          0
           npwwfn2          0
           npwwfn3         65
           npwwfn4         65
           nsheps1          0
           nsheps2          0
           nsheps3          4
           nsheps4          4
          nshsigx1          0
          nshsigx2          0
          nshsigx3          0
          nshsigx4          4
            nstep         250
             nsym          48
           ntypat           1
              occ1     2.000000  2.000000  2.000000  2.000000  0.000000
              occ3     2.000000  2.000000  2.000000  2.000000  0.000000  0.000000
                       0.000000  0.000000  0.000000  0.000000  0.000000  0.000000
                       0.000000  0.000000  0.000000  0.000000  0.000000  0.000000
                       0.000000  0.000000
              occ4     2.000000  2.000000  2.000000  2.000000  0.000000  0.000000
                       0.000000  0.000000  0.000000  0.000000  0.000000  0.000000
                       0.000000  0.000000  0.000000  0.000000  0.000000  0.000000
                       0.000000  0.000000
        optdriver1          0
        optdriver2          0
        optdriver3          3
        optdriver4          4
            rprim      0.0000000000E+00  5.0000000000E-01  5.0000000000E-01
                       5.0000000000E-01  0.0000000000E+00  5.0000000000E-01
                       5.0000000000E-01  5.0000000000E-01  0.0000000000E+00
           shiftk1     5.00000000E-01  5.00000000E-01  5.00000000E-01
           shiftk2     0.00000000E+00  0.00000000E+00  0.00000000E+00
           shiftk3     0.00000000E+00  0.00000000E+00  0.00000000E+00
           shiftk4     0.00000000E+00  0.00000000E+00  0.00000000E+00
          spgroup         227
           strten1     4.4719173740E-03  4.4719173740E-03  4.4719173740E-03
                       0.0000000000E+00  0.0000000000E+00  0.0000000000E+00
           strten3     0.0000000000E+00  0.0000000000E+00  0.0000000000E+00
                       0.0000000000E+00  0.0000000000E+00  0.0000000000E+00
           strten4     0.0000000000E+00  0.0000000000E+00  0.0000000000E+00
                       0.0000000000E+00  0.0000000000E+00  0.0000000000E+00
           symchi1       0
           symchi2       0
           symchi3       1
           symchi4       0
           symrel      1  0  0   0  1  0   0  0  1      -1  0  0   0 -1  0   0  0 -1
                       0 -1  1   0 -1  0   1 -1  0       0  1 -1   0  1  0  -1  1  0
                      -1  0  0  -1  0  1  -1  1  0       1  0  0   1  0 -1   1 -1  0
                       0  1 -1   1  0 -1   0  0 -1       0 -1  1  -1  0  1   0  0  1
                      -1  0  0  -1  1  0  -1  0  1       1  0  0   1 -1  0   1  0 -1
                       0 -1  1   1 -1  0   0 -1  0       0  1 -1  -1  1  0   0  1  0
                       1  0  0   0  0  1   0  1  0      -1  0  0   0  0 -1   0 -1  0
                       0  1 -1   0  0 -1   1  0 -1       0 -1  1   0  0  1  -1  0  1
                      -1  0  1  -1  1  0  -1  0  0       1  0 -1   1 -1  0   1  0  0
                       0 -1  0   1 -1  0   0 -1  1       0  1  0  -1  1  0   0  1 -1
                       1  0 -1   0  0 -1   0  1 -1      -1  0  1   0  0  1   0 -1  1
                       0  1  0   0  0  1   1  0  0       0 -1  0   0  0 -1  -1  0  0
                       1  0 -1   0  1 -1   0  0 -1      -1  0  1   0 -1  1   0  0  1
                       0 -1  0   0 -1  1   1 -1  0       0  1  0   0  1 -1  -1  1  0
                      -1  0  1  -1  0  0  -1  1  0       1  0 -1   1  0  0   1 -1  0
                       0  1  0   1  0  0   0  0  1       0 -1  0  -1  0  0   0  0 -1
                       0  0 -1   0  1 -1   1  0 -1       0  0  1   0 -1  1  -1  0  1
                       1 -1  0   0 -1  1   0 -1  0      -1  1  0   0  1 -1   0  1  0
                       0  0  1   1  0  0   0  1  0       0  0 -1  -1  0  0   0 -1  0
                      -1  1  0  -1  0  0  -1  0  1       1 -1  0   1  0  0   1  0 -1
                       0  0  1   0  1  0   1  0  0       0  0 -1   0 -1  0  -1  0  0
                       1 -1  0   0 -1  0   0 -1  1      -1  1  0   0  1  0   0  1 -1
                       0  0 -1   1  0 -1   0  1 -1       0  0  1  -1  0  1   0 -1  1
                      -1  1  0  -1  0  1  -1  0  0       1 -1  0   1  0 -1   1  0  0
            tnons      0.0000000  0.0000000  0.0000000     0.2500000  0.2500000  0.2500000
                       0.0000000  0.0000000  0.0000000     0.2500000  0.2500000  0.2500000
                       0.0000000  0.0000000  0.0000000     0.2500000  0.2500000  0.2500000
                       0.0000000  0.0000000  0.0000000     0.2500000  0.2500000  0.2500000
                       0.0000000  0.0000000  0.0000000     0.2500000  0.2500000  0.2500000
                       0.0000000  0.0000000  0.0000000     0.2500000  0.2500000  0.2500000
                       0.0000000  0.0000000  0.0000000     0.2500000  0.2500000  0.2500000
                       0.0000000  0.0000000  0.0000000     0.2500000  0.2500000  0.2500000
                       0.0000000  0.0000000  0.0000000     0.2500000  0.2500000  0.2500000
                       0.0000000  0.0000000  0.0000000     0.2500000  0.2500000  0.2500000
                       0.0000000  0.0000000  0.0000000     0.2500000  0.2500000  0.2500000
                       0.0000000  0.0000000  0.0000000     0.2500000  0.2500000  0.2500000
                       0.0000000  0.0000000  0.0000000     0.2500000  0.2500000  0.2500000
                       0.0000000  0.0000000  0.0000000     0.2500000  0.2500000  0.2500000
                       0.0000000  0.0000000  0.0000000     0.2500000  0.2500000  0.2500000
                       0.0000000  0.0000000  0.0000000     0.2500000  0.2500000  0.2500000
                       0.0000000  0.0000000  0.0000000     0.2500000  0.2500000  0.2500000
                       0.0000000  0.0000000  0.0000000     0.2500000  0.2500000  0.2500000
                       0.0000000  0.0000000  0.0000000     0.2500000  0.2500000  0.2500000
                       0.0000000  0.0000000  0.0000000     0.2500000  0.2500000  0.2500000
                       0.0000000  0.0000000  0.0000000     0.2500000  0.2500000  0.2500000
                       0.0000000  0.0000000  0.0000000     0.2500000  0.2500000  0.2500000
                       0.0000000  0.0000000  0.0000000     0.2500000  0.2500000  0.2500000
                       0.0000000  0.0000000  0.0000000     0.2500000  0.2500000  0.2500000
           tolvrs1     1.00000000E-10
           tolvrs2     0.00000000E+00
           tolvrs3     0.00000000E+00
           tolvrs4     0.00000000E+00
           tolwfr1     0.00000000E+00
           tolwfr2     1.00000000E-10
           tolwfr3     0.00000000E+00
           tolwfr4     0.00000000E+00
            typat      1  1
              wtk1       0.09375    0.09375    0.09375    0.18750    0.09375    0.09375
                         0.09375    0.18750    0.03125    0.03125
              wtk2       0.18750    0.37500    0.09375    0.18750    0.12500    0.03125
              wtk3       0.18750    0.37500    0.09375    0.18750    0.12500    0.03125
              wtk4       0.18750    0.37500    0.09375    0.18750    0.12500    0.03125
           xangst      0.0000000000E+00  0.0000000000E+00  0.0000000000E+00
                       8.9174999628E-01  8.9174999628E-01  8.9174999628E-01
            xcart      0.0000000000E+00  0.0000000000E+00  0.0000000000E+00
                       1.6851632720E+00  1.6851632720E+00  1.6851632720E+00
             xred      0.0000000000E+00  0.0000000000E+00  0.0000000000E+00
                       2.5000000000E-01  2.5000000000E-01  2.5000000000E-01
            znucl        6.00000

================================================================================


- Timing analysis has been suppressed with timopt=0



================================================================================

 Suggested references for the acknowledgment of ABINIT usage.

 The users of ABINIT have little formal obligations with respect to the ABINIT group
 (those specified in the GNU General Public License, http://www.gnu.org/copyleft/gpl.txt).
 However, it is common practice in the scientific literature,
 to acknowledge the efforts of people that have made the research possible.
 In this spirit, please find below suggested citations of work written by ABINIT developers,
 corresponding to implementations inside of ABINIT that you have used in the present run.
 Note also that it will be of great value to readers of publications presenting these results,
 to read papers enabling them to understand the theoretical formalism and details
 of the ABINIT implementation.
 For information on why they are suggested, see also http://www.abinit.org/about/?text=acknowledgments.

 [1] Effect of self-consistency on quasiparticles in solids
 F. Bruneval, N. Vast, L. Reining, Phys. Rev. B 74, 045102 (2006).
 Comment : in case gwcalctyp >= 10.

 [2] ABINIT : First-principles approach of materials and nanosystem properties.
 X. Gonze, B. Amadon, P.-M. Anglade, J.-M. Beuken, F. Bottin, P. Boulanger, F. Bruneval,
 D. Caliste, R. Caracas, M. Cote, T. Deutsch, L. Genovese, Ph. Ghosez, M. Giantomassi
 S. Goedecker, D.R. Hamann, P. Hermet, F. Jollet, G. Jomard, S. Leroux, M. Mancini, S. Mazevet,
 M.J.T. Oliveira, G. Onida, Y. Pouillon, T. Rangel, G.-M. Rignanese, D. Sangalli, R. Shaltaf,
 M. Torrent, M.J. Verstraete, G. Zerah, J.W. Zwanziger
 Computer Phys. Comm. 180, 2582-2615 (2009).
 Comment : the third generic paper describing the ABINIT project.
 Note that a version of this paper, that is not formatted for Computer Phys. Comm. 
 is available at http://www.abinit.org/about/ABINIT_CPC_v10.pdf .
 The licence allows the authors to put it on the Web.

 [3] A brief introduction to the ABINIT software package.
 X. Gonze, G.-M. Rignanese, M. Verstraete, J.-M. Beuken, Y. Pouillon, R. Caracas, F. Jollet,
 M. Torrent, G. Zerah, M. Mikami, Ph. Ghosez, M. Veithen, J.-Y. Raty, V. Olevano, F. Bruneval,
 L. Reining, R. Godby, G. Onida, D.R. Hamann, and D.C. Allan.
 Z. Kristallogr. 220, 558-562 (2005).
 Comment : the second generic paper describing the ABINIT project. Note that this paper
 should be cited especially if you are using the GW part of ABINIT, as several authors
 of this part are not in the list of authors of the first or third paper.
 The .pdf of the latter paper is available at http://www.abinit.org/about/zfk_0505-06_558-562.pdf.
 Note that it should not redistributed (Copyright by Oldenburg Wissenshaftverlag,
 the licence allows the authors to put it on the Web).


 And optionally :

 [4] First-principles computation of material properties : the ABINIT software project. 
 X. Gonze, J.-M. Beuken, R. Caracas, F. Detraux, M. Fuchs, G.-M. Rignanese, L. Sindic,
 M. Verstraete, G. Zerah, F. Jollet, M. Torrent, A. Roy, M. Mikami, Ph. Ghosez, J.-Y. Raty, D.C. Allan.
 Computational Materials Science 25, 478-492 (2002). http://dx.doi.org/10.1016/S0927-0256(02)00325-7
 Comment : the original paper describing the ABINIT project.

 [5] Fast radix 2, 3, 4 and 5 kernels for Fast Fourier Transformations
 on computers with overlapping multiply-add instructions.
 S. Goedecker, SIAM J. on Scientific Computing 18, 1605 (1997).
-
- Proc.   0 individual time (sec): cpu=          4.1  wall=          4.1

================================================================================

 Calculation completed.
.Delivered   10 WARNINGs and   8 COMMENTs to log file.
+Overall time at end (sec) : cpu=          4.1  wall=          4.1
