
.Version 7.9.3 of ABINIT 
.(MPI version, prepared for a x86_64_linux_gnu4.7 computer) 

.Copyright (C) 1998-2014 ABINIT group . 
 ABINIT comes with ABSOLUTELY NO WARRANTY.
 It is free software, and you are welcome to redistribute it
 under certain conditions (GNU General Public License,
 see ~abinit/COPYING or http://www.gnu.org/copyleft/gpl.txt).

 ABINIT is a project of the Universite Catholique de Louvain,
 Corning Inc. and other collaborators, see ~abinit/doc/developers/contributors.txt .
 Please read ~abinit/doc/users/acknowledgments.html for suggested
 acknowledgments of the ABINIT effort.
 For more information, see http://www.abinit.org .

.Starting date : Sat 30 Aug 2014.
- ( at 22h43 )
  
- input  file    -> t14.in
- output file    -> t14.out
- root for input  files -> t14i
- root for output files -> t14o


 DATASET    1 : space group Fm -3 m (#225); Bravais cF (face-center cubic)
================================================================================
 Values of the parameters that define the memory need for DATASET  1.
   intxc =         0  ionmov =         0    iscf =        17 xclevel =         2
  lmnmax =         8   lnmax =         4   mband =        10  mffmem =         1
P  mgfft =        20   mkmem =         3 mpssoang=         2     mpw =       332
  mqgrid =      3001   natom =         2    nfft =      8000    nkpt =         3
  nloalg =         4  nspden =         1 nspinor =         1  nsppol =         1
    nsym =        48  n1xccc =         1  ntypat =         2  occopt =         1
 PAW method is used; the additional fine FFT grid is defined by:
   mgfftf=        30    nfftf =     27000
================================================================================
P This job should need less than                       9.458 Mbytes of memory.
  Rough estimation (10% accuracy) of disk space for files :
_ WF disk file :      0.154 Mbytes ; DEN or POT disk file :      0.208 Mbytes.
================================================================================


 DATASET    2 : space group Fm -3 m (#225); Bravais cF (face-center cubic)
================================================================================
 Values of the parameters that define the memory need for DATASET  2.
   intxc =         0  ionmov =         0    iscf =        -2 xclevel =         2
  lmnmax =         8   lnmax =         4   mband =        50  mffmem =         1
P  mgfft =        20   mkmem =         3 mpssoang=         2     mpw =       332
  mqgrid =      3001   natom =         2    nfft =      8000    nkpt =         3
  nloalg =         4  nspden =         1 nspinor =         1  nsppol =         1
    nsym =        48  n1xccc =         1  ntypat =         2  occopt =         1
 PAW method is used; the additional fine FFT grid is defined by:
   mgfftf=        30    nfftf =     27000
================================================================================
P This job should need less than                       8.261 Mbytes of memory.
  Rough estimation (10% accuracy) of disk space for files :
_ WF disk file :      0.762 Mbytes ; DEN or POT disk file :      0.208 Mbytes.
================================================================================


 DATASET    3 : space group Fm -3 m (#225); Bravais cF (face-center cubic)
================================================================================
 Values of the parameters that define the memory need for DATASET  3.
   intxc =         0  ionmov =         0    iscf =        17 xclevel =         2
  lmnmax =         8   lnmax =         4   mband =        50  mffmem =         1
P  mgfft =        20   mkmem =         3 mpssoang=         2     mpw =       307
  mqgrid =      3001   natom =         2    nfft =      8000    nkpt =         3
  nloalg =         4  nspden =         1 nspinor =         1  nsppol =         1
    nsym =        48  n1xccc =         1  ntypat =         2  occopt =         1
 PAW method is used; the additional fine FFT grid is defined by:
   mgfftf=        30    nfftf =     27000
================================================================================
P This job should need less than                      10.008 Mbytes of memory.
  Rough estimation (10% accuracy) of disk space for files :
_ WF disk file :      0.705 Mbytes ; DEN or POT disk file :      0.208 Mbytes.
================================================================================


 DATASET    4 : space group Fm -3 m (#225); Bravais cF (face-center cubic)
================================================================================
 Values of the parameters that define the memory need for DATASET  4.
   intxc =         0  ionmov =         0    iscf =        17 xclevel =         2
  lmnmax =         8   lnmax =         4   mband =         7  mffmem =         1
P  mgfft =        20   mkmem =         3 mpssoang=         2     mpw =       307
  mqgrid =      3001   natom =         2    nfft =      8000    nkpt =         3
  nloalg =         4  nspden =         1 nspinor =         1  nsppol =         1
    nsym =        48  n1xccc =         1  ntypat =         2  occopt =         1
 PAW method is used; the additional fine FFT grid is defined by:
   mgfftf=        30    nfftf =     27000
================================================================================
P This job should need less than                       9.401 Mbytes of memory.
  Rough estimation (10% accuracy) of disk space for files :
_ WF disk file :      0.100 Mbytes ; DEN or POT disk file :      0.208 Mbytes.
================================================================================

--------------------------------------------------------------------------------
------------- Echo of variables that govern the present computation ------------
--------------------------------------------------------------------------------
-
- outvars: echo of selected default values                                      
-   accesswff0 =  0 , fftalg0 =112 , wfoptalg0 = 10
-
- outvars: echo of global parameters not present in the input file              
-  max_nthreads =    0
-
 -outvars: echo values of preprocessed input variables --------
            acell      7.7034756000E+00  7.7034756000E+00  7.7034756000E+00 Bohr
              amu      6.94100000E+00  1.89984032E+01
     bs_algorithm1          1
     bs_algorithm2          1
     bs_algorithm3          1
     bs_algorithm4          2
      bs_coupling1          1
      bs_coupling2          1
      bs_coupling3          1
      bs_coupling4          0
     bs_freq_mesh1     0.00000000E+00  0.00000000E+00  3.67493254E-04 Hartree
     bs_freq_mesh2     0.00000000E+00  0.00000000E+00  3.67493254E-04 Hartree
     bs_freq_mesh3     0.00000000E+00  0.00000000E+00  3.67493254E-04 Hartree
     bs_freq_mesh4     0.00000000E+00  8.81983810E-01  3.67493254E-03 Hartree
 bs_haydock_niter1        100
 bs_haydock_niter2        100
 bs_haydock_niter3        100
 bs_haydock_niter4        160
     bs_hayd_term1          1
     bs_hayd_term2          1
     bs_hayd_term3          1
     bs_hayd_term4          0
        bs_loband1          0
        bs_loband2          0
        bs_loband3          0
        bs_loband4          2
             ecut1     1.50000000E+01 Hartree
             ecut2     1.50000000E+01 Hartree
             ecut3     1.46355482E+01 Hartree
             ecut4     1.46355482E+01 Hartree
          ecuteps1     0.00000000E+00 Hartree
          ecuteps2     0.00000000E+00 Hartree
          ecuteps3     2.66100877E+00 Hartree
          ecuteps4     2.66100877E+00 Hartree
          ecutwfn1     0.00000000E+00 Hartree
          ecutwfn2     0.00000000E+00 Hartree
          ecutwfn3     1.46355482E+01 Hartree
          ecutwfn4     1.46355482E+01 Hartree
-          fftalg         112
           getden1          0
           getden2          1
           getden3          0
           getden4          0
           getkss1          0
           getkss2          0
           getkss3          2
           getkss4          2
           getscr1          0
           getscr2          0
           getscr3          0
           getscr4          3
         icutcoul           3
             iscf1         17
             iscf2         -2
             iscf3         17
             iscf4         17
           istwfk        1    1    1
              ixc          11
           jdtset        1    2    3    4
              kpt      0.00000000E+00  0.00000000E+00  0.00000000E+00
                       5.00000000E-01  0.00000000E+00  0.00000000E+00
                       5.00000000E-01  5.00000000E-01  0.00000000E+00
         kptrlatt        2    0    0      0    2    0      0    0    2
          kptrlen      1.08943597E+01
          kssform1          1
          kssform2          3
          kssform3          1
          kssform4          1
P           mkmem           3
            natom           2
            nband1         10
            nband2         50
            nband3         50
            nband4          7
         nbandkss1          0
         nbandkss2         50
         nbandkss3          0
         nbandkss4          0
           nbdbuf1          0
           nbdbuf2          4
           nbdbuf3          0
           nbdbuf4          0
           ndtset           4
          nfreqim1         -1
          nfreqim2         -1
          nfreqim3          0
          nfreqim4         -1
          nfreqre1         -1
          nfreqre2         -1
          nfreqre3          1
          nfreqre4         -1
            ngfft          20      20      20
          ngfftdg          30      30      30
             nkpt           3
           npweps1          0
           npweps2          0
           npweps3         27
           npweps4         27
           npwwfn1          0
           npwwfn2          0
           npwwfn3        331
           npwwfn4        331
           nsheps1          0
           nsheps2          0
           nsheps3          4
           nsheps4          4
            nstep          50
             nsym          48
           ntypat           2
              occ1     2.000000  2.000000  2.000000  2.000000  2.000000  0.000000
                       0.000000  0.000000  0.000000  0.000000
              occ3     2.000000  2.000000  2.000000  2.000000  2.000000  0.000000
                       0.000000  0.000000  0.000000  0.000000  0.000000  0.000000
                       0.000000  0.000000  0.000000  0.000000  0.000000  0.000000
                       0.000000  0.000000  0.000000  0.000000  0.000000  0.000000
                       0.000000  0.000000  0.000000  0.000000  0.000000  0.000000
                       0.000000  0.000000  0.000000  0.000000  0.000000  0.000000
                       0.000000  0.000000  0.000000  0.000000  0.000000  0.000000
                       0.000000  0.000000  0.000000  0.000000  0.000000  0.000000
                       0.000000  0.000000
              occ4     2.000000  2.000000  2.000000  2.000000  2.000000  0.000000
                       0.000000
        optdriver1          0
        optdriver2          0
        optdriver3          3
        optdriver4         99
        pawecutdg      3.00000000E+01 Hartree
            rprim      0.0000000000E+00  5.0000000000E-01  5.0000000000E-01
                       5.0000000000E-01  0.0000000000E+00  5.0000000000E-01
                       5.0000000000E-01  5.0000000000E-01  0.0000000000E+00
         soenergy1     0.00000000E+00 Hartree
         soenergy2     0.00000000E+00 Hartree
         soenergy3     0.00000000E+00 Hartree
         soenergy4     1.91096492E-01 Hartree
          spgroup         225
           symchi1       0
           symchi2       0
           symchi3       1
           symchi4       0
           symrel      1  0  0   0  1  0   0  0  1      -1  0  0   0 -1  0   0  0 -1
                       0 -1  1   0 -1  0   1 -1  0       0  1 -1   0  1  0  -1  1  0
                      -1  0  0  -1  0  1  -1  1  0       1  0  0   1  0 -1   1 -1  0
                       0  1 -1   1  0 -1   0  0 -1       0 -1  1  -1  0  1   0  0  1
                      -1  0  0  -1  1  0  -1  0  1       1  0  0   1 -1  0   1  0 -1
                       0 -1  1   1 -1  0   0 -1  0       0  1 -1  -1  1  0   0  1  0
                       1  0  0   0  0  1   0  1  0      -1  0  0   0  0 -1   0 -1  0
                       0  1 -1   0  0 -1   1  0 -1       0 -1  1   0  0  1  -1  0  1
                      -1  0  1  -1  1  0  -1  0  0       1  0 -1   1 -1  0   1  0  0
                       0 -1  0   1 -1  0   0 -1  1       0  1  0  -1  1  0   0  1 -1
                       1  0 -1   0  0 -1   0  1 -1      -1  0  1   0  0  1   0 -1  1
                       0  1  0   0  0  1   1  0  0       0 -1  0   0  0 -1  -1  0  0
                       1  0 -1   0  1 -1   0  0 -1      -1  0  1   0 -1  1   0  0  1
                       0 -1  0   0 -1  1   1 -1  0       0  1  0   0  1 -1  -1  1  0
                      -1  0  1  -1  0  0  -1  1  0       1  0 -1   1  0  0   1 -1  0
                       0  1  0   1  0  0   0  0  1       0 -1  0  -1  0  0   0  0 -1
                       0  0 -1   0  1 -1   1  0 -1       0  0  1   0 -1  1  -1  0  1
                       1 -1  0   0 -1  1   0 -1  0      -1  1  0   0  1 -1   0  1  0
                       0  0  1   1  0  0   0  1  0       0  0 -1  -1  0  0   0 -1  0
                      -1  1  0  -1  0  0  -1  0  1       1 -1  0   1  0  0   1  0 -1
                       0  0  1   0  1  0   1  0  0       0  0 -1   0 -1  0  -1  0  0
                       1 -1  0   0 -1  0   0 -1  1      -1  1  0   0  1  0   0  1 -1
                       0  0 -1   1  0 -1   0  1 -1       0  0  1  -1  0  1   0 -1  1
                      -1  1  0  -1  0  1  -1  0  0       1 -1  0   1  0 -1   1  0  0
           timopt          -1
           tolvrs1     1.00000000E-12
           tolvrs2     0.00000000E+00
           tolvrs3     0.00000000E+00
           tolvrs4     0.00000000E+00
           tolwfr1     0.00000000E+00
           tolwfr2     1.00000000E-12
           tolwfr3     0.00000000E+00
           tolwfr4     0.00000000E+00
            typat      1  2
           useylm           1
              wtk        0.12500    0.50000    0.37500
           xangst      0.0000000000E+00  0.0000000000E+00  0.0000000000E+00
                      -2.0382518572E+00  0.0000000000E+00  0.0000000000E+00
            xcart      0.0000000000E+00  0.0000000000E+00  0.0000000000E+00
                      -3.8517378000E+00  0.0000000000E+00  0.0000000000E+00
             xred      0.0000000000E+00  0.0000000000E+00  0.0000000000E+00
                       5.0000000000E-01 -5.0000000000E-01 -5.0000000000E-01
             zcut1     3.67493260E-03 Hartree
             zcut2     3.67493260E-03 Hartree
             zcut3     3.67493260E-03 Hartree
             zcut4     5.51239881E-03 Hartree
            znucl        3.00000    9.00000

================================================================================

 chkinp: Checking input parameters for consistency, jdtset=   1.

 chkinp: Checking input parameters for consistency, jdtset=   2.

 chkinp: Checking input parameters for consistency, jdtset=   3.

 chkinp: Checking input parameters for consistency, jdtset=   4.

================================================================================
== DATASET  1 ==================================================================
-   nproc =    1

 Exchange-correlation functional for the present dataset will be:
  GGA: Perdew-Burke-Ernzerhof functional - ixc=11
 Citation for XC functional:
  J.P.Perdew, K.Burke, M.Ernzerhof, PRL 77, 3865 (1996)

 Real(R)+Recip(G) space primitive vectors, cartesian coordinates (Bohr,Bohr^-1):
 R(1)=  0.0000000  3.8517378  3.8517378  G(1)= -0.1298115  0.1298115  0.1298115
 R(2)=  3.8517378  0.0000000  3.8517378  G(2)=  0.1298115 -0.1298115  0.1298115
 R(3)=  3.8517378  3.8517378  0.0000000  G(3)=  0.1298115  0.1298115 -0.1298115
 Unit cell volume ucvol=  1.1428787E+02 bohr^3
 Angles (23,13,12)=  6.00000000E+01  6.00000000E+01  6.00000000E+01 degrees

 Coarse grid specifications (used for wave-functions):

 getcut: wavevector=  0.0000  0.0000  0.0000  ngfft=  20  20  20
         ecut(hartree)=     15.000   => boxcut(ratio)=   2.10595

 Fine grid specifications (used for densities):

 getcut: wavevector=  0.0000  0.0000  0.0000  ngfft=  30  30  30
         ecut(hartree)=     30.000   => boxcut(ratio)=   2.23618

 getcut : COMMENT -
  Note that boxcut > 2.2 ; recall that boxcut=Gcut(box)/Gcut(sphere) = 2
  is sufficient for exact treatment of convolution.
  Such a large boxcut is a waste : you could raise ecut
  e.g. ecut=   37.503592 Hartrees makes boxcut=2


--- Pseudopotential description ------------------------------------------------
- pspini: atom type   1  psp file is /home/gonze/ABINIT/ABINITv7.9.3/trunk/7.9.3-private/tests/Psps_for_tests/li.PBE.atompaw.paw
- pspatm: opening atomic psp file    /home/gonze/ABINIT/ABINITv7.9.3/trunk/7.9.3-private/tests/Psps_for_tests/li.PBE.atompaw.paw
- Paw atomic data for element Li - Generated by AtomPAW + AtomPAW2Abinit v3.2.0
-  3.00000   3.00000  20090329                znucl, zion, pspdat
    7   11    1    0       434   0.00000      pspcod,pspxc,lmax,lloc,mmax,r2well
 Pseudopotential format is: paw4
 basis_size (lnmax)=  3 (lmn_size=  5), orbitals=   0   0   1
 Spheres core radius: rc_sph= 1.81921554
 3 radial meshes are used:
  - mesh 1: r(i)=AA*[exp(BB*(i-1))-1], size= 434 , AA= 0.46508E-02 BB= 0.13952E-01
  - mesh 2: r(i)=AA*[exp(BB*(i-1))-1], size= 429 , AA= 0.46508E-02 BB= 0.13952E-01
  - mesh 3: r(i)=AA*[exp(BB*(i-1))-1], size= 551 , AA= 0.46508E-02 BB= 0.13952E-01
 Shapefunction is SIN type: shapef(r)=[sin(pi*r/rshp)/(pi*r/rshp)]**2
 Radius for shape functions = sphere core radius
 Radial grid used for partial waves is grid 1
 Radial grid used for projectors is grid  2
 Radial grid used for (t)core density is grid 1
 Radial grid used for Vloc is grid 3
 Radial grid used for pseudo valence density is grid 3
 Compensation charge density is taken into account in XC energy/potential
 pspatm: atomic psp has been read  and splines computed

- pspini: atom type   2  psp file is /home/gonze/ABINIT/ABINITv7.9.3/trunk/7.9.3-private/tests/Psps_for_tests/F.noRSO.rc1.4.pawps
- pspatm: opening atomic psp file    /home/gonze/ABINIT/ABINITv7.9.3/trunk/7.9.3-private/tests/Psps_for_tests/F.noRSO.rc1.4.pawps
- Paw atomic data for element F - Generated by AtomPAW (N. Holzwarth) + AtomPAW2Abinit v3.1.1
-  9.00000   7.00000  20070403                znucl, zion, pspdat
    7    7    1    0       443   0.00000      pspcod,pspxc,lmax,lloc,mmax,r2well
 Pseudopotential format is: paw3
 basis_size (lnmax)=  4 (lmn_size=  8), orbitals=   0   0   1   1
 Spheres core radius: rc_sph= 1.41926478
 3 radial meshes are used:
  - mesh 1: r(i)=AA*[exp(BB*(i-1))-1], size= 443 , AA= 0.17094E-02 BB= 0.15384E-01
  - mesh 2: r(i)=AA*[exp(BB*(i-1))-1], size= 438 , AA= 0.17094E-02 BB= 0.15384E-01
  - mesh 3: r(i)=AA*[exp(BB*(i-1))-1], size= 564 , AA= 0.17094E-02 BB= 0.15384E-01
 Shapefunction is SIN type: shapef(r)=[sin(pi*r/rshp)/(pi*r/rshp)]**2
 Radius for shape functions = sphere core radius
 Radial grid used for partial waves is grid 1
 Radial grid used for projectors is grid  2
 Radial grid used for (t)core density is grid 1
 Radial grid used for Vloc is grid 3
 Compensation charge density is taken into account in XC energy/potential
 pspatm: atomic psp has been read  and splines computed

   1.11704948E+02                                ecore*ucvol(ha*bohr**3)
--------------------------------------------------------------------------------

P newkpt: treating     10 bands with npw=     331 for ikpt=   1 by node    0
P newkpt: treating     10 bands with npw=     332 for ikpt=   2 by node    0
P newkpt: treating     10 bands with npw=     326 for ikpt=   3 by node    0

_setup2: Arith. and geom. avg. npw (full set) are     329.625     329.613

================================================================================

     iter   Etot(hartree)      deltaE(h)  residm     nres2
 ETOT  1  -32.184518772403    -3.218E+01 4.990E+00 3.110E+02
 ETOT  2  -32.247753304432    -6.323E-02 3.641E-02 8.295E+01
 ETOT  3  -32.021899259017     2.259E-01 2.346E-02 2.839E+00
 ETOT  4  -32.024400043558    -2.501E-03 1.447E-03 3.909E-01
 ETOT  5  -32.024063707060     3.363E-04 3.238E-04 1.301E-02
 ETOT  6  -32.024030874821     3.283E-05 5.255E-05 1.559E-03
 ETOT  7  -32.024023706528     7.168E-06 6.054E-05 1.705E-04
 ETOT  8  -32.024024160850    -4.543E-07 1.711E-05 1.457E-06
 ETOT  9  -32.024026668123    -2.507E-06 2.817E-05 8.137E-08
 ETOT 10  -32.024026649485     1.864E-08 1.218E-05 4.729E-07
 ETOT 11  -32.024026623253     2.623E-08 1.950E-05 2.531E-07
 ETOT 12  -32.024026342404     2.808E-07 9.175E-06 8.002E-08
 ETOT 13  -32.024026422367    -7.996E-08 1.476E-05 9.050E-09
 ETOT 14  -32.024026430019    -7.652E-09 7.021E-06 3.230E-09
 ETOT 15  -32.024026424028     5.991E-09 1.125E-05 9.508E-11
 ETOT 16  -32.024026424556    -5.281E-10 5.428E-06 4.407E-12
 ETOT 17  -32.024026424601    -4.434E-11 8.603E-06 5.437E-12
 ETOT 18  -32.024026424450     1.508E-10 4.186E-06 2.113E-12
 ETOT 19  -32.024026424225     2.251E-10 6.571E-06 1.784E-13

 At SCF step   19       nres2   =  1.78E-13 < tolvrs=  1.00E-12 =>converged.

 Cartesian components of stress tensor (hartree/bohr^3)
  sigma(1 1)=  6.26123856E-05  sigma(3 2)=  0.00000000E+00
  sigma(2 2)=  6.26123856E-05  sigma(3 1)=  0.00000000E+00
  sigma(3 3)=  6.26123856E-05  sigma(2 1)=  0.00000000E+00


 PAW TEST:
 ==== Compensation charge inside spheres ============
 The following values must be close to each other ...
 Compensation charge over spherical meshes =      2.616712915188497
 Compensation charge over fine fft grid    =      2.616692695663463

 ==== Results concerning PAW augmentation regions ====

 Total pseudopotential strength Dij (hartree):
 Atom #  1
  -1.57197  -1.28377   0.00000   0.00000   0.00000
  -1.28377  -1.78582   0.00000   0.00000   0.00000
   0.00000   0.00000  -0.00055   0.00000   0.00000
   0.00000   0.00000   0.00000  -0.00055   0.00000
   0.00000   0.00000   0.00000   0.00000  -0.00055
 Atom #  2
   0.76529  -1.69260   0.00000   0.00000   0.00000   0.00000   0.00000   0.00000
  -1.69260   3.81220   0.00000   0.00000   0.00000   0.00000   0.00000   0.00000
   0.00000   0.00000  -0.34036   0.00000   0.00000   1.66389   0.00000   0.00000
   0.00000   0.00000   0.00000  -0.34036   0.00000   0.00000   1.66389   0.00000
   0.00000   0.00000   0.00000   0.00000  -0.34036   0.00000   0.00000   1.66389
   0.00000   0.00000   1.66389   0.00000   0.00000  -3.31014   0.00000   0.00000
   0.00000   0.00000   0.00000   1.66389   0.00000   0.00000  -3.31014   0.00000
   0.00000   0.00000   0.00000   0.00000   1.66389   0.00000   0.00000  -3.31014


 Augmentation waves occupancies Rhoij:
 Atom #  1
   2.38604  -0.41165   0.00000   0.00000   0.00000
  -0.41165   0.44015   0.00000   0.00000   0.00000
   0.00000   0.00000   0.30801   0.00000   0.00000
   0.00000   0.00000   0.00000   0.30801   0.00000
   0.00000   0.00000   0.00000   0.00000   0.30801
 Atom #  2
   1.99656   0.02251   0.00000   0.00000   0.00000   0.00000   0.00000   0.00000
   0.02251   0.00027   0.00000   0.00000   0.00000   0.00000   0.00000   0.00000
   0.00000   0.00000   2.17871   0.00000   0.00000   0.03014   0.00000   0.00000
   0.00000   0.00000   0.00000   2.17871   0.00000   0.00000   0.03014   0.00000
   0.00000   0.00000   0.00000   0.00000   2.17871   0.00000   0.00000   0.03014
   0.00000   0.00000   0.03014   0.00000   0.00000   0.00047   0.00000   0.00000
   0.00000   0.00000   0.00000   0.03014   0.00000   0.00000   0.00047   0.00000
   0.00000   0.00000   0.00000   0.00000   0.03014   0.00000   0.00000   0.00047


================================================================================

 ----iterations are completed or convergence reached----

 Mean square residual over all n,k,spin=   2.1902E-07; max=  6.5706E-06
   0.0000  0.0000  0.0000    1  5.54036E-13 kpt; spin; max resid(k); each band:
  8.80E-16 3.77E-16 7.06E-19 7.06E-19 7.06E-19 1.11E-15 1.74E-13 5.29E-13
  5.54E-13 1.55E-20
   0.5000  0.0000  0.0000    1  6.57055E-06 kpt; spin; max resid(k); each band:
  5.32E-16 5.11E-20 3.69E-16 1.35E-20 1.25E-20 2.12E-19 6.94E-16 5.08E-19
  5.08E-19 6.57E-06
   0.5000  0.5000  0.0000    1  1.66324E-15 kpt; spin; max resid(k); each band:
  6.62E-16 3.19E-17 2.30E-19 6.34E-19 6.35E-19 3.06E-19 1.50E-21 1.66E-15
  1.07E-18 1.07E-18
 reduced coordinates (array xred) for    2 atoms
       0.000000000000      0.000000000000      0.000000000000
       0.500000000000     -0.500000000000     -0.500000000000
 rms dE/dt=  0.0000E+00; max dE/dt=  0.0000E+00; dE/dt below (all hartree)
    1       0.000000000000      0.000000000000      0.000000000000
    2       0.000000000000      0.000000000000      0.000000000000

 cartesian coordinates (angstrom) at end:
    1      0.00000000000000     0.00000000000000     0.00000000000000
    2     -2.03825185722459     0.00000000000000     0.00000000000000

 cartesian forces (hartree/bohr) at end:
    1     -0.00000000000000    -0.00000000000000    -0.00000000000000
    2     -0.00000000000000    -0.00000000000000    -0.00000000000000
 frms,max,avg= 0.0000000E+00 0.0000000E+00   0.000E+00  0.000E+00  0.000E+00 h/b

 cartesian forces (eV/Angstrom) at end:
    1     -0.00000000000000    -0.00000000000000    -0.00000000000000
    2     -0.00000000000000    -0.00000000000000    -0.00000000000000
 frms,max,avg= 0.0000000E+00 0.0000000E+00   0.000E+00  0.000E+00  0.000E+00 e/A
 length scales=  7.703475600000  7.703475600000  7.703475600000 bohr
              =  4.076503714449  4.076503714449  4.076503714449 angstroms
 prteigrs : about to open file t14o_DS1_EIG
 Fermi (or HOMO) energy (hartree) =  -0.04130   Average Vxc (hartree)=  -0.36674
 Eigenvalues (hartree) for nkpt=   3  k points:
 kpt#   1, nband= 10, wtk=  0.12500, kpt=  0.0000  0.0000  0.0000 (reduced coord)
  -1.57092  -0.77312  -0.04130  -0.04130  -0.04130   0.28275   0.82225   0.82225
   0.82225   0.83597
 kpt#   2, nband= 10, wtk=  0.50000, kpt=  0.5000  0.0000  0.0000 (reduced coord)
  -1.56916  -0.75827  -0.13006  -0.04907  -0.04907   0.34429   0.56260   0.64131
   0.64131   1.06238
 kpt#   3, nband= 10, wtk=  0.37500, kpt=  0.5000  0.5000  0.0000 (reduced coord)
  -1.56870  -0.74938  -0.14670  -0.07616  -0.07616   0.49018   0.55277   0.59412
   0.68644   0.68644
 Total charge density [el/Bohr^3]
,     Maximum=    1.3905E+00  at reduced coord.    0.5000    0.5000    0.5333
,Next maximum=    1.3905E+00  at reduced coord.    0.4667    0.5000    0.5333
,     Minimum=    4.7787E-03  at reduced coord.    0.2667    0.2333    0.2333
,Next minimum=    4.7787E-03  at reduced coord.    0.2333    0.2667    0.2333
,  Integrated=    1.0000E+01

--------------------------------------------------------------------------------
 Components of total free energy (in Hartree) :

    Kinetic energy  =  1.09104044904452E+01
    Hartree energy  =  7.56133355472896E+00
    XC energy       = -5.92089146509876E+00
    Ewald energy    = -2.02305295457931E+01
    PspCore energy  =  9.77399848528713E-01
    Loc. psp. energy= -2.53544669877009E+01
    Spherical terms =  3.27235589113846E-02
    >>>>>>>>> Etotal= -3.20240265459785E+01

 "Double-counting" decomposition of free energy:
    Band energy     = -5.13545560222358E+00
    Ewald energy    = -2.02305295457931E+01
    PspCore energy  =  9.77399848528713E-01
    Dble-C XC-energy= -5.80368506676029E+00
    Spherical terms = -1.83175605797646E+00
    >>>> Etotal (DC)= -3.20240264242248E+01

  >Total energy in eV           = -8.71418079085452E+02
  >Total DC energy in eV        = -8.71418075772363E+02
--------------------------------------------------------------------------------

 Cartesian components of stress tensor (hartree/bohr^3)
  sigma(1 1)=  6.26123856E-05  sigma(3 2)=  0.00000000E+00
  sigma(2 2)=  6.26123856E-05  sigma(3 1)=  0.00000000E+00
  sigma(3 3)=  6.26123856E-05  sigma(2 1)=  0.00000000E+00

-Cartesian components of stress tensor (GPa)         [Pressure= -1.8421E+00 GPa]
- sigma(1 1)=  1.84211967E+00  sigma(3 2)=  0.00000000E+00
- sigma(2 2)=  1.84211967E+00  sigma(3 1)=  0.00000000E+00
- sigma(3 3)=  1.84211967E+00  sigma(2 1)=  0.00000000E+00

================================================================================
== DATASET  2 ==================================================================
-   nproc =    1

 mkfilename : getden/=0, take file _DEN from output of DATASET   1.

 Exchange-correlation functional for the present dataset will be:
  GGA: Perdew-Burke-Ernzerhof functional - ixc=11
 Citation for XC functional:
  J.P.Perdew, K.Burke, M.Ernzerhof, PRL 77, 3865 (1996)

 Real(R)+Recip(G) space primitive vectors, cartesian coordinates (Bohr,Bohr^-1):
 R(1)=  0.0000000  3.8517378  3.8517378  G(1)= -0.1298115  0.1298115  0.1298115
 R(2)=  3.8517378  0.0000000  3.8517378  G(2)=  0.1298115 -0.1298115  0.1298115
 R(3)=  3.8517378  3.8517378  0.0000000  G(3)=  0.1298115  0.1298115 -0.1298115
 Unit cell volume ucvol=  1.1428787E+02 bohr^3
 Angles (23,13,12)=  6.00000000E+01  6.00000000E+01  6.00000000E+01 degrees

 Coarse grid specifications (used for wave-functions):

 getcut: wavevector=  0.0000  0.0000  0.0000  ngfft=  20  20  20
         ecut(hartree)=     15.000   => boxcut(ratio)=   2.10595

 Fine grid specifications (used for densities):

 getcut: wavevector=  0.0000  0.0000  0.0000  ngfft=  30  30  30
         ecut(hartree)=     30.000   => boxcut(ratio)=   2.23618

 getcut : COMMENT -
  Note that boxcut > 2.2 ; recall that boxcut=Gcut(box)/Gcut(sphere) = 2
  is sufficient for exact treatment of convolution.
  Such a large boxcut is a waste : you could raise ecut
  e.g. ecut=   37.503592 Hartrees makes boxcut=2

--------------------------------------------------------------------------------

P newkpt: treating     50 bands with npw=     331 for ikpt=   1 by node    0
P newkpt: treating     50 bands with npw=     332 for ikpt=   2 by node    0
P newkpt: treating     50 bands with npw=     326 for ikpt=   3 by node    0


================================================================================
 prteigrs : about to open file t14o_DS2_EIG
 Non-SCF case, kpt    1 (  0.00000  0.00000  0.00000), residuals and eigenvalues=
  8.19E-13  4.82E-14  1.53E-13  4.81E-14  3.61E-14  6.57E-14  3.40E-14  2.05E-14
  2.02E-14  1.53E-13  6.81E-13  6.40E-14  7.41E-14  7.78E-13  3.14E-14  6.62E-14
  1.76E-14  3.73E-14  5.37E-13  2.98E-13  2.92E-13  4.20E-13  5.84E-13  4.89E-13
  6.26E-13  7.43E-13  1.40E-13  1.96E-13  2.51E-13  2.90E-13  4.06E-13  3.71E-13
  1.32E-13  6.06E-13  3.76E-13  9.10E-13  8.29E-13  3.53E-13  4.51E-13  7.46E-13
  4.04E-13  6.11E-13  5.13E-13  9.64E-13  9.37E-13  5.89E-13  2.26E-09  1.99E-07
  3.95E-05  5.79E-06
 -1.5709E+00 -7.7312E-01 -4.1296E-02 -4.1296E-02 -4.1296E-02  2.8275E-01
  8.2225E-01  8.2225E-01  8.2225E-01  8.3597E-01  8.3597E-01  8.3597E-01
  9.3996E-01  1.0975E+00  1.0975E+00  1.5686E+00  1.5686E+00  1.5686E+00
  1.7111E+00  2.2875E+00  2.2875E+00  2.2875E+00  2.3665E+00  2.4268E+00
  2.4268E+00  2.4579E+00  2.4579E+00  2.4579E+00  2.5384E+00  2.5384E+00
  2.5384E+00  2.9913E+00  2.9913E+00  3.2158E+00  3.2158E+00  3.2158E+00
  3.3848E+00  3.3848E+00  3.3848E+00  3.4376E+00  3.4376E+00  3.4376E+00
  3.4801E+00  3.4801E+00  3.4801E+00  3.4834E+00  3.5582E+00  3.5582E+00
  3.5582E+00  3.5815E+00
  prteigrs : nnsclo,ikpt=   50    1 max resid (incl. the buffer)=  3.95308E-05
 Non-SCF case, kpt    2 (  0.50000  0.00000  0.00000), residuals and eigenvalues=
  2.66E-13  3.26E-14  4.26E-14  4.85E-14  6.22E-14  6.93E-13  2.19E-14  2.02E-13
  4.97E-13  5.07E-13  2.23E-14  6.64E-13  4.04E-13  7.86E-13  2.82E-14  5.61E-13
  5.46E-14  7.31E-14  4.97E-13  4.06E-14  2.93E-14  2.93E-14  2.31E-13  3.20E-13
  2.89E-13  1.16E-13  1.32E-13  2.80E-13  2.79E-13  4.11E-13  4.15E-13  6.30E-13
  7.89E-14  8.85E-14  5.79E-13  3.39E-13  2.12E-13  4.40E-13  3.72E-13  6.03E-13
  3.69E-13  3.52E-13  9.72E-13  2.84E-13  8.19E-13  6.98E-13  8.20E-13  4.84E-06
  3.28E-07  5.18E-07
 -1.5692E+00 -7.5827E-01 -1.3006E-01 -4.9069E-02 -4.9069E-02  3.4429E-01
  5.6260E-01  6.4131E-01  6.4131E-01  1.0623E+00  1.0745E+00  1.0745E+00
  1.1626E+00  1.2908E+00  1.2908E+00  1.5892E+00  1.5892E+00  1.6665E+00
  1.8542E+00  1.8731E+00  1.8731E+00  1.9579E+00  2.1626E+00  2.1626E+00
  2.3211E+00  2.4242E+00  2.5419E+00  2.5419E+00  2.5678E+00  2.5678E+00
  2.6678E+00  2.6678E+00  2.6700E+00  2.6820E+00  2.7489E+00  3.0967E+00
  3.0967E+00  3.2289E+00  3.2679E+00  3.2679E+00  3.3054E+00  3.4780E+00
  3.5340E+00  3.5340E+00  3.7632E+00  3.7632E+00  3.7644E+00  3.9087E+00
  3.9264E+00  3.9266E+00
  prteigrs : nnsclo,ikpt=   50    2 max resid (incl. the buffer)=  4.84300E-06
 Non-SCF case, kpt    3 (  0.50000  0.50000  0.00000), residuals and eigenvalues=
  3.92E-13  6.28E-13  2.45E-13  2.10E-14  1.31E-13  5.15E-14  5.62E-14  1.86E-13
  4.02E-13  2.00E-14  8.53E-13  1.43E-14  3.58E-14  2.53E-13  5.47E-14  8.18E-13
  6.42E-14  1.99E-14  4.91E-14  4.87E-14  1.44E-14  5.35E-14  7.31E-14  2.20E-14
  7.80E-13  2.35E-13  3.14E-13  3.80E-13  4.28E-13  6.40E-13  1.18E-13  8.41E-13
  3.65E-13  2.50E-13  5.50E-13  7.79E-13  1.13E-13  2.48E-13  3.25E-13  1.35E-13
  7.22E-13  3.27E-13  4.56E-13  5.76E-13  6.38E-13  7.15E-13  2.09E-07  2.22E-05
  1.37E-04  9.66E-05
 -1.5687E+00 -7.4938E-01 -1.4670E-01 -7.6165E-02 -7.6165E-02  4.9018E-01
  5.5277E-01  5.9412E-01  6.8644E-01  6.8644E-01  1.1550E+00  1.3414E+00
  1.4029E+00  1.4479E+00  1.4479E+00  1.5393E+00  1.5538E+00  1.5538E+00
  1.7294E+00  1.7294E+00  1.8777E+00  1.8933E+00  2.0586E+00  2.0586E+00
  2.1400E+00  2.1834E+00  2.4789E+00  2.5582E+00  2.6800E+00  2.7030E+00
  2.7030E+00  2.7903E+00  2.7903E+00  2.8145E+00  2.8231E+00  2.8240E+00
  3.0466E+00  3.1542E+00  3.1542E+00  3.1873E+00  3.1953E+00  3.5634E+00
  3.5634E+00  3.6334E+00  3.8736E+00  3.8736E+00  3.9908E+00  4.0562E+00
  4.0962E+00  4.1164E+00
  prteigrs : nnsclo,ikpt=   50    3 max resid (incl. the buffer)=  1.36821E-04

 PAW TEST:
 ==== Compensation charge inside spheres ============
 Compensation charge over spherical meshes =      2.616712970865450

 ==== Results concerning PAW augmentation regions ====

 Total pseudopotential strength Dij (hartree):
 Atom #  1
  -1.57197  -1.28377   0.00000   0.00000   0.00000
  -1.28377  -1.78582   0.00000   0.00000   0.00000
   0.00000   0.00000  -0.00055   0.00000   0.00000
   0.00000   0.00000   0.00000  -0.00055   0.00000
   0.00000   0.00000   0.00000   0.00000  -0.00055
 Atom #  2
   0.76529  -1.69260   0.00000   0.00000   0.00000   0.00000   0.00000   0.00000
  -1.69260   3.81220   0.00000   0.00000   0.00000   0.00000   0.00000   0.00000
   0.00000   0.00000  -0.34036   0.00000   0.00000   1.66389   0.00000   0.00000
   0.00000   0.00000   0.00000  -0.34036   0.00000   0.00000   1.66389   0.00000
   0.00000   0.00000   0.00000   0.00000  -0.34036   0.00000   0.00000   1.66389
   0.00000   0.00000   1.66389   0.00000   0.00000  -3.31014   0.00000   0.00000
   0.00000   0.00000   0.00000   1.66389   0.00000   0.00000  -3.31014   0.00000
   0.00000   0.00000   0.00000   0.00000   1.66389   0.00000   0.00000  -3.31014


 Augmentation waves occupancies Rhoij:
 Atom #  1
   2.38604  -0.41165   0.00000   0.00000   0.00000
  -0.41165   0.44015   0.00000   0.00000   0.00000
   0.00000   0.00000   0.30801   0.00000   0.00000
   0.00000   0.00000   0.00000   0.30801   0.00000
   0.00000   0.00000   0.00000   0.00000   0.30801
 Atom #  2
   1.99656   0.02251   0.00000   0.00000   0.00000   0.00000   0.00000   0.00000
   0.02251   0.00027   0.00000   0.00000   0.00000   0.00000   0.00000   0.00000
   0.00000   0.00000   2.17871   0.00000   0.00000   0.03014   0.00000   0.00000
   0.00000   0.00000   0.00000   2.17871   0.00000   0.00000   0.03014   0.00000
   0.00000   0.00000   0.00000   0.00000   2.17871   0.00000   0.00000   0.03014
   0.00000   0.00000   0.03014   0.00000   0.00000   0.00047   0.00000   0.00000
   0.00000   0.00000   0.00000   0.03014   0.00000   0.00000   0.00047   0.00000
   0.00000   0.00000   0.00000   0.00000   0.03014   0.00000   0.00000   0.00047



======================================================================
 Calculating and writing out Kohn-Sham electronic Structure file
 Using conjugate gradient wavefunctions and energies (kssform=3)
 number of Gamma centered plane waves    459
 number of Gamma centered shells     24
 number of bands     50
 maximum angular momentum components      2
 Conjugate gradient eigenvalues
   k    eigenvalues [Hartree]
   1     -1.5709 -0.7731 -0.0413 -0.0413 -0.0413  0.2827  0.8222  0.8222  0.8222
          0.8360  0.8360  0.8360  0.9400  1.0975  1.0975  1.5686  1.5686  1.5686
          1.7111  2.2875  2.2875  2.2875  2.3665  2.4268  2.4268  2.4579  2.4579
          2.4579  2.5384  2.5384  2.5384  2.9913  2.9913  3.2158  3.2158  3.2158
          3.3848  3.3848  3.3848  3.4376  3.4376  3.4376  3.4801  3.4801  3.4801
          3.4834  3.5582  3.5582  3.5582  3.5815
   2     -1.5692 -0.7583 -0.1301 -0.0491 -0.0491  0.3443  0.5626  0.6413  0.6413
          1.0623  1.0745  1.0745  1.1626  1.2908  1.2908  1.5892  1.5892  1.6665
          1.8542  1.8731  1.8731  1.9579  2.1626  2.1626  2.3211  2.4242  2.5419
          2.5419  2.5678  2.5678  2.6678  2.6678  2.6700  2.6820  2.7489  3.0967
          3.0967  3.2289  3.2679  3.2679  3.3054  3.4780  3.5340  3.5340  3.7632
          3.7632  3.7644  3.9087  3.9264  3.9266
   3     -1.5687 -0.7494 -0.1467 -0.0762 -0.0762  0.4902  0.5528  0.5941  0.6864
          0.6864  1.1550  1.3414  1.4029  1.4479  1.4479  1.5393  1.5538  1.5538
          1.7294  1.7294  1.8777  1.8933  2.0586  2.0586  2.1400  2.1834  2.4789
          2.5582  2.6800  2.7030  2.7030  2.7903  2.7903  2.8145  2.8231  2.8240
          3.0466  3.1542  3.1542  3.1873  3.1953  3.5634  3.5634  3.6334  3.8736
          3.8736  3.9908  4.0562  4.0962  4.1164
 Test on the normalization of the wavefunctions
  min sum_G |a(n,k,G)| =  1.000000
  max sum_G |a(n,k,G)| =  1.000000
 Test on the orthogonalization of the wavefunctions
  min sum_G a(n,k,G)a(n',k,G) =  0.000000
  max sum_G a(n,k,G)a(n',k,G) =  0.000000

================================================================================

 ----iterations are completed or convergence reached----

 Mean square residual over all n,k,spin=   2.0466E-06; max=  3.9531E-05
   0.0000  0.0000  0.0000    1  3.95308E-05 kpt; spin; max resid(k); each band:
  8.19E-13 4.82E-14 1.53E-13 4.81E-14 3.61E-14 6.57E-14 3.40E-14 2.05E-14
  2.02E-14 1.53E-13 6.81E-13 6.40E-14 7.41E-14 7.78E-13 3.14E-14 6.62E-14
  1.76E-14 3.73E-14 5.37E-13 2.98E-13 2.92E-13 4.20E-13 5.84E-13 4.89E-13
  6.26E-13 7.43E-13 1.40E-13 1.96E-13 2.51E-13 2.90E-13 4.06E-13 3.71E-13
  1.32E-13 6.06E-13 3.76E-13 9.10E-13 8.29E-13 3.53E-13 4.51E-13 7.46E-13
  4.04E-13 6.11E-13 5.13E-13 9.64E-13 9.37E-13 5.89E-13 2.26E-09 1.99E-07
  3.95E-05 5.79E-06
   0.5000  0.0000  0.0000    1  4.84300E-06 kpt; spin; max resid(k); each band:
  2.66E-13 3.26E-14 4.26E-14 4.85E-14 6.22E-14 6.93E-13 2.19E-14 2.02E-13
  4.97E-13 5.07E-13 2.23E-14 6.64E-13 4.04E-13 7.86E-13 2.82E-14 5.61E-13
  5.46E-14 7.31E-14 4.97E-13 4.06E-14 2.93E-14 2.93E-14 2.31E-13 3.20E-13
  2.89E-13 1.16E-13 1.32E-13 2.80E-13 2.79E-13 4.11E-13 4.15E-13 6.30E-13
  7.89E-14 8.85E-14 5.79E-13 3.39E-13 2.12E-13 4.40E-13 3.72E-13 6.03E-13
  3.69E-13 3.52E-13 9.72E-13 2.84E-13 8.19E-13 6.98E-13 8.20E-13 4.84E-06
  3.28E-07 5.18E-07
   0.5000  0.5000  0.0000    1  1.36821E-04 kpt; spin; max resid(k); each band:
  3.92E-13 6.28E-13 2.45E-13 2.10E-14 1.31E-13 5.15E-14 5.62E-14 1.86E-13
  4.02E-13 2.00E-14 8.53E-13 1.43E-14 3.58E-14 2.53E-13 5.47E-14 8.18E-13
  6.42E-14 1.99E-14 4.91E-14 4.87E-14 1.44E-14 5.35E-14 7.31E-14 2.20E-14
  7.80E-13 2.35E-13 3.14E-13 3.80E-13 4.28E-13 6.40E-13 1.18E-13 8.41E-13
  3.65E-13 2.50E-13 5.50E-13 7.79E-13 1.13E-13 2.48E-13 3.25E-13 1.35E-13
  7.22E-13 3.27E-13 4.56E-13 5.76E-13 6.38E-13 7.15E-13 2.09E-07 2.22E-05
  1.37E-04 9.66E-05
 reduced coordinates (array xred) for    2 atoms
       0.000000000000      0.000000000000      0.000000000000
       0.500000000000     -0.500000000000     -0.500000000000

 cartesian coordinates (angstrom) at end:
    1      0.00000000000000     0.00000000000000     0.00000000000000
    2     -2.03825185722459     0.00000000000000     0.00000000000000
 length scales=  7.703475600000  7.703475600000  7.703475600000 bohr
              =  4.076503714449  4.076503714449  4.076503714449 angstroms
 prteigrs : about to open file t14o_DS2_EIG
 Eigenvalues (hartree) for nkpt=   3  k points:
 kpt#   1, nband= 50, wtk=  0.12500, kpt=  0.0000  0.0000  0.0000 (reduced coord)
  -1.57092  -0.77312  -0.04130  -0.04130  -0.04130   0.28275   0.82225   0.82225
   0.82225   0.83597   0.83597   0.83597   0.93996   1.09755   1.09755   1.56858
   1.56858   1.56858   1.71114   2.28752   2.28752   2.28752   2.36647   2.42676
   2.42676   2.45789   2.45789   2.45789   2.53842   2.53842   2.53842   2.99132
   2.99132   3.21577   3.21577   3.21577   3.38477   3.38477   3.38477   3.43764
   3.43764   3.43764   3.48014   3.48014   3.48014   3.48340   3.55816   3.55817
   3.55823   3.58153
 kpt#   2, nband= 50, wtk=  0.50000, kpt=  0.5000  0.0000  0.0000 (reduced coord)
  -1.56916  -0.75827  -0.13006  -0.04907  -0.04907   0.34429   0.56260   0.64131
   0.64131   1.06231   1.07450   1.07450   1.16262   1.29075   1.29075   1.58922
   1.58922   1.66648   1.85420   1.87311   1.87311   1.95785   2.16257   2.16257
   2.32108   2.42417   2.54191   2.54191   2.56778   2.56778   2.66775   2.66775
   2.66996   2.68199   2.74886   3.09669   3.09669   3.22891   3.26786   3.26786
   3.30541   3.47796   3.53399   3.53399   3.76319   3.76319   3.76441   3.90866
   3.92635   3.92662
 kpt#   3, nband= 50, wtk=  0.37500, kpt=  0.5000  0.5000  0.0000 (reduced coord)
  -1.56870  -0.74938  -0.14670  -0.07616  -0.07616   0.49018   0.55277   0.59412
   0.68644   0.68644   1.15497   1.34139   1.40290   1.44794   1.44794   1.53931
   1.55376   1.55376   1.72937   1.72937   1.87771   1.89327   2.05863   2.05863
   2.13997   2.18338   2.47887   2.55823   2.67997   2.70300   2.70300   2.79025
   2.79025   2.81447   2.82310   2.82398   3.04656   3.15418   3.15418   3.18727
   3.19535   3.56342   3.56342   3.63344   3.87363   3.87363   3.99083   4.05617
   4.09624   4.11635
 Total charge density [el/Bohr^3]
,     Maximum=    1.3905E+00  at reduced coord.    0.5000    0.5000    0.5333
,Next maximum=    1.3905E+00  at reduced coord.    0.4667    0.5000    0.5333
,     Minimum=    4.7787E-03  at reduced coord.    0.2667    0.2333    0.2333
,Next minimum=    4.7787E-03  at reduced coord.    0.2333    0.2667    0.2333
,  Integrated=    1.0000E+01

================================================================================
== DATASET  3 ==================================================================
-   nproc =    1

 mkfilename : getkss/=0, take file _KSS from output of DATASET   2.

 Exchange-correlation functional for the present dataset will be:
  GGA: Perdew-Burke-Ernzerhof functional - ixc=11
 Citation for XC functional:
  J.P.Perdew, K.Burke, M.Ernzerhof, PRL 77, 3865 (1996)

 SCREENING: Calculation of the susceptibility and dielectric matrices 

 Based on a program developped by R.W. Godby, V. Olevano, G. Onida, and L. Reining.
 Incorporated in ABINIT by V. Olevano, G.-M. Rignanese, and M. Torrent.
.Using double precision arithmetic ; gwpc =  8

 Real(R)+Recip(G) space primitive vectors, cartesian coordinates (Bohr,Bohr^-1):
 R(1)=  0.0000000  3.8517378  3.8517378  G(1)= -0.1298115  0.1298115  0.1298115
 R(2)=  3.8517378  0.0000000  3.8517378  G(2)=  0.1298115 -0.1298115  0.1298115
 R(3)=  3.8517378  3.8517378  0.0000000  G(3)=  0.1298115  0.1298115 -0.1298115
 Unit cell volume ucvol=  1.1428787E+02 bohr^3
 Angles (23,13,12)=  6.00000000E+01  6.00000000E+01  6.00000000E+01 degrees

--- Pseudopotential description ------------------------------------------------
- pspini: atom type   1  psp file is /home/gonze/ABINIT/ABINITv7.9.3/trunk/7.9.3-private/tests/Psps_for_tests/li.PBE.atompaw.paw
- pspatm: opening atomic psp file    /home/gonze/ABINIT/ABINITv7.9.3/trunk/7.9.3-private/tests/Psps_for_tests/li.PBE.atompaw.paw
- Paw atomic data for element Li - Generated by AtomPAW + AtomPAW2Abinit v3.2.0
-  3.00000   3.00000  20090329                znucl, zion, pspdat
    7   11    1    0       434   0.00000      pspcod,pspxc,lmax,lloc,mmax,r2well
 Pseudopotential format is: paw4
 basis_size (lnmax)=  3 (lmn_size=  5), orbitals=   0   0   1
 Spheres core radius: rc_sph= 1.81921554
 3 radial meshes are used:
  - mesh 1: r(i)=AA*[exp(BB*(i-1))-1], size= 434 , AA= 0.46508E-02 BB= 0.13952E-01
  - mesh 2: r(i)=AA*[exp(BB*(i-1))-1], size= 429 , AA= 0.46508E-02 BB= 0.13952E-01
  - mesh 3: r(i)=AA*[exp(BB*(i-1))-1], size= 551 , AA= 0.46508E-02 BB= 0.13952E-01
 Shapefunction is SIN type: shapef(r)=[sin(pi*r/rshp)/(pi*r/rshp)]**2
 Radius for shape functions = sphere core radius
 Radial grid used for partial waves is grid 1
 Radial grid used for projectors is grid  2
 Radial grid used for (t)core density is grid 1
 Radial grid used for Vloc is grid 3
 Radial grid used for pseudo valence density is grid 3
 Compensation charge density is taken into account in XC energy/potential
 pspatm: atomic psp has been read  and splines computed

- pspini: atom type   2  psp file is /home/gonze/ABINIT/ABINITv7.9.3/trunk/7.9.3-private/tests/Psps_for_tests/F.noRSO.rc1.4.pawps
- pspatm: opening atomic psp file    /home/gonze/ABINIT/ABINITv7.9.3/trunk/7.9.3-private/tests/Psps_for_tests/F.noRSO.rc1.4.pawps
- Paw atomic data for element F - Generated by AtomPAW (N. Holzwarth) + AtomPAW2Abinit v3.1.1
-  9.00000   7.00000  20070403                znucl, zion, pspdat
    7    7    1    0       443   0.00000      pspcod,pspxc,lmax,lloc,mmax,r2well
 Pseudopotential format is: paw3
 basis_size (lnmax)=  4 (lmn_size=  8), orbitals=   0   0   1   1
 Spheres core radius: rc_sph= 1.41926478
 3 radial meshes are used:
  - mesh 1: r(i)=AA*[exp(BB*(i-1))-1], size= 443 , AA= 0.17094E-02 BB= 0.15384E-01
  - mesh 2: r(i)=AA*[exp(BB*(i-1))-1], size= 438 , AA= 0.17094E-02 BB= 0.15384E-01
  - mesh 3: r(i)=AA*[exp(BB*(i-1))-1], size= 564 , AA= 0.17094E-02 BB= 0.15384E-01
 Shapefunction is SIN type: shapef(r)=[sin(pi*r/rshp)/(pi*r/rshp)]**2
 Radius for shape functions = sphere core radius
 Radial grid used for partial waves is grid 1
 Radial grid used for projectors is grid  2
 Radial grid used for (t)core density is grid 1
 Radial grid used for Vloc is grid 3
 Compensation charge density is taken into account in XC energy/potential
 pspatm: atomic psp has been read  and splines computed

--------------------------------------------------------------------------------

 ==== K-mesh for the wavefunctions ====
 Number of points in the irreducible wedge :     3
 Reduced coordinates and weights : 

     1)     0.00000000E+00  0.00000000E+00  0.00000000E+00       0.12500
     2)     5.00000000E-01  0.00000000E+00  0.00000000E+00       0.50000
     3)     5.00000000E-01  5.00000000E-01  0.00000000E+00       0.37500

 Together with 48 symmetry operations and time-reversal symmetry 
 yields     8 points in the full Brillouin Zone.


 ==== Q-mesh for the screening function ====
 Number of points in the irreducible wedge :     3
 Reduced coordinates and weights : 

     1)     0.00000000E+00  0.00000000E+00  0.00000000E+00       0.12500
     2)     5.00000000E-01  0.00000000E+00  0.00000000E+00       0.50000
     3)     5.00000000E-01  5.00000000E-01  0.00000000E+00       0.37500

 Together with 48 symmetry operations and time-reversal symmetry 
 yields     8 points in the full Brillouin Zone.


 setmesh: FFT mesh size selected  =  15x 15x 15
          total number of points  =     3375


 The inverse dielectric matrix will be calculated on zero frequency only
 please note that the calculated epsilon^-1 cannot be used 
 to calculate QP corrections using plasmonpole model 1

 ==================================== 
 ==== Info on PAW TABulated data ==== 
 ==================================== 


  ******************************
  **** Atom type    1 ****
  ******************************
  Number of (n,l) elements .......................    3
  Number of (l,m,n) elements .....................    5
  Number of (i,j) elements (packed form) .........    6
  Max L+1 leading to non-zero Gaunt ..............    3
  Max L+1 leading to non-zero Gaunt (pawlcutd) ...    3
  lmn2_size ......................................   15
  lmnmix_sz ......................................   15
  Size of radial mesh ............................  434
  Size of radial mesh for [pseudo] core density...  434
  Size of radial mesh for pseudo valence density..  551
  No of Q-points for tcorespl and tvalespl ....... 3001
  No of Q-points for the radial shape functions ..    0
  Radial shape function type .....................    2
  shape_lambda ...................................   -1
  Use pseudized core density .....................    0
  Option for the use of hat density in XC terms ..    1
  Use LDA+U ......................................    0
  Use Local Exact exchange .......................    0
  Use potential zero .............................    0
  Has kij   ......................................    0
  Has tproj ......................................    0
  Has tvale ......................................    1
  Has vhtnzc .....................................    0
  Has vhnzc ......................................    0
  Has nabla ......................................    2
  Has shapefuncg .................................    0
  Has wvl ........................................    0
  beta ............................................ -6.40710543E+00
  1/q d(tNcore(q))/dq for q=0 .....................  0.00000000E+00
  d^2(tNcore(q))/dq^2 for q=0 .....................  0.00000000E+00
  1/q d(tNvale(q))/dq for q=0 ..................... -2.62970836E+02
  XC energy for the core density ..................  0.00000000E+00
  Radius of the PAW sphere ........................  1.81921554E+00
  Compensation charge radius (if >rshp, g(r)=0) ...  1.81921554E+00
  Sigma parameter in gaussian shape function ......  1.00000000E+99

  ******************************
  **** Atom type    2 ****
  ******************************
  Number of (n,l) elements .......................    4
  Number of (l,m,n) elements .....................    8
  Number of (i,j) elements (packed form) .........   10
  Max L+1 leading to non-zero Gaunt ..............    3
  Max L+1 leading to non-zero Gaunt (pawlcutd) ...    3
  lmn2_size ......................................   36
  lmnmix_sz ......................................   36
  Size of radial mesh ............................  443
  Size of radial mesh for [pseudo] core density...  443
  Size of radial mesh for pseudo valence density..    0
  No of Q-points for tcorespl and tvalespl ....... 3001
  No of Q-points for the radial shape functions ..    0
  Radial shape function type .....................    2
  shape_lambda ...................................   -1
  Use pseudized core density .....................    1
  Option for the use of hat density in XC terms ..    1
  Use LDA+U ......................................    0
  Use Local Exact exchange .......................    0
  Use potential zero .............................    0
  Has kij   ......................................    0
  Has tproj ......................................    0
  Has tvale ......................................    0
  Has vhtnzc .....................................    0
  Has vhnzc ......................................    0
  Has nabla ......................................    2
  Has shapefuncg .................................    0
  Has wvl ........................................    0
  beta ............................................ -4.95103786E+00
  1/q d(tNcore(q))/dq for q=0 ..................... -1.26795015E-04
  d^2(tNcore(q))/dq^2 for q=0 .....................  1.00000000E+00
  1/q d(tNvale(q))/dq for q=0 .....................  0.00000000E+00
  XC energy for the core density .................. -5.26909075E+00
  Radius of the PAW sphere ........................  1.41926478E+00
  Compensation charge radius (if >rshp, g(r)=0) ...  1.41926478E+00
  Sigma parameter in gaussian shape function ......  1.00000000E+99

 screening : taking advantage of time-reversal symmetry 
 Maximum band index for partially occupied states nbvw =     5
 Remaining bands to be divided among processors   nbcw =    45
P Number of bands treated by each node ~   45

 k       eigenvalues [eV]
  1        -42.75 -21.04  -1.12  -1.12  -1.12   7.69  22.37  22.37  22.37  22.75
            22.75  22.75  25.58  29.87  29.87  42.68  42.68  42.68  46.56  62.25
            62.25  62.25  64.39  66.04  66.04  66.88  66.88  66.88  69.07  69.07
            69.07  81.40  81.40  87.51  87.51  87.51  92.10  92.10  92.10  93.54
            93.54  93.54  94.70  94.70  94.70  94.79  96.82  96.82  96.82  97.46

  2        -42.70 -20.63  -3.54  -1.34  -1.34   9.37  15.31  17.45  17.45  28.91
            29.24  29.24  31.64  35.12  35.12  43.25  43.25  45.35  50.46  50.97
            50.97  53.28  58.85  58.85  63.16  65.97  69.17  69.17  69.87  69.87
            72.59  72.59  72.65  72.98  74.80  84.27  84.27  87.86  88.92  88.92
            89.94  94.64  96.16  96.16 102.40 102.40 102.43 106.36 106.84 106.85

  3        -42.69 -20.39  -3.99  -2.07  -2.07  13.34  15.04  16.17  18.68  18.68
            31.43  36.50  38.17  39.40  39.40  41.89  42.28  42.28  47.06  47.06
            51.10  51.52  56.02  56.02  58.23  59.41  67.45  69.61  72.93  73.55
            73.55  75.93  75.93  76.59  76.82  76.84  82.90  85.83  85.83  86.73
            86.95  96.97  96.97  98.87 105.41 105.41 108.60 110.37 111.46 112.01


 PAW TEST:
 ==== Compensation charge inside spheres ============
 The following values must be close...
 Compensation charge over spherical meshes =      2.616712970865450
 Compensation charge over fine fft grid    =      2.616692695663463


 Total number of electrons per unit cell =    9.9995 (Spherical mesh),    9.9994 (FFT mesh)
 average of density, n =  0.087494
 r_s =    1.3974
 omega_plasma =   28.5328 [eV]


 ==== Results concerning PAW augmentation regions ====

 Total pseudopotential strength Dij (hartree):
 Atom #  1
  -1.57196  -1.28376   0.00000   0.00000   0.00000
  -1.28376  -1.78581   0.00000   0.00000   0.00000
   0.00000   0.00000  -0.00055   0.00000   0.00000
   0.00000   0.00000   0.00000  -0.00055   0.00000
   0.00000   0.00000   0.00000   0.00000  -0.00055
 Atom #  2
   0.76540  -1.69285   0.00000   0.00000   0.00000   0.00000   0.00000   0.00000
  -1.69285   3.81278   0.00000   0.00000   0.00000   0.00000   0.00000   0.00000
   0.00000   0.00000  -0.34093   0.00000   0.00000   1.66843   0.00000   0.00000
   0.00000   0.00000   0.00000  -0.34093   0.00000   0.00000   1.66843   0.00000
   0.00000   0.00000   0.00000   0.00000  -0.34093   0.00000   0.00000   1.66843
   0.00000   0.00000   1.66843   0.00000   0.00000  -3.34597   0.00000   0.00000
   0.00000   0.00000   0.00000   1.66843   0.00000   0.00000  -3.34597   0.00000
   0.00000   0.00000   0.00000   0.00000   1.66843   0.00000   0.00000  -3.34597


 Augmentation waves occupancies Rhoij:
 Atom #  1
   2.38604  -0.41165   0.00000   0.00000   0.00000
  -0.41165   0.44015   0.00000   0.00000   0.00000
   0.00000   0.00000   0.30801   0.00000   0.00000
   0.00000   0.00000   0.00000   0.30801   0.00000
   0.00000   0.00000   0.00000   0.00000   0.30801
 Atom #  2
   1.99656   0.02251   0.00000   0.00000   0.00000   0.00000   0.00000   0.00000
   0.02251   0.00027   0.00000   0.00000   0.00000   0.00000   0.00000   0.00000
   0.00000   0.00000   2.17871   0.00000   0.00000   0.03014   0.00000   0.00000
   0.00000   0.00000   0.00000   2.17871   0.00000   0.00000   0.03014   0.00000
   0.00000   0.00000   0.00000   0.00000   2.17871   0.00000   0.00000   0.03014
   0.00000   0.00000   0.03014   0.00000   0.00000   0.00047   0.00000   0.00000
   0.00000   0.00000   0.00000   0.03014   0.00000   0.00000   0.00047   0.00000
   0.00000   0.00000   0.00000   0.00000   0.03014   0.00000   0.00000   0.00047



 calculating chi0 at frequencies [eV] :
  1    0.000000E+00    0.000000E+00


--------------------------------------------------------------------------------
  q-point number  1        q = ( 0.000000, 0.000000, 0.000000) [r.l.u.]
--------------------------------------------------------------------------------
  chi0(G,G') at the    1 th omega   0.0000   0.0000 [eV]
       1       2       3       4       5       6       7       8       9
    1  -0.000  -0.000   0.000   0.000  -0.000  -0.000   0.000   0.000  -0.000
        0.000  -0.000  -0.000  -0.000   0.000  -0.000   0.000   0.000  -0.000

    2  -0.000  -4.944  -0.432  -1.063  -1.852  -1.063  -1.853  -1.062  -1.853
        0.000  -0.000  -0.000   0.001  -0.000   0.000  -0.001  -0.001   0.001

 For q-point:  0.000010 0.000020 0.000030
  dielectric constant =   2.2762
  dielectric constant without local fields =   2.3546

  Average fulfillment of the sum rule on Im[epsilon] for q-point    1 :     68.28  [%]
  Heads and wings of the symmetrical epsilon^-1(G,G') 

   Upper and lower wings at the    1 th omega   0.0000   0.0000 [eV]
       1       2       3       4       5       6       7       8       9
      0.439  -0.014   0.014   0.041  -0.041  -0.041   0.041   0.014  -0.014
      0.000  -0.000   0.000  -0.000   0.000   0.000   0.000   0.000  -0.000
       1       2       3       4       5       6       7       8       9
      0.439  -0.014   0.014   0.041  -0.041  -0.041   0.041   0.014  -0.014
      0.000   0.000  -0.000   0.000  -0.000  -0.000  -0.000  -0.000   0.000




--------------------------------------------------------------------------------
  q-point number  2        q = ( 0.500000, 0.000000, 0.000000) [r.l.u.]
--------------------------------------------------------------------------------
  chi0(G,G') at the    1 th omega   0.0000   0.0000 [eV]
       1       2       3       4       5       6       7       8       9
    1  -2.888   1.004  -1.057   0.793   1.125   0.793   1.125   0.793   1.125
        0.000   0.000  -0.000  -0.000   0.000   0.000  -0.000  -0.000   0.000

    2   1.004  -4.614  -0.476  -1.383  -2.323  -1.380  -2.328  -1.382  -2.325
       -0.000  -0.000  -0.000   0.000  -0.000   0.002  -0.002  -0.002   0.001

  Average fulfillment of the sum rule on Im[epsilon] for q-point    2 :     76.46  [%]


--------------------------------------------------------------------------------
  q-point number  3        q = ( 0.500000, 0.500000, 0.000000) [r.l.u.]
--------------------------------------------------------------------------------
  chi0(G,G') at the    1 th omega   0.0000   0.0000 [eV]
       1       2       3       4       5       6       7       8       9
    1  -3.379   1.344   0.676   0.677   1.344   0.677   1.344   1.344   0.677
       -0.000   0.000  -0.000   0.000   0.000   0.000   0.000  -0.001   0.000

    2   1.344  -4.905  -1.030  -1.297  -2.444  -1.298  -2.455  -1.681  -1.950
       -0.000  -0.000  -0.001   0.001  -0.002  -0.000   0.000  -0.002   0.001

  Average fulfillment of the sum rule on Im[epsilon] for q-point    3 :     75.61  [%]

================================================================================
== DATASET  4 ==================================================================
-   nproc =    1

 mkfilename : getscr/=0, take file _SCR from output of DATASET   3.

 mkfilename : getkss/=0, take file _KSS from output of DATASET   2.

 Exchange-correlation functional for the present dataset will be:
  GGA: Perdew-Burke-Ernzerhof functional - ixc=11
 Citation for XC functional:
  J.P.Perdew, K.Burke, M.Ernzerhof, PRL 77, 3865 (1996)

 Exciton: Calculation of dielectric properties by solving the Bethe-Salpeter equation 
 in frequency domain and reciprocal space on a transitions basis set. 
 Based on a program developed by L. Reining, V. Olevano, F. Sottile, 
 S. Albrecht, and G. Onida. Incorporated in ABINIT by M. Giantomassi. 

.Using double precision arithmetic ; gwpc =  8

 Real(R)+Recip(G) space primitive vectors, cartesian coordinates (Bohr,Bohr^-1):
 R(1)=  0.0000000  3.8517378  3.8517378  G(1)= -0.1298115  0.1298115  0.1298115
 R(2)=  3.8517378  0.0000000  3.8517378  G(2)=  0.1298115 -0.1298115  0.1298115
 R(3)=  3.8517378  3.8517378  0.0000000  G(3)=  0.1298115  0.1298115 -0.1298115
 Unit cell volume ucvol=  1.1428787E+02 bohr^3
 Angles (23,13,12)=  6.00000000E+01  6.00000000E+01  6.00000000E+01 degrees
--------------------------------------------------------------------------------

 ==== K-mesh for the wavefunctions ====
 Number of points in the irreducible wedge :     3
 Reduced coordinates and weights : 

     1)     0.00000000E+00  0.00000000E+00  0.00000000E+00       0.12500
     2)     5.00000000E-01  0.00000000E+00  0.00000000E+00       0.50000
     3)     5.00000000E-01  5.00000000E-01  0.00000000E+00       0.37500

 Together with 48 symmetry operations and time-reversal symmetry 
 yields     8 points in the full Brillouin Zone.


 ==== Q-mesh for the screening function ====
 Number of points in the irreducible wedge :     3
 Reduced coordinates and weights : 

     1)     0.00000000E+00  0.00000000E+00  0.00000000E+00       0.12500
     2)     5.00000000E-01  0.00000000E+00  0.00000000E+00       0.50000
     3)     5.00000000E-01  5.00000000E-01  0.00000000E+00       0.37500

 Together with 48 symmetry operations and time-reversal symmetry 
 yields     8 points in the full Brillouin Zone.


 setmesh: FFT mesh size selected  =  15x 15x 15
          total number of points  =     3375

 ==== Fundamental parameters for the solution of the Bethe-Salpeter equation: ====
 Algorithm: Haydock technique.
 Dimension of the v, W matrices,  npweps  = 27
 Cutoff for the wavefunctions,    npwwfn  = 307
 Number of k-points in the IBZ,   nkibz   = 3
 Highest empty band included,     nband   = 7
 === Spin UP ===
 Number of resonant transitions          64
 Lowest occupied state                   2
 Highest occupied state                  5
 Lowest unoccupied state                 6
 Highest unoccupied state                7
 Minimum frequency [eV]           Emin    =   0.00
 Maximum frequency [eV]           Emax    =  24.00
 Frequency step [eV]              dE      =   0.10
 Lorentzian broadening [eV]       eta     =   0.15
 RPA L0 with KS energies and KS wavefunctions
 Scissors operator energy [eV] =          5.20
 Local fields effects (v term) included
 Excitonic effects (W term) included
 Full W_GG' included
 W is read from an external SCR file
 Resonant-only calculation (Hermitian case)


 Calculating epsilon_Macro(q-->0,w), along the following directions:
 q = (  0.707858  0.000000  0.000000) [r.l.u.]
 q = (  0.000000  0.707858  0.000000) [r.l.u.]
 q = (  0.000000  0.000000  0.707858) [r.l.u.]
 q = (  0.000000  0.613023  0.613023) [r.l.u.]
 q = (  0.613023  0.000000  0.613023) [r.l.u.]
 q = (  0.613023  0.613023  0.000000) [r.l.u.]
 ==================================== 
 ==== Info on PAW TABulated data ==== 
 ==================================== 


  ******************************
  **** Atom type    1 ****
  ******************************
  Number of (n,l) elements .......................    3
  Number of (l,m,n) elements .....................    5
  Number of (i,j) elements (packed form) .........    6
  Max L+1 leading to non-zero Gaunt ..............    3
  Max L+1 leading to non-zero Gaunt (pawlcutd) ...    3
  lmn2_size ......................................   15
  lmnmix_sz ......................................   15
  Size of radial mesh ............................  434
  Size of radial mesh for [pseudo] core density...  434
  Size of radial mesh for pseudo valence density..  551
  No of Q-points for tcorespl and tvalespl ....... 3001
  No of Q-points for the radial shape functions ..    0
  Radial shape function type .....................    2
  shape_lambda ...................................   -1
  Use pseudized core density .....................    0
  Option for the use of hat density in XC terms ..    1
  Use LDA+U ......................................    0
  Use Local Exact exchange .......................    0
  Use potential zero .............................    0
  Has kij   ......................................    0
  Has tproj ......................................    0
  Has tvale ......................................    1
  Has vhtnzc .....................................    0
  Has vhnzc ......................................    0
  Has nabla ......................................    2
  Has shapefuncg .................................    0
  Has wvl ........................................    0
  beta ............................................ -6.40710543E+00
  1/q d(tNcore(q))/dq for q=0 .....................  0.00000000E+00
  d^2(tNcore(q))/dq^2 for q=0 .....................  0.00000000E+00
  1/q d(tNvale(q))/dq for q=0 ..................... -2.62970836E+02
  XC energy for the core density ..................  0.00000000E+00
  Radius of the PAW sphere ........................  1.81921554E+00
  Compensation charge radius (if >rshp, g(r)=0) ...  1.81921554E+00
  Sigma parameter in gaussian shape function ......  1.00000000E+99

  ******************************
  **** Atom type    2 ****
  ******************************
  Number of (n,l) elements .......................    4
  Number of (l,m,n) elements .....................    8
  Number of (i,j) elements (packed form) .........   10
  Max L+1 leading to non-zero Gaunt ..............    3
  Max L+1 leading to non-zero Gaunt (pawlcutd) ...    3
  lmn2_size ......................................   36
  lmnmix_sz ......................................   36
  Size of radial mesh ............................  443
  Size of radial mesh for [pseudo] core density...  443
  Size of radial mesh for pseudo valence density..    0
  No of Q-points for tcorespl and tvalespl ....... 3001
  No of Q-points for the radial shape functions ..    0
  Radial shape function type .....................    2
  shape_lambda ...................................   -1
  Use pseudized core density .....................    1
  Option for the use of hat density in XC terms ..    1
  Use LDA+U ......................................    0
  Use Local Exact exchange .......................    0
  Use potential zero .............................    0
  Has kij   ......................................    0
  Has tproj ......................................    0
  Has tvale ......................................    0
  Has vhtnzc .....................................    0
  Has vhnzc ......................................    0
  Has nabla ......................................    2
  Has shapefuncg .................................    0
  Has wvl ........................................    0
  beta ............................................ -4.95103786E+00
  1/q d(tNcore(q))/dq for q=0 ..................... -1.26795015E-04
  d^2(tNcore(q))/dq^2 for q=0 .....................  1.00000000E+00
  1/q d(tNvale(q))/dq for q=0 .....................  0.00000000E+00
  XC energy for the core density .................. -5.26909075E+00
  Radius of the PAW sphere ........................  1.41926478E+00
  Compensation charge radius (if >rshp, g(r)=0) ...  1.41926478E+00
  Sigma parameter in gaussian shape function ......  1.00000000E+99

 k       eigenvalues [eV]
  1        -42.75 -21.04  -1.12  -1.12  -1.12   7.69  22.37
  2        -42.70 -20.63  -3.54  -1.34  -1.34   9.37  15.31
  3        -42.69 -20.39  -3.99  -2.07  -2.07  13.34  15.04

 PAW TEST:
 ==== Compensation charge inside spheres ============
 The following values must be close...
 Compensation charge over spherical meshes =      2.616712970865450
 Compensation charge over fine fft grid    =      2.616692695663463


 Total number of electrons per unit cell =    9.9995 (Spherical mesh),    9.9994 (FFT mesh)
 average of density, n =  0.087494
 r_s =    1.3974
 omega_plasma =   28.5328 [eV]


 ==== Results concerning PAW augmentation regions ====

 Total pseudopotential strength Dij (hartree):
 Atom #  1
  -1.57196  -1.28376   0.00000   0.00000   0.00000
  -1.28376  -1.78581   0.00000   0.00000   0.00000
   0.00000   0.00000  -0.00055   0.00000   0.00000
   0.00000   0.00000   0.00000  -0.00055   0.00000
   0.00000   0.00000   0.00000   0.00000  -0.00055
 Atom #  2
   0.76540  -1.69285   0.00000   0.00000   0.00000   0.00000   0.00000   0.00000
  -1.69285   3.81278   0.00000   0.00000   0.00000   0.00000   0.00000   0.00000
   0.00000   0.00000  -0.34093   0.00000   0.00000   1.66843   0.00000   0.00000
   0.00000   0.00000   0.00000  -0.34093   0.00000   0.00000   1.66843   0.00000
   0.00000   0.00000   0.00000   0.00000  -0.34093   0.00000   0.00000   1.66843
   0.00000   0.00000   1.66843   0.00000   0.00000  -3.34597   0.00000   0.00000
   0.00000   0.00000   0.00000   1.66843   0.00000   0.00000  -3.34597   0.00000
   0.00000   0.00000   0.00000   0.00000   1.66843   0.00000   0.00000  -3.34597


 Augmentation waves occupancies Rhoij:
 Atom #  1
   2.38604  -0.41165   0.00000   0.00000   0.00000
  -0.41165   0.44015   0.00000   0.00000   0.00000
   0.00000   0.00000   0.30801   0.00000   0.00000
   0.00000   0.00000   0.00000   0.30801   0.00000
   0.00000   0.00000   0.00000   0.00000   0.30801
 Atom #  2
   1.99656   0.02251   0.00000   0.00000   0.00000   0.00000   0.00000   0.00000
   0.02251   0.00027   0.00000   0.00000   0.00000   0.00000   0.00000   0.00000
   0.00000   0.00000   2.17871   0.00000   0.00000   0.03014   0.00000   0.00000
   0.00000   0.00000   0.00000   2.17871   0.00000   0.00000   0.03014   0.00000
   0.00000   0.00000   0.00000   0.00000   2.17871   0.00000   0.00000   0.03014
   0.00000   0.00000   0.03014   0.00000   0.00000   0.00047   0.00000   0.00000
   0.00000   0.00000   0.00000   0.03014   0.00000   0.00000   0.00047   0.00000
   0.00000   0.00000   0.00000   0.00000   0.03014   0.00000   0.00000   0.00047


. Writing resonant excitonic Hamiltonian on file t14o_DS4_BSR; file size=   0.00 [Gb].
 Writing KS-RPA macroscopic dielectric function without local fields to file: t14o_DS4_RPA_NLF_MDF
 Writing GW-RPA macroscopic dielectric function without local fields to file: t14o_DS4_GW_NLF_MDF
 >>> Haydock algorithm converged twice within haydock_tol=   2.00E-02 after 9 iterations.
 >>> Haydock algorithm converged twice within haydock_tol=   2.00E-02 after 9 iterations.
 >>> Haydock algorithm converged twice within haydock_tol=   2.00E-02 after 9 iterations.
 >>> Haydock algorithm converged twice within haydock_tol=   2.00E-02 after 9 iterations.
 >>> Haydock algorithm converged twice within haydock_tol=   2.00E-02 after 9 iterations.
 >>> Haydock algorithm converged twice within haydock_tol=   2.00E-02 after 9 iterations.
 Writing EXC Macroscopic dielectric function to file: t14o_DS4_EXC_MDF
  
 Macroscopic dielectric function:
 omega [eV] <KS_RPA_nlf>  <GW_RPA_nlf>  <BSE> 
   0.0000   1.9172   0.0000   1.6223   0.0000   1.8320   0.0000
   0.1000   1.9173   0.0002   1.6223   0.0001   1.8321   0.0002
   0.2000   1.9175   0.0005   1.6224   0.0001   1.8323   0.0004
   0.3000   1.9179   0.0007   1.6225   0.0002   1.8326   0.0005
   0.4000   1.9185   0.0010   1.6227   0.0003   1.8330   0.0007
   0.5000   1.9192   0.0012   1.6229   0.0004   1.8335   0.0009
   0.6000   1.9201   0.0015   1.6231   0.0004   1.8342   0.0011
   0.7000   1.9212   0.0017   1.6235   0.0005   1.8350   0.0013
   0.8000   1.9224   0.0020   1.6238   0.0006   1.8359   0.0014
   0.9000   1.9238   0.0022   1.6242   0.0006   1.8369   0.0016
  

== END DATASET(S) ==============================================================
================================================================================
  
 -outvars: echo values of variables after computation  --------
            acell      7.7034756000E+00  7.7034756000E+00  7.7034756000E+00 Bohr
              amu      6.94100000E+00  1.89984032E+01
     bs_algorithm1          1
     bs_algorithm2          1
     bs_algorithm3          1
     bs_algorithm4          2
      bs_coupling1          1
      bs_coupling2          1
      bs_coupling3          1
      bs_coupling4          0
     bs_freq_mesh1     0.00000000E+00  0.00000000E+00  3.67493254E-04 Hartree
     bs_freq_mesh2     0.00000000E+00  0.00000000E+00  3.67493254E-04 Hartree
     bs_freq_mesh3     0.00000000E+00  0.00000000E+00  3.67493254E-04 Hartree
     bs_freq_mesh4     0.00000000E+00  8.81983810E-01  3.67493254E-03 Hartree
 bs_haydock_niter1        100
 bs_haydock_niter2        100
 bs_haydock_niter3        100
 bs_haydock_niter4        160
     bs_hayd_term1          1
     bs_hayd_term2          1
     bs_hayd_term3          1
     bs_hayd_term4          0
        bs_loband1          0
        bs_loband2          0
        bs_loband3          0
        bs_loband4          2
             ecut1     1.50000000E+01 Hartree
             ecut2     1.50000000E+01 Hartree
             ecut3     1.46355482E+01 Hartree
             ecut4     1.46355482E+01 Hartree
          ecuteps1     0.00000000E+00 Hartree
          ecuteps2     0.00000000E+00 Hartree
          ecuteps3     2.66100877E+00 Hartree
          ecuteps4     2.66100877E+00 Hartree
          ecutwfn1     0.00000000E+00 Hartree
          ecutwfn2     0.00000000E+00 Hartree
          ecutwfn3     1.46355482E+01 Hartree
          ecutwfn4     1.46355482E+01 Hartree
           etotal1    -3.2024026424E+01
           etotal3     0.0000000000E+00
           etotal4     0.0000000000E+00
            fcart1    -0.0000000000E+00 -0.0000000000E+00 -0.0000000000E+00
                      -0.0000000000E+00 -0.0000000000E+00 -0.0000000000E+00
            fcart3     0.0000000000E+00  0.0000000000E+00  0.0000000000E+00
                       0.0000000000E+00  0.0000000000E+00  0.0000000000E+00
            fcart4     0.0000000000E+00  0.0000000000E+00  0.0000000000E+00
                       0.0000000000E+00  0.0000000000E+00  0.0000000000E+00
-          fftalg         112
           getden1          0
           getden2          1
           getden3          0
           getden4          0
           getkss1          0
           getkss2          0
           getkss3          2
           getkss4          2
           getscr1          0
           getscr2          0
           getscr3          0
           getscr4          3
         icutcoul           3
             iscf1         17
             iscf2         -2
             iscf3         17
             iscf4         17
           istwfk        1    1    1
              ixc          11
           jdtset        1    2    3    4
              kpt      0.00000000E+00  0.00000000E+00  0.00000000E+00
                       5.00000000E-01  0.00000000E+00  0.00000000E+00
                       5.00000000E-01  5.00000000E-01  0.00000000E+00
         kptrlatt        2    0    0      0    2    0      0    0    2
          kptrlen      1.08943597E+01
          kssform1          1
          kssform2          3
          kssform3          1
          kssform4          1
P           mkmem           3
            natom           2
            nband1         10
            nband2         50
            nband3         50
            nband4          7
         nbandkss1          0
         nbandkss2         50
         nbandkss3          0
         nbandkss4          0
           nbdbuf1          0
           nbdbuf2          4
           nbdbuf3          0
           nbdbuf4          0
           ndtset           4
          nfreqim1         -1
          nfreqim2         -1
          nfreqim3          0
          nfreqim4         -1
          nfreqre1         -1
          nfreqre2         -1
          nfreqre3          1
          nfreqre4         -1
            ngfft          20      20      20
          ngfftdg          30      30      30
             nkpt           3
           npweps1          0
           npweps2          0
           npweps3         27
           npweps4         27
           npwwfn1          0
           npwwfn2          0
           npwwfn3        331
           npwwfn4        331
           nsheps1          0
           nsheps2          0
           nsheps3          4
           nsheps4          4
            nstep          50
             nsym          48
           ntypat           2
              occ1     2.000000  2.000000  2.000000  2.000000  2.000000  0.000000
                       0.000000  0.000000  0.000000  0.000000
              occ3     2.000000  2.000000  2.000000  2.000000  2.000000  0.000000
                       0.000000  0.000000  0.000000  0.000000  0.000000  0.000000
                       0.000000  0.000000  0.000000  0.000000  0.000000  0.000000
                       0.000000  0.000000  0.000000  0.000000  0.000000  0.000000
                       0.000000  0.000000  0.000000  0.000000  0.000000  0.000000
                       0.000000  0.000000  0.000000  0.000000  0.000000  0.000000
                       0.000000  0.000000  0.000000  0.000000  0.000000  0.000000
                       0.000000  0.000000  0.000000  0.000000  0.000000  0.000000
                       0.000000  0.000000
              occ4     2.000000  2.000000  2.000000  2.000000  2.000000  0.000000
                       0.000000
        optdriver1          0
        optdriver2          0
        optdriver3          3
        optdriver4         99
        pawecutdg      3.00000000E+01 Hartree
            rprim      0.0000000000E+00  5.0000000000E-01  5.0000000000E-01
                       5.0000000000E-01  0.0000000000E+00  5.0000000000E-01
                       5.0000000000E-01  5.0000000000E-01  0.0000000000E+00
         soenergy1     0.00000000E+00 Hartree
         soenergy2     0.00000000E+00 Hartree
         soenergy3     0.00000000E+00 Hartree
         soenergy4     1.91096492E-01 Hartree
          spgroup         225
           strten1     6.2612385637E-05  6.2612385637E-05  6.2612385637E-05
                       0.0000000000E+00  0.0000000000E+00  0.0000000000E+00
           strten3     0.0000000000E+00  0.0000000000E+00  0.0000000000E+00
                       0.0000000000E+00  0.0000000000E+00  0.0000000000E+00
           strten4     0.0000000000E+00  0.0000000000E+00  0.0000000000E+00
                       0.0000000000E+00  0.0000000000E+00  0.0000000000E+00
           symchi1       0
           symchi2       0
           symchi3       1
           symchi4       0
           symrel      1  0  0   0  1  0   0  0  1      -1  0  0   0 -1  0   0  0 -1
                       0 -1  1   0 -1  0   1 -1  0       0  1 -1   0  1  0  -1  1  0
                      -1  0  0  -1  0  1  -1  1  0       1  0  0   1  0 -1   1 -1  0
                       0  1 -1   1  0 -1   0  0 -1       0 -1  1  -1  0  1   0  0  1
                      -1  0  0  -1  1  0  -1  0  1       1  0  0   1 -1  0   1  0 -1
                       0 -1  1   1 -1  0   0 -1  0       0  1 -1  -1  1  0   0  1  0
                       1  0  0   0  0  1   0  1  0      -1  0  0   0  0 -1   0 -1  0
                       0  1 -1   0  0 -1   1  0 -1       0 -1  1   0  0  1  -1  0  1
                      -1  0  1  -1  1  0  -1  0  0       1  0 -1   1 -1  0   1  0  0
                       0 -1  0   1 -1  0   0 -1  1       0  1  0  -1  1  0   0  1 -1
                       1  0 -1   0  0 -1   0  1 -1      -1  0  1   0  0  1   0 -1  1
                       0  1  0   0  0  1   1  0  0       0 -1  0   0  0 -1  -1  0  0
[...]
- bse(Init1)                     3.218  31.0      3.266  29.8              1      -1.00    
- pspini                         1.628  15.7      1.659  15.1              4      -1.00    
- fourwf%(pot)                   1.407  13.5      1.416  12.9           8679      -1.00    
- vtowfk(ssdiag)                 0.437   4.2      0.437   4.0             -1      -1.00    
- invars2                        0.358   3.4      0.359   3.3              4      -1.00    
- xc:pot/=fourdp                 0.301   2.9      0.381   3.5             23      -1.00    
- projbd                         0.297   2.9      0.300   2.7           5849      -1.00    
- nonlop(apply)                  0.278   2.7      0.284   2.6           8679      -1.00    
- bse(mkexcham)                  0.236   2.3      0.242   2.2              1      -1.00    
- fourdp                         0.191   1.8      0.182   1.7            371      -1.00    
- bse(mkrho)                     0.158   1.5      0.226   2.1              1      -1.00    
- timing timab                   0.140   1.3      0.139   1.3             14      -1.00    
- abinit(2)                      0.081   0.8      0.081   0.7              1      -1.00    
- getghc-other                   0.080   0.8      0.084   0.8             -1      -1.00    
- bse(mkexceps)                  0.058   0.6      0.057   0.5              1      -1.00    
- bse(exc_haydock_driver)        0.057   0.5      0.057   0.5              1      -1.00    
- pawdenpot                      0.042   0.4      0.040   0.4             22      -1.00    
- pawmkrho                       0.037   0.4      0.038   0.3             19      -1.00    
- nhatgrid                       0.032   0.3      0.032   0.3              4      -1.00    
- fourwf%(den)                   0.029   0.3      0.027   0.2            285      -1.00    
- pawinit                        0.016   0.2      0.015   0.1              3      -1.00    
- pawdij/symdij                  0.012   0.1      0.013   0.1             22      -1.00    
- newkpt(excl. rwwf   )          0.012   0.1      0.012   0.1             -1      -1.00    
- vtowfk(contrib)                0.010   0.1      0.009   0.1             60      -1.00    
- symrhg(no FFT)                 0.009   0.1      0.009   0.1             21      -1.00    
- forces                         0.007   0.1      0.008   0.1              1      -1.00    
- pawmkrho:symrhoij              0.005   0.0      0.007   0.1             19      -1.00    
- stress                         0.004   0.0      0.004   0.0              1      -1.00    
- ewald                          0.004   0.0      0.004   0.0              4      -1.00    
- screening(paw                  0.003   0.0      0.003   0.0              1      -1.00    
- setsym                         0.003   0.0      0.003   0.0              2      -1.00    
- bse(rdkss)                     0.002   0.0      0.001   0.0              1      -1.00    
- bse(rdmkeps^-1)                0.001   0.0      0.001   0.0              1      -1.00    
- nonlop(forstr)                 0.001   0.0      0.001   0.0             15      -1.00    
- kpgsph                         0.001   0.0      0.000   0.0             61      -1.00    
- vtowfk  (1)                    0.001   0.0      0.000   0.0             60      -1.00    
- ewald2 (+vdw_dftd2)            0.001   0.0      0.001   0.0              1      -1.00    
- status                         0.001   0.0      0.000   0.0             51      -1.00    
- vtorho:pawmkrhoij              0.001   0.0      0.000   0.0             19      -1.00    
- vtorho(MPI)                    0.001   0.0      0.000   0.0             20      -1.00    
- bse(wfd_wave_free)             0.001   0.0      0.000   0.0              1      -1.00    
- scfcv-scprqt                   0.000   0.0      0.001   0.0             19      -1.00    
- vtowfk3(contrib)               0.000   0.0      0.000   0.0             -1      -1.00    
- cgwf3-O(npw)                   0.000   0.0      0.000   0.0             -1      -1.00    
- bse(mk_Hur_commutator)         0.000   0.0      0.000   0.0              1      -1.00    
- inwffil(excl. calls)           0.000   0.0      0.000   0.0              2      -1.00    
- outkss(MPI_exch)               0.000   0.0      0.000   0.0              3      -1.00    
- others (58)                    0.000   0.0      0.000   0.0             -1      -1.00    
-<END_TIMER>

- subtotal                       9.160  88.2      9.400  85.7

 Partitioning of abinit
- abinit                        10.383 100.0     10.972 100.0              1
 
- abinit(1)                      0.022   0.2      0.022   0.2              1
- abinit(2)                      0.081   0.8      0.081   0.7              1
- indefo+macroin+invars2m        0.360   3.5      0.360   3.3              1
- abinit(4)                      0.051   0.5      0.051   0.5              1
- abinit(5)                      0.013   0.1      0.013   0.1              1
- driver                         9.689  93.3     10.239  93.3              1
- abinit(6)                      0.028   0.3      0.067   0.6              1
- timing timab                   0.140   1.3      0.139   1.3             14

- subtotal                      10.383 100.0     10.972 100.0

 Partitioning of driver
- driver                         9.689  93.3     10.239  93.3              1
 
- gstateimg                      4.094  39.4      4.178  38.1              2
- screening                      1.899  18.3      2.245  20.5              1
- bse                            3.694  35.6      3.816  34.8              1

- subtotal                       9.689  93.3     10.239  93.3

 Partitioning of gstateimg+gstate
- gstateimg                      4.094  39.4      4.178  38.1              2
 
- gstate->kpgsph                 0.017   0.2      0.017   0.2              4
- gstate(pspini)                 0.694   6.7      0.698   6.4              2
- gstate  (2)                    0.010   0.1      0.010   0.1              2
- gstate(...scfcv)               3.368  32.4      3.448  31.4              2
- gstate  (3)                    0.005   0.0      0.006   0.1              2

- subtotal                       4.094  39.4      4.178  38.1

 Partitioning of scfcv
- scfcv                          3.368  32.4      3.448  31.4              2
 
- scfcv(iniloop, setvtr  )       0.060   0.6      0.060   0.5             20
- scfcv(loop, PAW)               0.047   0.5      0.048   0.4             20
- scfcv(vtorho(f))               2.822  27.2      2.825  25.7             20
- scfcv(mix den - newrho)        0.033   0.3      0.033   0.3             18
- scfcv(rhotov)                  0.370   3.6      0.444   4.0             18
- scfcv(just after scf)          0.002   0.0      0.002   0.0              2
- scfcv(afterscfloop)            0.017   0.2      0.017   0.2              2
- scfcv(outscfcv)                0.018   0.2      0.017   0.2              2

- subtotal                       3.368  32.4      3.448  31.4

 Partitioning of rhotov
- rhotov                         0.354   3.4      0.428   3.9             18
 
- rhotov(rhohxc)                 0.351   3.4      0.424   3.9             18
- rhotov(other)                  0.002   0.0      0.003   0.0             18

- subtotal                       0.354   3.4      0.428   3.9

 Partitioning of vtorho
- vtorho                         2.822  27.2      2.824  25.7             20
 
- vtorho(bef. kpt  loop)         0.020   0.2      0.020   0.2             20
- vtorho(bef. vtowfk)            0.006   0.1      0.008   0.1             60
- vtowfk                         2.735  26.3      2.738  25.0             60
- vtorho(mkrho 2)                0.055   0.5      0.056   0.5             39

- subtotal                       2.822  27.2      2.824  25.7

 Partitioning of vtowfk
- vtowfk                         2.735  26.3      2.738  25.0             60
 
- cgwf                           2.258  21.7      2.265  20.6            107
- vtowfk(subdiago)               0.224   2.2      0.223   2.0            107
- vtowfk(pw_orthon)              0.208   2.0      0.207   1.9            107
- vtowfk(2)                      0.005   0.0      0.007   0.1             -1
- fourwf%vtowfk                  0.029   0.3      0.027   0.2            285
- vtowfk(3)                      0.010   0.1      0.009   0.1             -1

- subtotal                       2.735  26.3      2.738  25.0

 Partitioning of cgwf
- cgwf                           2.258  21.7      2.265  20.6            107
 
- getghc%cgwf                    1.765  17.0      1.784  16.3           8679
- cgwf-O(npw)                    0.196   1.9      0.180   1.6             -1
- projbd%cgwf                    0.297   2.9      0.300   2.7           5849

- subtotal                       2.258  21.7      2.265  20.6

 Partitioning of getghc
- getghc                         1.765  17.0      1.784  16.3           8679
 
- fourwf%getghc                  1.407  13.5      1.416  12.9           8679
- nonlop%getghc                  0.278   2.7      0.284   2.6           8679
- getghc-other                   0.080   0.8      0.084   0.8             -1

- subtotal                       1.765  17.0      1.784  16.3

 Partitioning of fourwf (upwards partitioning)
- fourwf                         1.436  13.8      1.443  13.1           8964
 
- fourwf%getghc                  1.407  13.5      1.416  12.9           8679
- fourwf%vtowfk                  0.029   0.3      0.027   0.2            285

- subtotal                       1.436  13.8      1.443  13.1

 Partitioning of outkss
- outkss                         0.013   0.1      0.012   0.1              1
 
- outkss(write)                  0.010   0.1      0.011   0.1              3

- subtotal                       0.012   0.1      0.012   0.1

 Partitioning of screening
- screening                      1.899  18.3      2.245  20.5              1
 
- screening(init1)               0.949   9.1      0.977   8.9              1
- screening(pawin)               0.422   4.1      0.623   5.7              1
- screening(wfs)                 0.019   0.2      0.119   1.1              1
- screening(1)                   0.016   0.2      0.015   0.1              1
- screening(density)             0.138   1.3      0.155   1.4              1
- screening(paw                  0.003   0.0      0.003   0.0              1
- screening(2)                   0.027   0.3      0.027   0.2              1
- screening(cchi0q0)             0.113   1.1      0.113   1.0              1
- screening(cchi0)               0.208   2.0      0.209   1.9              2

- subtotal                       1.898  18.3      2.243  20.4

 Partitioning of bethe_salpeter
- bse                            3.694  35.6      3.816  34.8              1
 
- bse(Init1)                     3.218  31.0      3.266  29.8              1
- bse(mkrho)                     0.158   1.5      0.226   2.1              1
- bse(mkexcham)                  0.236   2.3      0.242   2.2              1
- bse(exc_haydock_driver)        0.057   0.5      0.057   0.5              1

- subtotal                       3.672  35.4      3.793  34.6

 Partitioning of inwffil
- inwffil                        0.012   0.1      0.012   0.1              2
 
- inwffil(call newkpt)           0.012   0.1      0.012   0.1              2

- subtotal                       0.012   0.1      0.012   0.1

 Partitioning of newkpt
- newkpt                         0.012   0.1      0.012   0.1              2
 
- newkpt(call wfconv)            0.012   0.1      0.012   0.1              6

- subtotal                       0.012   0.1      0.012   0.1

 Partitioning of newrho
- newrho                         0.033   0.3      0.033   0.3             18
 
- fourdp%newrho                  0.020   0.2      0.019   0.2             36

- subtotal                       0.020   0.2      0.019   0.2

 Partitioning of  fourdp (upwards partitioning)
- fourdp                         0.191   1.8      0.182   1.7            371
 
- fourdp%(other)                 0.170   1.6      0.162   1.5            334
- fourdp%newrho                  0.020   0.2      0.019   0.2             36

- subtotal                       0.191   1.8      0.182   1.7

 Partitioning of afterscfloop
- afterscfloop                   0.017   0.2      0.017   0.2              2
 
- afterscfloop(forstr)           0.017   0.2      0.017   0.2              2

- subtotal                       0.017   0.2      0.017   0.2

 Partitioning of forstr
- forstr                         0.017   0.2      0.017   0.2              1
 
- forstr(forces)                 0.009   0.1      0.009   0.1              1
- forstr(stress)                 0.004   0.0      0.004   0.0              1

- subtotal                       0.017   0.2      0.017   0.2

 Partitioning of forstrnps
- forstrnps                      0.002   0.0      0.002   0.0              1
 

- subtotal                       0.002   0.0      0.002   0.0

 Partitioning of exc_build_ham
- exc_build_ham                  0.236   2.3      0.242   2.2              1
 
- exc_build_ham(q=0)             0.030   0.3      0.030   0.3              1
- exc_build_ham(block-res)       0.206   2.0      0.212   1.9              1

- subtotal                       0.236   2.3      0.242   2.2

 Partitioning of exc_build_block
- exc_build_block                0.206   2.0      0.212   1.9              1
 
- exc_build_block(Coulomb)       0.205   2.0      0.211   1.9              1

- subtotal                       0.206   2.0      0.212   1.9

 Partitioning of exc_haydock_driver
- exc_haydock_driver             0.057   0.5      0.057   0.5              1
 
- exc_haydock_driver(prep)       0.003   0.0      0.003   0.0              1
- exc_haydock_driver(wo lf       0.036   0.3      0.036   0.3              1
- exc_haydock_driver(apply       0.004   0.0      0.004   0.0              1
- exc_haydock_driver(end)        0.014   0.1      0.013   0.1              1

- subtotal                       0.057   0.5      0.057   0.5

 Partitioning of outscfcv
- outscfcv                       0.018   0.2      0.017   0.2              2
 
- outscfcv(outkss)               0.013   0.1      0.012   0.1              1

- subtotal                       0.016   0.2      0.015   0.1
-
-Synchronisation (=leave_test) and MPI calls 
- communic.MPI                   0.030   0.3      0.024   0.2          65338
-
- forstrnps:synchr               0.000   0.0      0.000   0.0              2
-
- subtotal                       0.000   0.0      0.000   0.0

 Additional information
- timana(1)                      0.000   0.0      0.000   0.0              1
- total timab                    0.213   2.1      0.212   1.9         296143
- fourwf                         1.436  13.8      1.443  13.1           8964
- status                         0.001   0.0      0.000   0.0             51
- nonlop(forstr)                 0.001   0.0      0.001   0.0             15
- nonlop(total)                  0.282   2.7      0.291   2.7           9264
- xc:fourdp                      0.102   1.0      0.098   0.9            176
- cchi0                          0.208   2.0      0.209   1.9              2

 Additional information about PAW segments
- forces:pawatm2ff               0.002   0.0      0.002   0.0              1
- stress:pawatm2ff               0.003   0.0      0.003   0.0              1
- setvtr:pawatm2ff               0.012   0.1      0.011   0.1              4
- pawinit                        0.016   0.2      0.015   0.1              3
- vtowfk:rhoij                   0.004   0.0      0.007   0.1            570
- vtorho:pawmkrhoij              0.001   0.0      0.000   0.0             19
- pawmkrho                       0.037   0.4      0.038   0.3             19
- scfcv:mknhat                   0.017   0.2      0.017   0.2             19
- nhatgrid                       0.032   0.3      0.032   0.3              4
- pawdenpot                      0.042   0.4      0.040   0.4             22
- pawdij/symdij                  0.012   0.1      0.013   0.1             22

 timana : in multi dataset mode, the more detailed analysis is not done.

================================================================================

 Suggested references for the acknowledgment of ABINIT usage.

 The users of ABINIT have little formal obligations with respect to the ABINIT group
 (those specified in the GNU General Public License, http://www.gnu.org/copyleft/gpl.txt).
 However, it is common practice in the scientific literature,
 to acknowledge the efforts of people that have made the research possible.
 In this spirit, please find below suggested citations of work written by ABINIT developers,
 corresponding to implementations inside of ABINIT that you have used in the present run.
 Note also that it will be of great value to readers of publications presenting these results,
 to read papers enabling them to understand the theoretical formalism and details
 of the ABINIT implementation.
 For information on why they are suggested, see also http://www.abinit.org/about/?text=acknowledgments.

 [1] Implementation of the Projector Augmented-Wave Method in the ABINIT code.
 M. Torrent, F. Jollet, F. Bottin, G. Zerah, and X. Gonze Comput. Mat. Science 42, 337, (2008).
 Comment : PAW calculations. Strong suggestion to cite this paper.

 [2] ABINIT : First-principles approach of materials and nanosystem properties.
 X. Gonze, B. Amadon, P.-M. Anglade, J.-M. Beuken, F. Bottin, P. Boulanger, F. Bruneval,
 D. Caliste, R. Caracas, M. Cote, T. Deutsch, L. Genovese, Ph. Ghosez, M. Giantomassi
 S. Goedecker, D.R. Hamann, P. Hermet, F. Jollet, G. Jomard, S. Leroux, M. Mancini, S. Mazevet,
 M.J.T. Oliveira, G. Onida, Y. Pouillon, T. Rangel, G.-M. Rignanese, D. Sangalli, R. Shaltaf,
 M. Torrent, M.J. Verstraete, G. Zerah, J.W. Zwanziger
 Computer Phys. Comm. 180, 2582-2615 (2009).
 Comment : the third generic paper describing the ABINIT project.
 Note that a version of this paper, that is not formatted for Computer Phys. Comm. 
 is available at http://www.abinit.org/about/ABINIT_CPC_v10.pdf .
 The licence allows the authors to put it on the Web.

 [3] A brief introduction to the ABINIT software package.
 X. Gonze, G.-M. Rignanese, M. Verstraete, J.-M. Beuken, Y. Pouillon, R. Caracas, F. Jollet,
 M. Torrent, G. Zerah, M. Mikami, Ph. Ghosez, M. Veithen, J.-Y. Raty, V. Olevano, F. Bruneval,
 L. Reining, R. Godby, G. Onida, D.R. Hamann, and D.C. Allan.
 Z. Kristallogr. 220, 558-562 (2005).
 Comment : the second generic paper describing the ABINIT project. Note that this paper
 should be cited especially if you are using the GW part of ABINIT, as several authors
 of this part are not in the list of authors of the first or third paper.
 The .pdf of the latter paper is available at http://www.abinit.org/about/zfk_0505-06_558-562.pdf.
 Note that it should not redistributed (Copyright by Oldenburg Wissenshaftverlag,
 the licence allows the authors to put it on the Web).


 And optionally :

 [4] First-principles computation of material properties : the ABINIT software project. 
 X. Gonze, J.-M. Beuken, R. Caracas, F. Detraux, M. Fuchs, G.-M. Rignanese, L. Sindic,
 M. Verstraete, G. Zerah, F. Jollet, M. Torrent, A. Roy, M. Mikami, Ph. Ghosez, J.-Y. Raty, D.C. Allan.
 Computational Materials Science 25, 478-492 (2002). http://dx.doi.org/10.1016/S0927-0256(02)00325-7
 Comment : the original paper describing the ABINIT project.

 [5] Fast radix 2, 3, 4 and 5 kernels for Fast Fourier Transformations
 on computers with overlapping multiply-add instructions.
 S. Goedecker, SIAM J. on Scientific Computing 18, 1605 (1997).
-
- Proc.   0 individual time (sec): cpu=         10.4  wall=         11.0

================================================================================

 Calculation completed.
.Delivered   14 WARNINGs and  12 COMMENTs to log file.
+Overall time at end (sec) : cpu=         10.4  wall=         11.0
