
.Version 7.9.3 of ABINIT 
.(MPI version, prepared for a x86_64_linux_gnu4.7 computer) 

.Copyright (C) 1998-2014 ABINIT group . 
 ABINIT comes with ABSOLUTELY NO WARRANTY.
 It is free software, and you are welcome to redistribute it
 under certain conditions (GNU General Public License,
 see ~abinit/COPYING or http://www.gnu.org/copyleft/gpl.txt).

 ABINIT is a project of the Universite Catholique de Louvain,
 Corning Inc. and other collaborators, see ~abinit/doc/developers/contributors.txt .
 Please read ~abinit/doc/users/acknowledgments.html for suggested
 acknowledgments of the ABINIT effort.
 For more information, see http://www.abinit.org .

.Starting date : Sat 30 Aug 2014.
- ( at 22h40 )
  
- input  file    -> t25.in
- output file    -> t25.out
- root for input  files -> t25i
- root for output files -> t25o


 Symmetries : space group Cm (#  8); Bravais mC (1-face-center monocl.)
================================================================================
 Values of the parameters that define the memory need of the present run
   intxc =         0  ionmov =         0    iscf =         7 xclevel =         1
  lmnmax =         1   lnmax =         1   mband =         1  mffmem =         1
P  mgfft =        12   mkmem =        20 mpssoang=         1     mpw =        78
  mqgrid =      3001   natom =         2    nfft =      1728    nkpt =        20
  nloalg =         4  nspden =         1 nspinor =         1  nsppol =         1
    nsym =         2  n1xccc =         0  ntypat =         2  occopt =         1
  nimage =         6
================================================================================
P This job should need less than                       1.014 Mbytes of memory.
  Rough estimation (10% accuracy) of disk space for files :
_ WF disk file :      0.026 Mbytes ; DEN or POT disk file :      0.015 Mbytes.
================================================================================

--------------------------------------------------------------------------------
------------- Echo of variables that govern the present computation ------------
--------------------------------------------------------------------------------
-
- outvars: echo of selected default values                                      
-   accesswff0 =  0 , fftalg0 =112 , wfoptalg0 =  0
-
- outvars: echo of global parameters not present in the input file              
-  max_nthreads =    0
-
 -outvars: echo values of preprocessed input variables --------
            acell      3.0000000000E+00  3.0000000000E+00  3.0000000000E+00 Bohr
              amu      1.00794000E+00  1.00794000E+00
      chksymbreak           0
         dynimage        0    1    1    1    1    0
             ecut      1.50000000E+01 Hartree
           ecutsm      5.00000000E-01 Hartree
-          fftalg         112
     fxcartfactor      1.00000000E+01
          iatfixx        1    2
           imgmov           2
           iprcch           1
         istatimg           0
              kpt      1.25000000E-01  1.25000000E-01  1.25000000E-01
                       3.75000000E-01  1.25000000E-01  1.25000000E-01
                      -3.75000000E-01  1.25000000E-01  1.25000000E-01
                      -1.25000000E-01  1.25000000E-01  1.25000000E-01
                       1.25000000E-01  3.75000000E-01  1.25000000E-01
                       3.75000000E-01  3.75000000E-01  1.25000000E-01
                      -3.75000000E-01  3.75000000E-01  1.25000000E-01
                      -1.25000000E-01  3.75000000E-01  1.25000000E-01
                       1.25000000E-01 -3.75000000E-01  1.25000000E-01
                       3.75000000E-01 -3.75000000E-01  1.25000000E-01
                      -3.75000000E-01 -3.75000000E-01  1.25000000E-01
                      -1.25000000E-01 -3.75000000E-01  1.25000000E-01
                       1.25000000E-01 -1.25000000E-01  1.25000000E-01
                       3.75000000E-01 -1.25000000E-01  1.25000000E-01
                       1.25000000E-01  3.75000000E-01  3.75000000E-01
                       3.75000000E-01  3.75000000E-01  3.75000000E-01
                      -3.75000000E-01  3.75000000E-01  3.75000000E-01
                      -1.25000000E-01  3.75000000E-01  3.75000000E-01
                       1.25000000E-01 -3.75000000E-01  3.75000000E-01
                       3.75000000E-01 -3.75000000E-01  3.75000000E-01
         kptrlatt        4    0    0      0    4    0      0    0    4
          kptrlen      1.20000000E+01
P           mkmem          20
          natfixx           2
            natom           2
            nband           1
        ndynimage           4
            ngfft          12      12      12
           nimage           6
             nkpt          20
            nstep          20
             nsym           2
        ntimimage          15
           ntypat           2
        optforces           1
           prtden           0
           prteig           0
            prtwf           0
           shiftk      5.00000000E-01  5.00000000E-01  5.00000000E-01
          spgroup           8
           symrel      1  0  0   0  1  0   0  0  1       1  0  0   0  0  1   0  1  0
           toldff      2.00000000E-06
           tolimg      1.00000000E-05 Hartree
            typat      1  2
              wtk        0.03125    0.03125    0.03125    0.03125    0.06250    0.06250
                         0.06250    0.06250    0.06250    0.06250    0.06250    0.06250
                         0.06250    0.06250    0.03125    0.03125    0.03125    0.03125
                         0.06250    0.06250
           xangst      0.0000000000E+00  0.0000000000E+00  0.0000000000E+00
                       4.0583182222E-01  4.0583182222E-01  4.0583182222E-01
      xangst_2img      0.0000000000E+00  0.0000000000E+00  0.0000000000E+00
                       5.6100541848E-01  4.0583182222E-01  4.0583182222E-01
      xangst_3img      0.0000000000E+00  0.0000000000E+00  0.0000000000E+00
                       7.1617901475E-01  4.0583182222E-01  4.0583182222E-01
      xangst_4img      0.0000000000E+00  0.0000000000E+00  0.0000000000E+00
                       8.7135261102E-01  4.0583182222E-01  4.0583182222E-01
      xangst_5img      0.0000000000E+00  0.0000000000E+00  0.0000000000E+00
                       1.0265262073E+00  4.0583182222E-01  4.0583182222E-01
      xangst_6img      0.0000000000E+00  0.0000000000E+00  0.0000000000E+00
                       1.1816998036E+00  4.0583182222E-01  4.0583182222E-01
            xcart      0.0000000000E+00  0.0000000000E+00  0.0000000000E+00
                       7.6691100000E-01  7.6691100000E-01  7.6691100000E-01
       xcart_2img      0.0000000000E+00  0.0000000000E+00  0.0000000000E+00
                       1.0601466000E+00  7.6691100000E-01  7.6691100000E-01
       xcart_3img      0.0000000000E+00  0.0000000000E+00  0.0000000000E+00
                       1.3533822000E+00  7.6691100000E-01  7.6691100000E-01
       xcart_4img      0.0000000000E+00  0.0000000000E+00  0.0000000000E+00
                       1.6466178000E+00  7.6691100000E-01  7.6691100000E-01
       xcart_5img      0.0000000000E+00  0.0000000000E+00  0.0000000000E+00
                       1.9398534000E+00  7.6691100000E-01  7.6691100000E-01
       xcart_6img      0.0000000000E+00  0.0000000000E+00  0.0000000000E+00
                       2.2330890000E+00  7.6691100000E-01  7.6691100000E-01
             xred      0.0000000000E+00  0.0000000000E+00  0.0000000000E+00
                       2.5563700000E-01  2.5563700000E-01  2.5563700000E-01
        xred_2img      0.0000000000E+00  0.0000000000E+00  0.0000000000E+00
                       3.5338220000E-01  2.5563700000E-01  2.5563700000E-01
        xred_3img      0.0000000000E+00  0.0000000000E+00  0.0000000000E+00
                       4.5112740000E-01  2.5563700000E-01  2.5563700000E-01
        xred_4img      0.0000000000E+00  0.0000000000E+00  0.0000000000E+00
                       5.4887260000E-01  2.5563700000E-01  2.5563700000E-01
        xred_5img      0.0000000000E+00  0.0000000000E+00  0.0000000000E+00
                       6.4661780000E-01  2.5563700000E-01  2.5563700000E-01
        xred_6img      0.0000000000E+00  0.0000000000E+00  0.0000000000E+00
                       7.4436300000E-01  2.5563700000E-01  2.5563700000E-01
            znucl        1.00000    1.00000

================================================================================

 chkinp: Checking input parameters for consistency.

================================================================================
== DATASET  1 ==================================================================
-   nproc =    1

 Exchange-correlation functional for the present dataset will be:
  LDA: new Teter (4/93) with spin-polarized option - ixc=1
 Citation for XC functional:
  S. Goedecker, M. Teter, J. Huetter, PRB 54, 1703 (1996)


================================================================================
 STRING METHOD - TIME STEP     1
================================================================================


--------------------------------------------------------------------------------
 STRING METHOD - CELL #    2/   6
--------------------------------------------------------------------------------

 Real(R)+Recip(G) space primitive vectors, cartesian coordinates (Bohr,Bohr^-1):
 R(1)=  3.0000000  0.0000000  0.0000000  G(1)=  0.3333333  0.0000000  0.0000000
 R(2)=  0.0000000  3.0000000  0.0000000  G(2)=  0.0000000  0.3333333  0.0000000
 R(3)=  0.0000000  0.0000000  3.0000000  G(3)=  0.0000000  0.0000000  0.3333333
 Unit cell volume ucvol=  2.7000000E+01 bohr^3
 Angles (23,13,12)=  9.00000000E+01  9.00000000E+01  9.00000000E+01 degrees

 getcut: wavevector=  0.0000  0.0000  0.0000  ngfft=  12  12  12
         ecut(hartree)=     15.000   => boxcut(ratio)=   2.29429

 getcut : COMMENT -
  Note that boxcut > 2.2 ; recall that boxcut=Gcut(box)/Gcut(sphere) = 2
  is sufficient for exact treatment of convolution.
  Such a large boxcut is a waste : you could raise ecut
  e.g. ecut=   19.739209 Hartrees makes boxcut=2


--- Pseudopotential description ------------------------------------------------
- pspini: atom type   1  psp file is /home/gonze/ABINIT/ABINITv7.9.3/trunk/7.9.3-private/tests/Psps_for_tests/1h.pspnc
- pspatm: opening atomic psp file    /home/gonze/ABINIT/ABINITv7.9.3/trunk/7.9.3-private/tests/Psps_for_tests/1h.pspnc
-  Troullier-Martins psp for element  H         Thu Oct 27 17:28:54 EDT 1994
-  1.00000   1.00000    940714                znucl, zion, pspdat
    1    1    0    0      2001   0.00000      pspcod,pspxc,lmax,lloc,mmax,r2well
    0   7.740  11.990    0   1.5855604        l,e99.0,e99.9,nproj,rcpsp
   0.00000000   0.00000000   0.00000000   0.00000000     rms, ekb1, ekb2, epsatm
    0.00000000000000    0.00000000000000    0.00000000000000   rchrg,fchrg,qchrg
 Note: local psp for atom with Z=  1.0
 pspatm: epsatm=    0.04198703
         --- l  ekb(1:nproj) -->
 pspatm: atomic psp has been read  and splines computed

- pspini: atom type   2  psp file is /home/gonze/ABINIT/ABINITv7.9.3/trunk/7.9.3-private/tests/Psps_for_tests/1h.pspnc
- pspatm: opening atomic psp file    /home/gonze/ABINIT/ABINITv7.9.3/trunk/7.9.3-private/tests/Psps_for_tests/1h.pspnc
-  Troullier-Martins psp for element  H         Thu Oct 27 17:28:54 EDT 1994
-  1.00000   1.00000    940714                znucl, zion, pspdat
    1    1    0    0      2001   0.00000      pspcod,pspxc,lmax,lloc,mmax,r2well
    0   7.740  11.990    0   1.5855604        l,e99.0,e99.9,nproj,rcpsp
   0.00000000   0.00000000   0.00000000   0.00000000     rms, ekb1, ekb2, epsatm
    0.00000000000000    0.00000000000000    0.00000000000000   rchrg,fchrg,qchrg
 Note: local psp for atom with Z=  1.0
 pspatm: epsatm=    0.04198703
         --- l  ekb(1:nproj) -->
 pspatm: atomic psp has been read  and splines computed

   1.67948119E-01                                ecore*ucvol(ha*bohr**3)
--------------------------------------------------------------------------------

P newkpt: treating      1 bands with npw=      78 for ikpt=   1 by node    0
P newkpt: treating      1 bands with npw=      73 for ikpt=   2 by node    0
P newkpt: treating      1 bands with npw=      73 for ikpt=   3 by node    0
P newkpt: treating      1 bands with npw=      78 for ikpt=   4 by node    0
P newkpt: treating      1 bands with npw=      73 for ikpt=   5 by node    0
P newkpt: treating      1 bands with npw=      76 for ikpt=   6 by node    0
P newkpt: treating      1 bands with npw=      76 for ikpt=   7 by node    0
P newkpt: treating      1 bands with npw=      73 for ikpt=   8 by node    0
P newkpt: treating      1 bands with npw=      73 for ikpt=   9 by node    0
P newkpt: treating      1 bands with npw=      76 for ikpt=  10 by node    0
P newkpt: treating      1 bands with npw=      76 for ikpt=  11 by node    0
P newkpt: treating      1 bands with npw=      73 for ikpt=  12 by node    0
P newkpt: treating      1 bands with npw=      78 for ikpt=  13 by node    0
P newkpt: treating      1 bands with npw=      73 for ikpt=  14 by node    0
P newkpt: treating      1 bands with npw=      76 for ikpt=  15 by node    0
P newkpt: treating      1 bands with npw=      72 for ikpt=  16 by node    0
P newkpt: treating      1 bands with npw=      72 for ikpt=  17 by node    0
P newkpt: treating      1 bands with npw=      76 for ikpt=  18 by node    0
P newkpt: treating      1 bands with npw=      76 for ikpt=  19 by node    0
P newkpt: treating      1 bands with npw=      72 for ikpt=  20 by node    0

_setup2: Arith. and geom. avg. npw (full set) are      74.625      74.598

================================================================================

     iter   Etot(hartree)      deltaE(h)  residm     vres2    diffor    maxfor
 ETOT  1  -1.0567669633211    -1.057E+00 1.469E-06 1.044E+00 1.862E-02 1.862E-02
 ETOT  2  -1.0576516456950    -8.847E-04 7.880E-10 5.032E-03 1.209E-03 1.741E-02
 ETOT  3  -1.0576533420077    -1.696E-06 8.307E-09 3.994E-05 2.089E-05 1.739E-02
 ETOT  4  -1.0576533531462    -1.114E-08 7.527E-11 1.022E-08 7.250E-06 1.738E-02
 ETOT  5  -1.0576533531488    -2.541E-12 9.012E-15 2.669E-12 6.029E-07 1.738E-02
 ETOT  6  -1.0576533531488    -4.219E-15 1.159E-17 1.602E-15 6.185E-09 1.738E-02

 At SCF step    6, forces are converged : 
  for the second time, max diff in force=  6.185E-09 < toldff=  2.000E-06

 Cartesian components of stress tensor (hartree/bohr^3)
  sigma(1 1)= -4.52252090E-03  sigma(3 2)=  3.37475723E-04
  sigma(2 2)= -5.33044383E-03  sigma(3 1)=  4.04072157E-04
  sigma(3 3)= -5.33044383E-03  sigma(2 1)=  4.04072157E-04

================================================================================

 ----iterations are completed or convergence reached----

 Mean square residual over all n,k,spin=   1.8267E-18; max=  1.1589E-17
   0.1250  0.1250  0.1250    1  6.52832E-19 kpt; spin; max resid(k); each band:
  6.53E-19
   0.3750  0.1250  0.1250    1  1.24771E-18 kpt; spin; max resid(k); each band:
  1.25E-18
  -0.3750  0.1250  0.1250    1  9.80406E-19 kpt; spin; max resid(k); each band:
  9.80E-19
  -0.1250  0.1250  0.1250    1  5.70692E-19 kpt; spin; max resid(k); each band:
  5.71E-19
   0.1250  0.3750  0.1250    1  4.07258E-19 kpt; spin; max resid(k); each band:
  4.07E-19
   0.3750  0.3750  0.1250    1  3.91348E-19 kpt; spin; max resid(k); each band:
  3.91E-19
  -0.3750  0.3750  0.1250    1  2.04912E-18 kpt; spin; max resid(k); each band:
  2.05E-18
  -0.1250  0.3750  0.1250    1  6.28373E-19 kpt; spin; max resid(k); each band:
  6.28E-19
   0.1250 -0.3750  0.1250    1  3.89158E-19 kpt; spin; max resid(k); each band:
  3.89E-19
   0.3750 -0.3750  0.1250    1  3.61821E-19 kpt; spin; max resid(k); each band:
  3.62E-19
  -0.3750 -0.3750  0.1250    1  3.02195E-18 kpt; spin; max resid(k); each band:
  3.02E-18
  -0.1250 -0.3750  0.1250    1  7.26392E-19 kpt; spin; max resid(k); each band:
  7.26E-19
   0.1250 -0.1250  0.1250    1  6.72042E-19 kpt; spin; max resid(k); each band:
  6.72E-19
   0.3750 -0.1250  0.1250    1  1.04819E-18 kpt; spin; max resid(k); each band:
  1.05E-18
   0.1250  0.3750  0.3750    1  2.90638E-18 kpt; spin; max resid(k); each band:
  2.91E-18
   0.3750  0.3750  0.3750    1  1.02749E-18 kpt; spin; max resid(k); each band:
  1.03E-18
  -0.3750  0.3750  0.3750    1  1.15891E-17 kpt; spin; max resid(k); each band:
  1.16E-17
  -0.1250  0.3750  0.3750    1  3.44020E-18 kpt; spin; max resid(k); each band:
  3.44E-18
   0.1250 -0.3750  0.3750    1  6.32055E-19 kpt; spin; max resid(k); each band:
  6.32E-19
   0.3750 -0.3750  0.3750    1  3.79219E-18 kpt; spin; max resid(k); each band:
  3.79E-18
 reduced coordinates (array xred) for    2 atoms
       0.000000000000      0.000000000000      0.000000000000
       0.353382200000      0.255637000000      0.255637000000
 rms dE/dt=  5.6577E-02; max dE/dt=  6.4523E-02; dE/dt below (all hartree)
    1      -0.064522696091     -0.052152249460     -0.052152249460
    2       0.064522696209      0.052152249465      0.052152249465

 cartesian coordinates (angstrom) at end:
    1      0.00000000000000     0.00000000000000     0.00000000000000
    2      0.56100541848418     0.40583182221697     0.40583182221697

 cartesian forces (hartree/bohr) at end:
    1      0.02150756538336     0.01738408315409     0.01738408315409
    2     -0.02150756538336    -0.01738408315409    -0.01738408315409
 frms,max,avg= 1.7384083E-02 1.7384083E-02  -1.977E-11 -8.768E-13 -8.768E-13 h/b

 cartesian forces (eV/Angstrom) at end:
    1      1.10596338625381     0.89392542248830     0.89392542248830
    2     -1.10596338625381    -0.89392542248830    -0.89392542248830
 frms,max,avg= 8.9392542E-01 8.9392542E-01  -1.017E-09 -4.509E-11 -4.509E-11 e/A
 length scales=  3.000000000000  3.000000000000  3.000000000000 bohr
              =  1.587531625770  1.587531625770  1.587531625770 angstroms
 Fermi (or HOMO) energy (hartree) =   0.29745   Average Vxc (hartree)=  -0.45435
 Eigenvalues (hartree) for nkpt=  20  k points:
 kpt#   1, nband=  1, wtk=  0.03125, kpt=  0.1250  0.1250  0.1250 (reduced coord)
  -0.43536
 kpt#   2, nband=  1, wtk=  0.03125, kpt=  0.3750  0.1250  0.1250 (reduced coord)
  -0.17653
 kpt#   3, nband=  1, wtk=  0.03125, kpt= -0.3750  0.1250  0.1250 (reduced coord)
  -0.17969
 kpt#   4, nband=  1, wtk=  0.03125, kpt= -0.1250  0.1250  0.1250 (reduced coord)
  -0.43621
 kpt#   5, nband=  1, wtk=  0.06250, kpt=  0.1250  0.3750  0.1250 (reduced coord)
  -0.19110
 kpt#   6, nband=  1, wtk=  0.06250, kpt=  0.3750  0.3750  0.1250 (reduced coord)
   0.06413
 kpt#   7, nband=  1, wtk=  0.06250, kpt= -0.3750  0.3750  0.1250 (reduced coord)
   0.05655
 kpt#   8, nband=  1, wtk=  0.06250, kpt= -0.1250  0.3750  0.1250 (reduced coord)
  -0.19297
 kpt#   9, nband=  1, wtk=  0.06250, kpt=  0.1250 -0.3750  0.1250 (reduced coord)
  -0.19388
 kpt#  10, nband=  1, wtk=  0.06250, kpt=  0.3750 -0.3750  0.1250 (reduced coord)
   0.05690
 kpt#  11, nband=  1, wtk=  0.06250, kpt= -0.3750 -0.3750  0.1250 (reduced coord)
   0.06084
 kpt#  12, nband=  1, wtk=  0.06250, kpt= -0.1250 -0.3750  0.1250 (reduced coord)
  -0.19299
 kpt#  13, nband=  1, wtk=  0.06250, kpt=  0.1250 -0.1250  0.1250 (reduced coord)
  -0.43620
 kpt#  14, nband=  1, wtk=  0.06250, kpt=  0.3750 -0.1250  0.1250 (reduced coord)
  -0.17855
 kpt#  15, nband=  1, wtk=  0.03125, kpt=  0.1250  0.3750  0.3750 (reduced coord)
   0.04755
 kpt#  16, nband=  1, wtk=  0.03125, kpt=  0.3750  0.3750  0.3750 (reduced coord)
   0.29745
 kpt#  17, nband=  1, wtk=  0.03125, kpt= -0.3750  0.3750  0.3750 (reduced coord)
   0.28482
 kpt#  18, nband=  1, wtk=  0.03125, kpt= -0.1250  0.3750  0.3750 (reduced coord)
   0.04439
 kpt#  19, nband=  1, wtk=  0.06250, kpt=  0.1250 -0.3750  0.3750 (reduced coord)
   0.04072
 kpt#  20, nband=  1, wtk=  0.06250, kpt=  0.3750 -0.3750  0.3750 (reduced coord)
   0.28583
 Total charge density [el/Bohr^3]
,     Maximum=    2.6614E-01  at reduced coord.    0.2500    0.1667    0.1667
,Next maximum=    2.6518E-01  at reduced coord.    0.0833    0.0833    0.0833
,     Minimum=    2.1907E-02  at reduced coord.    0.6667    0.6667    0.5833
,Next minimum=    2.1907E-02  at reduced coord.    0.6667    0.5833    0.6667
,  Integrated=    2.0000E+00

--------------------------------------------------------------------------------
 Components of total free energy (in Hartree) :

    Kinetic energy  =  1.32668004160786E+00
    Hartree energy  =  7.70496124912695E-02
    XC energy       = -7.76373752375019E-01
    Ewald energy    = -1.08797538150788E+00
    PspCore energy  =  6.22030071830427E-03
    Loc. psp. energy= -6.03254174083316E-01
    NL   psp  energy=  0.00000000000000E+00
    >>>>>>>>> Etotal= -1.05765335314878E+00

 Other information on the energy :
    Total energy(eV)= -2.87802113833475E+01 ; Band energy (Ha)=  -1.3718814361E-01
--------------------------------------------------------------------------------

 Cartesian components of stress tensor (hartree/bohr^3)
  sigma(1 1)= -4.52252090E-03  sigma(3 2)=  3.37475723E-04
  sigma(2 2)= -5.33044383E-03  sigma(3 1)=  4.04072157E-04
  sigma(3 3)= -5.33044383E-03  sigma(2 1)=  4.04072157E-04

-Cartesian components of stress tensor (GPa)         [Pressure=  1.4890E+02 GPa]
- sigma(1 1)= -1.33057136E+02  sigma(3 2)=  9.92887689E+00
- sigma(2 2)= -1.56827046E+02  sigma(3 1)=  1.18882113E+01
- sigma(3 3)= -1.56827046E+02  sigma(2 1)=  1.18882113E+01


--------------------------------------------------------------------------------
 STRING METHOD - CELL #    3/   6
--------------------------------------------------------------------------------

 Real(R)+Recip(G) space primitive vectors, cartesian coordinates (Bohr,Bohr^-1):
 R(1)=  3.0000000  0.0000000  0.0000000  G(1)=  0.3333333  0.0000000  0.0000000
 R(2)=  0.0000000  3.0000000  0.0000000  G(2)=  0.0000000  0.3333333  0.0000000
 R(3)=  0.0000000  0.0000000  3.0000000  G(3)=  0.0000000  0.0000000  0.3333333
 Unit cell volume ucvol=  2.7000000E+01 bohr^3
 Angles (23,13,12)=  9.00000000E+01  9.00000000E+01  9.00000000E+01 degrees

 getcut: wavevector=  0.0000  0.0000  0.0000  ngfft=  12  12  12
         ecut(hartree)=     15.000   => boxcut(ratio)=   2.29429

 getcut : COMMENT -
  Note that boxcut > 2.2 ; recall that boxcut=Gcut(box)/Gcut(sphere) = 2
  is sufficient for exact treatment of convolution.
  Such a large boxcut is a waste : you could raise ecut
  e.g. ecut=   19.739209 Hartrees makes boxcut=2

--------------------------------------------------------------------------------

P newkpt: treating      1 bands with npw=      78 for ikpt=   1 by node    0
P newkpt: treating      1 bands with npw=      73 for ikpt=   2 by node    0
P newkpt: treating      1 bands with npw=      73 for ikpt=   3 by node    0
P newkpt: treating      1 bands with npw=      78 for ikpt=   4 by node    0
P newkpt: treating      1 bands with npw=      73 for ikpt=   5 by node    0
P newkpt: treating      1 bands with npw=      76 for ikpt=   6 by node    0
P newkpt: treating      1 bands with npw=      76 for ikpt=   7 by node    0
P newkpt: treating      1 bands with npw=      73 for ikpt=   8 by node    0
P newkpt: treating      1 bands with npw=      73 for ikpt=   9 by node    0
P newkpt: treating      1 bands with npw=      76 for ikpt=  10 by node    0
P newkpt: treating      1 bands with npw=      76 for ikpt=  11 by node    0
P newkpt: treating      1 bands with npw=      73 for ikpt=  12 by node    0
P newkpt: treating      1 bands with npw=      78 for ikpt=  13 by node    0
P newkpt: treating      1 bands with npw=      73 for ikpt=  14 by node    0
P newkpt: treating      1 bands with npw=      76 for ikpt=  15 by node    0
P newkpt: treating      1 bands with npw=      72 for ikpt=  16 by node    0
P newkpt: treating      1 bands with npw=      72 for ikpt=  17 by node    0
P newkpt: treating      1 bands with npw=      76 for ikpt=  18 by node    0
P newkpt: treating      1 bands with npw=      76 for ikpt=  19 by node    0
P newkpt: treating      1 bands with npw=      72 for ikpt=  20 by node    0

_setup2: Arith. and geom. avg. npw (full set) are      74.625      74.598

================================================================================

     iter   Etot(hartree)      deltaE(h)  residm     vres2    diffor    maxfor
 ETOT  1  -1.0516064804963    -1.052E+00 3.135E-06 5.455E-01 1.803E-02 1.803E-02
 ETOT  2  -1.0519901513506    -3.837E-04 1.466E-10 4.365E-03 5.273E-04 1.856E-02
 ETOT  3  -1.0519922273190    -2.076E-06 1.145E-08 1.012E-05 4.919E-05 1.861E-02
 ETOT  4  -1.0519922299233    -2.604E-09 2.222E-11 6.312E-09 1.294E-06 1.861E-02
 ETOT  5  -1.0519922299252    -1.839E-12 1.162E-14 2.316E-12 4.999E-07 1.860E-02

 At SCF step    5, forces are converged : 
  for the second time, max diff in force=  4.999E-07 < toldff=  2.000E-06

 Cartesian components of stress tensor (hartree/bohr^3)
  sigma(1 1)= -3.58269234E-03  sigma(3 2)=  3.50237734E-04
  sigma(2 2)= -5.41809799E-03  sigma(3 1)=  2.29985887E-04
  sigma(3 3)= -5.41809799E-03  sigma(2 1)=  2.29985887E-04

================================================================================

 ----iterations are completed or convergence reached----

 Mean square residual over all n,k,spin=   4.1763E-15; max=  1.1625E-14
   0.1250  0.1250  0.1250    1  4.89004E-15 kpt; spin; max resid(k); each band:
  4.89E-15
   0.3750  0.1250  0.1250    1  5.27260E-15 kpt; spin; max resid(k); each band:
  5.27E-15
  -0.3750  0.1250  0.1250    1  4.65455E-15 kpt; spin; max resid(k); each band:
  4.65E-15
  -0.1250  0.1250  0.1250    1  4.15342E-15 kpt; spin; max resid(k); each band:
  4.15E-15
   0.1250  0.3750  0.1250    1  1.21571E-15 kpt; spin; max resid(k); each band:
  1.22E-15
   0.3750  0.3750  0.1250    1  1.01840E-14 kpt; spin; max resid(k); each band:
  1.02E-14
  -0.3750  0.3750  0.1250    1  1.16246E-14 kpt; spin; max resid(k); each band:
  1.16E-14
  -0.1250  0.3750  0.1250    1  1.73034E-15 kpt; spin; max resid(k); each band:
  1.73E-15
   0.1250 -0.3750  0.1250    1  1.74602E-15 kpt; spin; max resid(k); each band:
  1.75E-15
   0.3750 -0.3750  0.1250    1  9.64404E-15 kpt; spin; max resid(k); each band:
  9.64E-15
  -0.3750 -0.3750  0.1250    1  7.22551E-16 kpt; spin; max resid(k); each band:
  7.23E-16
  -0.1250 -0.3750  0.1250    1  1.80783E-15 kpt; spin; max resid(k); each band:
  1.81E-15
   0.1250 -0.1250  0.1250    1  4.30349E-15 kpt; spin; max resid(k); each band:
  4.30E-15
   0.3750 -0.1250  0.1250    1  6.57125E-15 kpt; spin; max resid(k); each band:
  6.57E-15
   0.1250  0.3750  0.3750    1  2.40209E-15 kpt; spin; max resid(k); each band:
  2.40E-15
   0.3750  0.3750  0.3750    1  2.17453E-15 kpt; spin; max resid(k); each band:
  2.17E-15
  -0.3750  0.3750  0.3750    1  1.50329E-15 kpt; spin; max resid(k); each band:
  1.50E-15
  -0.1250  0.3750  0.3750    1  5.50536E-15 kpt; spin; max resid(k); each band:
  5.51E-15
   0.1250 -0.3750  0.3750    1  1.81241E-15 kpt; spin; max resid(k); each band:
  1.81E-15
   0.3750 -0.3750  0.3750    1  1.60769E-15 kpt; spin; max resid(k); each band:
  1.61E-15
 reduced coordinates (array xred) for    2 atoms
       0.000000000000      0.000000000000      0.000000000000
       0.451127400000      0.255637000000      0.255637000000
 rms dE/dt=  5.0335E-02; max dE/dt=  5.5814E-02; dE/dt below (all hartree)
    1      -0.037020202448     -0.055814077853     -0.055814077853
    2       0.037020202607      0.055814077343      0.055814077343

 cartesian coordinates (angstrom) at end:
    1      0.00000000000000     0.00000000000000     0.00000000000000
    2      0.71617901475139     0.40583182221697     0.40583182221697

 cartesian forces (hartree/bohr) at end:
    1      0.01234006750904     0.01860469253266     0.01860469253266
    2     -0.01234006750904    -0.01860469253266    -0.01860469253266
 frms,max,avg= 1.8604693E-02 1.8604693E-02  -2.648E-11  8.500E-11  8.500E-11 h/b

 cartesian forces (eV/Angstrom) at end:
    1      0.63455173124595     0.95669167508644     0.95669167508644
    2     -0.63455173124595    -0.95669167508644    -0.95669167508644
 frms,max,avg= 9.5669168E-01 9.5669168E-01  -1.361E-09  4.371E-09  4.371E-09 e/A
 length scales=  3.000000000000  3.000000000000  3.000000000000 bohr
              =  1.587531625770  1.587531625770  1.587531625770 angstroms
 Fermi (or HOMO) energy (hartree) =   0.31629   Average Vxc (hartree)=  -0.45753
 Eigenvalues (hartree) for nkpt=  20  k points:
 kpt#   1, nband=  1, wtk=  0.03125, kpt=  0.1250  0.1250  0.1250 (reduced coord)
  -0.43095
 kpt#   2, nband=  1, wtk=  0.03125, kpt=  0.3750  0.1250  0.1250 (reduced coord)
  -0.16180
 kpt#   3, nband=  1, wtk=  0.03125, kpt= -0.3750  0.1250  0.1250 (reduced coord)
  -0.16315
 kpt#   4, nband=  1, wtk=  0.03125, kpt= -0.1250  0.1250  0.1250 (reduced coord)
  -0.43128
 kpt#   5, nband=  1, wtk=  0.06250, kpt=  0.1250  0.3750  0.1250 (reduced coord)
  -0.18582
 kpt#   6, nband=  1, wtk=  0.06250, kpt=  0.3750  0.3750  0.1250 (reduced coord)
   0.08063
 kpt#   7, nband=  1, wtk=  0.06250, kpt= -0.3750  0.3750  0.1250 (reduced coord)
   0.07733
 kpt#   8, nband=  1, wtk=  0.06250, kpt= -0.1250  0.3750  0.1250 (reduced coord)
  -0.18655
 kpt#   9, nband=  1, wtk=  0.06250, kpt=  0.1250 -0.3750  0.1250 (reduced coord)
  -0.18761
 kpt#  10, nband=  1, wtk=  0.06250, kpt=  0.3750 -0.3750  0.1250 (reduced coord)
   0.07702
 kpt#  11, nband=  1, wtk=  0.06250, kpt= -0.3750 -0.3750  0.1250 (reduced coord)
   0.07875
 kpt#  12, nband=  1, wtk=  0.06250, kpt= -0.1250 -0.3750  0.1250 (reduced coord)
  -0.18726
 kpt#  13, nband=  1, wtk=  0.06250, kpt=  0.1250 -0.1250  0.1250 (reduced coord)
  -0.43146
 kpt#  14, nband=  1, wtk=  0.06250, kpt=  0.3750 -0.1250  0.1250 (reduced coord)
  -0.16279
 kpt#  15, nband=  1, wtk=  0.03125, kpt=  0.1250  0.3750  0.3750 (reduced coord)
   0.05393
 kpt#  16, nband=  1, wtk=  0.03125, kpt=  0.3750  0.3750  0.3750 (reduced coord)
   0.31629
 kpt#  17, nband=  1, wtk=  0.03125, kpt= -0.3750  0.3750  0.3750 (reduced coord)
   0.31061
 kpt#  18, nband=  1, wtk=  0.03125, kpt= -0.1250  0.3750  0.3750 (reduced coord)
   0.05269
 kpt#  19, nband=  1, wtk=  0.06250, kpt=  0.1250 -0.3750  0.3750 (reduced coord)
   0.04849
 kpt#  20, nband=  1, wtk=  0.06250, kpt=  0.3750 -0.3750  0.3750 (reduced coord)
   0.30909
 Total charge density [el/Bohr^3]
,     Maximum=    2.2525E-01  at reduced coord.    0.4167    0.2500    0.2500
,Next maximum=    2.2290E-01  at reduced coord.    0.0000    0.0000    0.0000
,     Minimum=    2.6065E-02  at reduced coord.    0.6667    0.6667    0.6667
,Next minimum=    2.6116E-02  at reduced coord.    0.5833    0.6667    0.6667
,  Integrated=    2.0000E+00

--------------------------------------------------------------------------------
 Components of total free energy (in Hartree) :

    Kinetic energy  =  1.28169938792525E+00
    Hartree energy  =  5.85257277031224E-02
    XC energy       = -7.64948730186007E-01
    Ewald energy    = -1.12223048054044E+00
    PspCore energy  =  6.22030071830427E-03
    Loc. psp. energy= -5.11258435545402E-01
    NL   psp  energy=  0.00000000000000E+00
    >>>>>>>>> Etotal= -1.05199222992518E+00

 Other information on the energy :
    Total energy(eV)= -2.86261643862314E+01 ; Band energy (Ha)=  -1.1212565514E-01
--------------------------------------------------------------------------------

 Cartesian components of stress tensor (hartree/bohr^3)
  sigma(1 1)= -3.58269234E-03  sigma(3 2)=  3.50237734E-04
  sigma(2 2)= -5.41809799E-03  sigma(3 1)=  2.29985887E-04
  sigma(3 3)= -5.41809799E-03  sigma(2 1)=  2.29985887E-04

-Cartesian components of stress tensor (GPa)         [Pressure=  1.4141E+02 GPa]
- sigma(1 1)= -1.05406430E+02  sigma(3 2)=  1.03043482E+01
- sigma(2 2)= -1.59405919E+02  sigma(3 1)=  6.76641727E+00
- sigma(3 3)= -1.59405919E+02  sigma(2 1)=  6.76641727E+00


--------------------------------------------------------------------------------
 STRING METHOD - CELL #    4/   6
--------------------------------------------------------------------------------

 Real(R)+Recip(G) space primitive vectors, cartesian coordinates (Bohr,Bohr^-1):
 R(1)=  3.0000000  0.0000000  0.0000000  G(1)=  0.3333333  0.0000000  0.0000000
 R(2)=  0.0000000  3.0000000  0.0000000  G(2)=  0.0000000  0.3333333  0.0000000
 R(3)=  0.0000000  0.0000000  3.0000000  G(3)=  0.0000000  0.0000000  0.3333333
 Unit cell volume ucvol=  2.7000000E+01 bohr^3
 Angles (23,13,12)=  9.00000000E+01  9.00000000E+01  9.00000000E+01 degrees

 getcut: wavevector=  0.0000  0.0000  0.0000  ngfft=  12  12  12
         ecut(hartree)=     15.000   => boxcut(ratio)=   2.29429

 getcut : COMMENT -
  Note that boxcut > 2.2 ; recall that boxcut=Gcut(box)/Gcut(sphere) = 2
  is sufficient for exact treatment of convolution.
  Such a large boxcut is a waste : you could raise ecut
  e.g. ecut=   19.739209 Hartrees makes boxcut=2

--------------------------------------------------------------------------------

P newkpt: treating      1 bands with npw=      78 for ikpt=   1 by node    0
P newkpt: treating      1 bands with npw=      73 for ikpt=   2 by node    0
P newkpt: treating      1 bands with npw=      73 for ikpt=   3 by node    0
P newkpt: treating      1 bands with npw=      78 for ikpt=   4 by node    0
P newkpt: treating      1 bands with npw=      73 for ikpt=   5 by node    0
P newkpt: treating      1 bands with npw=      76 for ikpt=   6 by node    0
P newkpt: treating      1 bands with npw=      76 for ikpt=   7 by node    0
P newkpt: treating      1 bands with npw=      73 for ikpt=   8 by node    0
P newkpt: treating      1 bands with npw=      73 for ikpt=   9 by node    0
P newkpt: treating      1 bands with npw=      76 for ikpt=  10 by node    0
P newkpt: treating      1 bands with npw=      76 for ikpt=  11 by node    0
P newkpt: treating      1 bands with npw=      73 for ikpt=  12 by node    0
P newkpt: treating      1 bands with npw=      78 for ikpt=  13 by node    0
P newkpt: treating      1 bands with npw=      73 for ikpt=  14 by node    0
P newkpt: treating      1 bands with npw=      76 for ikpt=  15 by node    0
P newkpt: treating      1 bands with npw=      72 for ikpt=  16 by node    0
P newkpt: treating      1 bands with npw=      72 for ikpt=  17 by node    0
P newkpt: treating      1 bands with npw=      76 for ikpt=  18 by node    0
P newkpt: treating      1 bands with npw=      76 for ikpt=  19 by node    0
P newkpt: treating      1 bands with npw=      72 for ikpt=  20 by node    0

_setup2: Arith. and geom. avg. npw (full set) are      74.625      74.598

================================================================================

     iter   Etot(hartree)      deltaE(h)  residm     vres2    diffor    maxfor
 ETOT  1  -1.0516066118299    -1.052E+00 2.419E-06 5.455E-01 1.803E-02 1.803E-02
 ETOT  2  -1.0519901507645    -3.835E-04 1.468E-10 4.366E-03 5.290E-04 1.856E-02
 ETOT  3  -1.0519922273207    -2.077E-06 1.145E-08 1.012E-05 4.913E-05 1.861E-02
 ETOT  4  -1.0519922299233    -2.603E-09 2.224E-11 6.291E-09 1.295E-06 1.861E-02
 ETOT  5  -1.0519922299252    -1.837E-12 1.161E-14 2.310E-12 4.997E-07 1.860E-02

 At SCF step    5, forces are converged : 
  for the second time, max diff in force=  4.997E-07 < toldff=  2.000E-06

 Cartesian components of stress tensor (hartree/bohr^3)
  sigma(1 1)= -3.58269234E-03  sigma(3 2)=  3.50237734E-04
  sigma(2 2)= -5.41809799E-03  sigma(3 1)= -2.29985884E-04
  sigma(3 3)= -5.41809799E-03  sigma(2 1)= -2.29985884E-04

================================================================================

 ----iterations are completed or convergence reached----

 Mean square residual over all n,k,spin=   4.1751E-15; max=  1.1612E-14
   0.1250  0.1250  0.1250    1  4.14706E-15 kpt; spin; max resid(k); each band:
  4.15E-15
   0.3750  0.1250  0.1250    1  4.66212E-15 kpt; spin; max resid(k); each band:
  4.66E-15
  -0.3750  0.1250  0.1250    1  5.27304E-15 kpt; spin; max resid(k); each band:
  5.27E-15
  -0.1250  0.1250  0.1250    1  4.88610E-15 kpt; spin; max resid(k); each band:
  4.89E-15
   0.1250  0.3750  0.1250    1  1.72387E-15 kpt; spin; max resid(k); each band:
  1.72E-15
   0.3750  0.3750  0.1250    1  1.16124E-14 kpt; spin; max resid(k); each band:
  1.16E-14
  -0.3750  0.3750  0.1250    1  1.02711E-14 kpt; spin; max resid(k); each band:
  1.03E-14
  -0.1250  0.3750  0.1250    1  1.21370E-15 kpt; spin; max resid(k); each band:
  1.21E-15
   0.1250 -0.3750  0.1250    1  1.80643E-15 kpt; spin; max resid(k); each band:
  1.81E-15
   0.3750 -0.3750  0.1250    1  7.20649E-16 kpt; spin; max resid(k); each band:
  7.21E-16
  -0.3750 -0.3750  0.1250    1  9.66086E-15 kpt; spin; max resid(k); each band:
  9.66E-15
  -0.1250 -0.3750  0.1250    1  1.74150E-15 kpt; spin; max resid(k); each band:
  1.74E-15
   0.1250 -0.1250  0.1250    1  4.29609E-15 kpt; spin; max resid(k); each band:
  4.30E-15
   0.3750 -0.1250  0.1250    1  6.58711E-15 kpt; spin; max resid(k); each band:
  6.59E-15
   0.1250  0.3750  0.3750    1  5.45094E-15 kpt; spin; max resid(k); each band:
  5.45E-15
   0.3750  0.3750  0.3750    1  1.50600E-15 kpt; spin; max resid(k); each band:
  1.51E-15
  -0.3750  0.3750  0.3750    1  2.16392E-15 kpt; spin; max resid(k); each band:
  2.16E-15
  -0.1250  0.3750  0.3750    1  2.36336E-15 kpt; spin; max resid(k); each band:
  2.36E-15
   0.1250 -0.3750  0.3750    1  1.80568E-15 kpt; spin; max resid(k); each band:
  1.81E-15
   0.3750 -0.3750  0.3750    1  1.60968E-15 kpt; spin; max resid(k); each band:
  1.61E-15
 reduced coordinates (array xred) for    2 atoms
       0.000000000000      0.000000000000      0.000000000000
       0.548872600000      0.255637000000      0.255637000000
 rms dE/dt=  5.0335E-02; max dE/dt=  5.5814E-02; dE/dt below (all hartree)
    1       0.037020202333     -0.055814077585     -0.055814077585
    2      -0.037020202507      0.055814077272      0.055814077272

 cartesian coordinates (angstrom) at end:
    1      0.00000000000000     0.00000000000000     0.00000000000000
    2      0.87135261101861     0.40583182221697     0.40583182221697

 cartesian forces (hartree/bohr) at end:
    1     -0.01234006747334     0.01860469247619     0.01860469247619
    2      0.01234006747334    -0.01860469247619    -0.01860469247619
 frms,max,avg= 1.8604692E-02 1.8604692E-02   2.900E-11  5.224E-11  5.224E-11 h/b

 cartesian forces (eV/Angstrom) at end:
    1     -0.63455172941053     0.95669167218278     0.95669167218278
    2      0.63455172941053    -0.95669167218278    -0.95669167218278
 frms,max,avg= 9.5669167E-01 9.5669167E-01   1.491E-09  2.686E-09  2.686E-09 e/A
 length scales=  3.000000000000  3.000000000000  3.000000000000 bohr
              =  1.587531625770  1.587531625770  1.587531625770 angstroms
 Fermi (or HOMO) energy (hartree) =   0.31629   Average Vxc (hartree)=  -0.45753
 Eigenvalues (hartree) for nkpt=  20  k points:
 kpt#   1, nband=  1, wtk=  0.03125, kpt=  0.1250  0.1250  0.1250 (reduced coord)
  -0.43128
 kpt#   2, nband=  1, wtk=  0.03125, kpt=  0.3750  0.1250  0.1250 (reduced coord)
  -0.16315
 kpt#   3, nband=  1, wtk=  0.03125, kpt= -0.3750  0.1250  0.1250 (reduced coord)
  -0.16180
 kpt#   4, nband=  1, wtk=  0.03125, kpt= -0.1250  0.1250  0.1250 (reduced coord)
  -0.43095
 kpt#   5, nband=  1, wtk=  0.06250, kpt=  0.1250  0.3750  0.1250 (reduced coord)
  -0.18655
 kpt#   6, nband=  1, wtk=  0.06250, kpt=  0.3750  0.3750  0.1250 (reduced coord)
   0.07733
 kpt#   7, nband=  1, wtk=  0.06250, kpt= -0.3750  0.3750  0.1250 (reduced coord)
   0.08063
 kpt#   8, nband=  1, wtk=  0.06250, kpt= -0.1250  0.3750  0.1250 (reduced coord)
  -0.18582
 kpt#   9, nband=  1, wtk=  0.06250, kpt=  0.1250 -0.3750  0.1250 (reduced coord)
  -0.18726
 kpt#  10, nband=  1, wtk=  0.06250, kpt=  0.3750 -0.3750  0.1250 (reduced coord)
   0.07875
 kpt#  11, nband=  1, wtk=  0.06250, kpt= -0.3750 -0.3750  0.1250 (reduced coord)
   0.07702
 kpt#  12, nband=  1, wtk=  0.06250, kpt= -0.1250 -0.3750  0.1250 (reduced coord)
  -0.18761
 kpt#  13, nband=  1, wtk=  0.06250, kpt=  0.1250 -0.1250  0.1250 (reduced coord)
  -0.43146
 kpt#  14, nband=  1, wtk=  0.06250, kpt=  0.3750 -0.1250  0.1250 (reduced coord)
  -0.16279
 kpt#  15, nband=  1, wtk=  0.03125, kpt=  0.1250  0.3750  0.3750 (reduced coord)
   0.05269
 kpt#  16, nband=  1, wtk=  0.03125, kpt=  0.3750  0.3750  0.3750 (reduced coord)
   0.31061
 kpt#  17, nband=  1, wtk=  0.03125, kpt= -0.3750  0.3750  0.3750 (reduced coord)
   0.31629
 kpt#  18, nband=  1, wtk=  0.03125, kpt= -0.1250  0.3750  0.3750 (reduced coord)
   0.05393
 kpt#  19, nband=  1, wtk=  0.06250, kpt=  0.1250 -0.3750  0.3750 (reduced coord)
   0.04849
 kpt#  20, nband=  1, wtk=  0.06250, kpt=  0.3750 -0.3750  0.3750 (reduced coord)
   0.30909
 Total charge density [el/Bohr^3]
,     Maximum=    2.2525E-01  at reduced coord.    0.5833    0.2500    0.2500
,Next maximum=    2.2290E-01  at reduced coord.    0.0000    0.0000    0.0000
,     Minimum=    2.6065E-02  at reduced coord.    0.3333    0.6667    0.6667
,Next minimum=    2.6116E-02  at reduced coord.    0.4167    0.6667    0.6667
,  Integrated=    2.0000E+00

--------------------------------------------------------------------------------
 Components of total free energy (in Hartree) :

    Kinetic energy  =  1.28169938779864E+00
    Hartree energy  =  5.85257276677174E-02
    XC energy       = -7.64948730161780E-01
    Ewald energy    = -1.12223048054044E+00
    PspCore energy  =  6.22030071830427E-03
    Loc. psp. energy= -5.11258435407617E-01
    NL   psp  energy=  0.00000000000000E+00
    >>>>>>>>> Etotal= -1.05199222992518E+00

 Other information on the energy :
    Total energy(eV)= -2.86261643862314E+01 ; Band energy (Ha)=  -1.1212565489E-01
--------------------------------------------------------------------------------

 Cartesian components of stress tensor (hartree/bohr^3)
  sigma(1 1)= -3.58269234E-03  sigma(3 2)=  3.50237734E-04
  sigma(2 2)= -5.41809799E-03  sigma(3 1)= -2.29985884E-04
  sigma(3 3)= -5.41809799E-03  sigma(2 1)= -2.29985884E-04

-Cartesian components of stress tensor (GPa)         [Pressure=  1.4141E+02 GPa]
- sigma(1 1)= -1.05406430E+02  sigma(3 2)=  1.03043482E+01
- sigma(2 2)= -1.59405919E+02  sigma(3 1)= -6.76641717E+00
- sigma(3 3)= -1.59405919E+02  sigma(2 1)= -6.76641717E+00


--------------------------------------------------------------------------------
 STRING METHOD - CELL #    5/   6
--------------------------------------------------------------------------------

 Real(R)+Recip(G) space primitive vectors, cartesian coordinates (Bohr,Bohr^-1):
 R(1)=  3.0000000  0.0000000  0.0000000  G(1)=  0.3333333  0.0000000  0.0000000
 R(2)=  0.0000000  3.0000000  0.0000000  G(2)=  0.0000000  0.3333333  0.0000000
 R(3)=  0.0000000  0.0000000  3.0000000  G(3)=  0.0000000  0.0000000  0.3333333
 Unit cell volume ucvol=  2.7000000E+01 bohr^3
 Angles (23,13,12)=  9.00000000E+01  9.00000000E+01  9.00000000E+01 degrees

 getcut: wavevector=  0.0000  0.0000  0.0000  ngfft=  12  12  12
         ecut(hartree)=     15.000   => boxcut(ratio)=   2.29429

 getcut : COMMENT -
  Note that boxcut > 2.2 ; recall that boxcut=Gcut(box)/Gcut(sphere) = 2
  is sufficient for exact treatment of convolution.
  Such a large boxcut is a waste : you could raise ecut
  e.g. ecut=   19.739209 Hartrees makes boxcut=2

--------------------------------------------------------------------------------

P newkpt: treating      1 bands with npw=      78 for ikpt=   1 by node    0
P newkpt: treating      1 bands with npw=      73 for ikpt=   2 by node    0
P newkpt: treating      1 bands with npw=      73 for ikpt=   3 by node    0
P newkpt: treating      1 bands with npw=      78 for ikpt=   4 by node    0
P newkpt: treating      1 bands with npw=      73 for ikpt=   5 by node    0
P newkpt: treating      1 bands with npw=      76 for ikpt=   6 by node    0
P newkpt: treating      1 bands with npw=      76 for ikpt=   7 by node    0
P newkpt: treating      1 bands with npw=      73 for ikpt=   8 by node    0
P newkpt: treating      1 bands with npw=      73 for ikpt=   9 by node    0
P newkpt: treating      1 bands with npw=      76 for ikpt=  10 by node    0
P newkpt: treating      1 bands with npw=      76 for ikpt=  11 by node    0
P newkpt: treating      1 bands with npw=      73 for ikpt=  12 by node    0
P newkpt: treating      1 bands with npw=      78 for ikpt=  13 by node    0
P newkpt: treating      1 bands with npw=      73 for ikpt=  14 by node    0
P newkpt: treating      1 bands with npw=      76 for ikpt=  15 by node    0
P newkpt: treating      1 bands with npw=      72 for ikpt=  16 by node    0
P newkpt: treating      1 bands with npw=      72 for ikpt=  17 by node    0
P newkpt: treating      1 bands with npw=      76 for ikpt=  18 by node    0
P newkpt: treating      1 bands with npw=      76 for ikpt=  19 by node    0
P newkpt: treating      1 bands with npw=      72 for ikpt=  20 by node    0

_setup2: Arith. and geom. avg. npw (full set) are      74.625      74.598

================================================================================

     iter   Etot(hartree)      deltaE(h)  residm     vres2    diffor    maxfor
 ETOT  1  -1.0567674730066    -1.057E+00 1.007E-06 1.044E+00 1.862E-02 1.862E-02
 ETOT  2  -1.0576516439266    -8.842E-04 7.854E-10 5.035E-03 1.205E-03 1.741E-02
 ETOT  3  -1.0576533420185    -1.698E-06 8.315E-09 3.991E-05 2.098E-05 1.739E-02
 ETOT  4  -1.0576533531462    -1.113E-08 7.530E-11 1.021E-08 7.245E-06 1.738E-02
 ETOT  5  -1.0576533531488    -2.534E-12 8.950E-15 2.659E-12 6.031E-07 1.738E-02
 ETOT  6  -1.0576533531488    -4.219E-15 1.154E-17 1.552E-15 6.162E-09 1.738E-02

 At SCF step    6, forces are converged : 
  for the second time, max diff in force=  6.162E-09 < toldff=  2.000E-06

 Cartesian components of stress tensor (hartree/bohr^3)
  sigma(1 1)= -4.52252090E-03  sigma(3 2)=  3.37475723E-04
  sigma(2 2)= -5.33044383E-03  sigma(3 1)= -4.04072157E-04
  sigma(3 3)= -5.33044383E-03  sigma(2 1)= -4.04072157E-04

================================================================================

 ----iterations are completed or convergence reached----

 Mean square residual over all n,k,spin=   1.7175E-18; max=  1.1543E-17
   0.1250  0.1250  0.1250    1  5.15815E-19 kpt; spin; max resid(k); each band:
  5.16E-19
   0.3750  0.1250  0.1250    1  9.30124E-19 kpt; spin; max resid(k); each band:
  9.30E-19
  -0.3750  0.1250  0.1250    1  1.17075E-18 kpt; spin; max resid(k); each band:
  1.17E-18
  -0.1250  0.1250  0.1250    1  5.94582E-19 kpt; spin; max resid(k); each band:
  5.95E-19
   0.1250  0.3750  0.1250    1  6.09080E-19 kpt; spin; max resid(k); each band:
  6.09E-19
   0.3750  0.3750  0.1250    1  2.04763E-18 kpt; spin; max resid(k); each band:
  2.05E-18
  -0.3750  0.3750  0.1250    1  3.71390E-19 kpt; spin; max resid(k); each band:
  3.71E-19
  -0.1250  0.3750  0.1250    1  3.74831E-19 kpt; spin; max resid(k); each band:
  3.75E-19
   0.1250 -0.3750  0.1250    1  6.45071E-19 kpt; spin; max resid(k); each band:
  6.45E-19
   0.3750 -0.3750  0.1250    1  3.01336E-18 kpt; spin; max resid(k); each band:
  3.01E-18
  -0.3750 -0.3750  0.1250    1  2.06671E-19 kpt; spin; max resid(k); each band:
  2.07E-19
  -0.1250 -0.3750  0.1250    1  3.39248E-19 kpt; spin; max resid(k); each band:
  3.39E-19
   0.1250 -0.1250  0.1250    1  6.10716E-19 kpt; spin; max resid(k); each band:
  6.11E-19
   0.3750 -0.1250  0.1250    1  9.94643E-19 kpt; spin; max resid(k); each band:
  9.95E-19
   0.1250  0.3750  0.3750    1  3.41584E-18 kpt; spin; max resid(k); each band:
  3.42E-18
   0.3750  0.3750  0.3750    1  1.15431E-17 kpt; spin; max resid(k); each band:
  1.15E-17
  -0.3750  0.3750  0.3750    1  3.09320E-19 kpt; spin; max resid(k); each band:
  3.09E-19
  -0.1250  0.3750  0.3750    1  2.84952E-18 kpt; spin; max resid(k); each band:
  2.85E-18
   0.1250 -0.3750  0.3750    1  5.50515E-19 kpt; spin; max resid(k); each band:
  5.51E-19
   0.3750 -0.3750  0.3750    1  3.25796E-18 kpt; spin; max resid(k); each band:
  3.26E-18
 reduced coordinates (array xred) for    2 atoms
       0.000000000000      0.000000000000      0.000000000000
       0.646617800000      0.255637000000      0.255637000000
 rms dE/dt=  5.6577E-02; max dE/dt=  6.4523E-02; dE/dt below (all hartree)
    1       0.064522696134     -0.052152249473     -0.052152249473
    2      -0.064522696223      0.052152249450      0.052152249450

 cartesian coordinates (angstrom) at end:
    1      0.00000000000000     0.00000000000000     0.00000000000000
    2      1.02652620728582     0.40583182221697     0.40583182221697

 cartesian forces (hartree/bohr) at end:
    1     -0.02150756539294     0.01738408315374     0.01738408315374
    2      0.02150756539294    -0.01738408315374    -0.01738408315374
 frms,max,avg= 1.7384083E-02 1.7384083E-02   1.480E-11  3.829E-12  3.829E-12 h/b

 cartesian forces (eV/Angstrom) at end:
    1     -1.10596338674641     0.89392542247046     0.89392542247046
    2      1.10596338674641    -0.89392542247046    -0.89392542247046
 frms,max,avg= 8.9392542E-01 8.9392542E-01   7.608E-10  1.969E-10  1.969E-10 e/A
 length scales=  3.000000000000  3.000000000000  3.000000000000 bohr
              =  1.587531625770  1.587531625770  1.587531625770 angstroms
 Fermi (or HOMO) energy (hartree) =   0.29745   Average Vxc (hartree)=  -0.45435
 Eigenvalues (hartree) for nkpt=  20  k points:
 kpt#   1, nband=  1, wtk=  0.03125, kpt=  0.1250  0.1250  0.1250 (reduced coord)
  -0.43621
 kpt#   2, nband=  1, wtk=  0.03125, kpt=  0.3750  0.1250  0.1250 (reduced coord)
  -0.17969
 kpt#   3, nband=  1, wtk=  0.03125, kpt= -0.3750  0.1250  0.1250 (reduced coord)
  -0.17653
 kpt#   4, nband=  1, wtk=  0.03125, kpt= -0.1250  0.1250  0.1250 (reduced coord)
  -0.43536
 kpt#   5, nband=  1, wtk=  0.06250, kpt=  0.1250  0.3750  0.1250 (reduced coord)
  -0.19297
 kpt#   6, nband=  1, wtk=  0.06250, kpt=  0.3750  0.3750  0.1250 (reduced coord)
   0.05655
 kpt#   7, nband=  1, wtk=  0.06250, kpt= -0.3750  0.3750  0.1250 (reduced coord)
   0.06413
 kpt#   8, nband=  1, wtk=  0.06250, kpt= -0.1250  0.3750  0.1250 (reduced coord)
  -0.19110
 kpt#   9, nband=  1, wtk=  0.06250, kpt=  0.1250 -0.3750  0.1250 (reduced coord)
  -0.19299
 kpt#  10, nband=  1, wtk=  0.06250, kpt=  0.3750 -0.3750  0.1250 (reduced coord)
   0.06084
 kpt#  11, nband=  1, wtk=  0.06250, kpt= -0.3750 -0.3750  0.1250 (reduced coord)
   0.05690
 kpt#  12, nband=  1, wtk=  0.06250, kpt= -0.1250 -0.3750  0.1250 (reduced coord)
  -0.19388
 kpt#  13, nband=  1, wtk=  0.06250, kpt=  0.1250 -0.1250  0.1250 (reduced coord)
  -0.43620
 kpt#  14, nband=  1, wtk=  0.06250, kpt=  0.3750 -0.1250  0.1250 (reduced coord)
  -0.17855
 kpt#  15, nband=  1, wtk=  0.03125, kpt=  0.1250  0.3750  0.3750 (reduced coord)
   0.04439
 kpt#  16, nband=  1, wtk=  0.03125, kpt=  0.3750  0.3750  0.3750 (reduced coord)
   0.28482
 kpt#  17, nband=  1, wtk=  0.03125, kpt= -0.3750  0.3750  0.3750 (reduced coord)
   0.29745
 kpt#  18, nband=  1, wtk=  0.03125, kpt= -0.1250  0.3750  0.3750 (reduced coord)
   0.04755
 kpt#  19, nband=  1, wtk=  0.06250, kpt=  0.1250 -0.3750  0.3750 (reduced coord)
   0.04072
 kpt#  20, nband=  1, wtk=  0.06250, kpt=  0.3750 -0.3750  0.3750 (reduced coord)
   0.28583
 Total charge density [el/Bohr^3]
,     Maximum=    2.6614E-01  at reduced coord.    0.7500    0.1667    0.1667
,Next maximum=    2.6518E-01  at reduced coord.    0.9167    0.0833    0.0833
,     Minimum=    2.1907E-02  at reduced coord.    0.3333    0.6667    0.5833
,Next minimum=    2.1907E-02  at reduced coord.    0.3333    0.5833    0.6667
,  Integrated=    2.0000E+00

--------------------------------------------------------------------------------
 Components of total free energy (in Hartree) :

    Kinetic energy  =  1.32668004161617E+00
    Hartree energy  =  7.70496124941920E-02
    XC energy       = -7.76373752376889E-01
    Ewald energy    = -1.08797538150788E+00
    PspCore energy  =  6.22030071830427E-03
    Loc. psp. energy= -6.03254174092676E-01
    NL   psp  energy=  0.00000000000000E+00
    >>>>>>>>> Etotal= -1.05765335314877E+00

 Other information on the energy :
    Total energy(eV)= -2.87802113833474E+01 ; Band energy (Ha)=  -1.3718814363E-01
--------------------------------------------------------------------------------

 Cartesian components of stress tensor (hartree/bohr^3)
  sigma(1 1)= -4.52252090E-03  sigma(3 2)=  3.37475723E-04
  sigma(2 2)= -5.33044383E-03  sigma(3 1)= -4.04072157E-04
  sigma(3 3)= -5.33044383E-03  sigma(2 1)= -4.04072157E-04

-Cartesian components of stress tensor (GPa)         [Pressure=  1.4890E+02 GPa]
- sigma(1 1)= -1.33057136E+02  sigma(3 2)=  9.92887689E+00
- sigma(2 2)= -1.56827046E+02  sigma(3 1)= -1.18882113E+01
- sigma(3 3)= -1.56827046E+02  sigma(2 1)= -1.18882113E+01

------------------------------------------------------------
 STRING METHOD:
 Moving images of the cell...


================================================================================
 STRING METHOD - TIME STEP     2
================================================================================


--------------------------------------------------------------------------------
 STRING METHOD - CELL #    2/   6
--------------------------------------------------------------------------------

 Real(R)+Recip(G) space primitive vectors, cartesian coordinates (Bohr,Bohr^-1):
 R(1)=  3.0000000  0.0000000  0.0000000  G(1)=  0.3333333  0.0000000  0.0000000
 R(2)=  0.0000000  3.0000000  0.0000000  G(2)=  0.0000000  0.3333333  0.0000000
 R(3)=  0.0000000  0.0000000  3.0000000  G(3)=  0.0000000  0.0000000  0.3333333
 Unit cell volume ucvol=  2.7000000E+01 bohr^3
 Angles (23,13,12)=  9.00000000E+01  9.00000000E+01  9.00000000E+01 degrees

 getcut: wavevector=  0.0000  0.0000  0.0000  ngfft=  12  12  12
         ecut(hartree)=     15.000   => boxcut(ratio)=   2.29429

 getcut : COMMENT -
  Note that boxcut > 2.2 ; recall that boxcut=Gcut(box)/Gcut(sphere) = 2
  is sufficient for exact treatment of convolution.
  Such a large boxcut is a waste : you could raise ecut
  e.g. ecut=   19.739209 Hartrees makes boxcut=2

--------------------------------------------------------------------------------

P newkpt: treating      1 bands with npw=      78 for ikpt=   1 by node    0
P newkpt: treating      1 bands with npw=      73 for ikpt=   2 by node    0
P newkpt: treating      1 bands with npw=      73 for ikpt=   3 by node    0
P newkpt: treating      1 bands with npw=      78 for ikpt=   4 by node    0
P newkpt: treating      1 bands with npw=      73 for ikpt=   5 by node    0
P newkpt: treating      1 bands with npw=      76 for ikpt=   6 by node    0
P newkpt: treating      1 bands with npw=      76 for ikpt=   7 by node    0
P newkpt: treating      1 bands with npw=      73 for ikpt=   8 by node    0
P newkpt: treating      1 bands with npw=      73 for ikpt=   9 by node    0
P newkpt: treating      1 bands with npw=      76 for ikpt=  10 by node    0
P newkpt: treating      1 bands with npw=      76 for ikpt=  11 by node    0
P newkpt: treating      1 bands with npw=      73 for ikpt=  12 by node    0
P newkpt: treating      1 bands with npw=      78 for ikpt=  13 by node    0
P newkpt: treating      1 bands with npw=      73 for ikpt=  14 by node    0
P newkpt: treating      1 bands with npw=      76 for ikpt=  15 by node    0
P newkpt: treating      1 bands with npw=      72 for ikpt=  16 by node    0
P newkpt: treating      1 bands with npw=      72 for ikpt=  17 by node    0
P newkpt: treating      1 bands with npw=      76 for ikpt=  18 by node    0
P newkpt: treating      1 bands with npw=      76 for ikpt=  19 by node    0
P newkpt: treating      1 bands with npw=      72 for ikpt=  20 by node    0

_setup2: Arith. and geom. avg. npw (full set) are      74.625      74.598

================================================================================

     iter   Etot(hartree)      deltaE(h)  residm     vres2    diffor    maxfor
 ETOT  1  -1.0529488652552    -1.053E+00 9.186E-07 2.684E+00 2.971E-02 2.971E-02
 ETOT  2  -1.0554355670002    -2.487E-03 1.028E-09 1.123E-02 3.735E-03 3.344E-02
 ETOT  3  -1.0554381135478    -2.547E-06 1.386E-08 2.037E-04 1.803E-05 3.342E-02
 ETOT  4  -1.0554381748780    -6.133E-08 2.403E-10 3.914E-08 2.390E-05 3.345E-02
 ETOT  5  -1.0554381748874    -9.375E-12 2.493E-14 1.344E-11 6.885E-07 3.345E-02
 ETOT  6  -1.0554381748874     8.882E-16 2.403E-17 1.473E-14 1.222E-08 3.345E-02

 At SCF step    6, forces are converged : 
  for the second time, max diff in force=  1.222E-08 < toldff=  2.000E-06

 Cartesian components of stress tensor (hartree/bohr^3)
  sigma(1 1)= -8.04443828E-03  sigma(3 2)= -5.87957438E-04
  sigma(2 2)= -6.06685463E-03  sigma(3 1)= -1.09952913E-03
  sigma(3 3)= -6.06685463E-03  sigma(2 1)= -1.09952913E-03

================================================================================

 ----iterations are completed or convergence reached----

 Mean square residual over all n,k,spin=   8.4244E-18; max=  2.4029E-17
   0.1250  0.1250  0.1250    1  5.88680E-18 kpt; spin; max resid(k); each band:
  5.89E-18
   0.3750  0.1250  0.1250    1  1.58149E-17 kpt; spin; max resid(k); each band:
  1.58E-17
  -0.3750  0.1250  0.1250    1  1.03122E-17 kpt; spin; max resid(k); each band:
  1.03E-17
  -0.1250  0.1250  0.1250    1  4.62792E-18 kpt; spin; max resid(k); each band:
  4.63E-18
   0.1250  0.3750  0.1250    1  6.58721E-18 kpt; spin; max resid(k); each band:
  6.59E-18
   0.3750  0.3750  0.1250    1  4.04802E-18 kpt; spin; max resid(k); each band:
  4.05E-18
  -0.3750  0.3750  0.1250    1  1.39219E-17 kpt; spin; max resid(k); each band:
  1.39E-17
  -0.1250  0.3750  0.1250    1  2.83194E-18 kpt; spin; max resid(k); each band:
  2.83E-18
   0.1250 -0.3750  0.1250    1  3.53593E-18 kpt; spin; max resid(k); each band:
  3.54E-18
   0.3750 -0.3750  0.1250    1  1.65109E-17 kpt; spin; max resid(k); each band:
  1.65E-17
  -0.3750 -0.3750  0.1250    1  2.40293E-17 kpt; spin; max resid(k); each band:
  2.40E-17
  -0.1250 -0.3750  0.1250    1  8.56539E-18 kpt; spin; max resid(k); each band:
  8.57E-18
   0.1250 -0.1250  0.1250    1  4.63250E-18 kpt; spin; max resid(k); each band:
  4.63E-18
   0.3750 -0.1250  0.1250    1  1.21955E-17 kpt; spin; max resid(k); each band:
  1.22E-17
   0.1250  0.3750  0.3750    1  1.53657E-18 kpt; spin; max resid(k); each band:
  1.54E-18
   0.3750  0.3750  0.3750    1  6.32600E-18 kpt; spin; max resid(k); each band:
  6.33E-18
  -0.3750  0.3750  0.3750    1  5.49638E-18 kpt; spin; max resid(k); each band:
  5.50E-18
  -0.1250  0.3750  0.3750    1  1.89809E-18 kpt; spin; max resid(k); each band:
  1.90E-18
   0.1250 -0.3750  0.3750    1  1.54199E-18 kpt; spin; max resid(k); each band:
  1.54E-18
   0.3750 -0.3750  0.3750    1  1.81886E-17 kpt; spin; max resid(k); each band:
  1.82E-17
 reduced coordinates (array xred) for    2 atoms
       0.000000000000      0.050407278513      0.050407278513
       0.327469359543      0.205229721487      0.205229721487
 rms dE/dt=  1.3238E-01; max dE/dt=  1.8011E-01; dE/dt below (all hartree)
    1       0.180111393187      0.100342220776      0.100342220776
    2      -0.180111393288     -0.100342220766     -0.100342220766

 cartesian coordinates (angstrom) at end:
    1      0.00000000000000     0.08002314880891     0.08002314880891
    2      0.51986796474459     0.32580867340805     0.32580867340805

 cartesian forces (hartree/bohr) at end:
    1     -0.06003713107905    -0.03344740692370    -0.03344740692370
    2      0.06003713107905     0.03344740692370     0.03344740692370
 frms,max,avg= 3.3447407E-02 3.3447407E-02   1.684E-11 -1.616E-12 -1.616E-12 h/b

 cartesian forces (eV/Angstrom) at end:
    1     -3.08723314822687    -1.71993467244636    -1.71993467244636
    2      3.08723314822687     1.71993467244636     1.71993467244636
 frms,max,avg= 1.7199347E+00 1.7199347E+00   8.659E-10 -8.312E-11 -8.312E-11 e/A
 length scales=  3.000000000000  3.000000000000  3.000000000000 bohr
              =  1.587531625770  1.587531625770  1.587531625770 angstroms
 Fermi (or HOMO) energy (hartree) =   0.21571   Average Vxc (hartree)=  -0.44444
 Eigenvalues (hartree) for nkpt=  20  k points:
 kpt#   1, nband=  1, wtk=  0.03125, kpt=  0.1250  0.1250  0.1250 (reduced coord)
  -0.45887
 kpt#   2, nband=  1, wtk=  0.03125, kpt=  0.3750  0.1250  0.1250 (reduced coord)
  -0.20738
 kpt#   3, nband=  1, wtk=  0.03125, kpt= -0.3750  0.1250  0.1250 (reduced coord)
  -0.21041
 kpt#   4, nband=  1, wtk=  0.03125, kpt= -0.1250  0.1250  0.1250 (reduced coord)
  -0.45972
 kpt#   5, nband=  1, wtk=  0.06250, kpt=  0.1250  0.3750  0.1250 (reduced coord)
  -0.23389
 kpt#   6, nband=  1, wtk=  0.06250, kpt=  0.3750  0.3750  0.1250 (reduced coord)
   0.01119
 kpt#   7, nband=  1, wtk=  0.06250, kpt= -0.3750  0.3750  0.1250 (reduced coord)
   0.00478
 kpt#   8, nband=  1, wtk=  0.06250, kpt= -0.1250  0.3750  0.1250 (reduced coord)
  -0.23565
 kpt#   9, nband=  1, wtk=  0.06250, kpt=  0.1250 -0.3750  0.1250 (reduced coord)
  -0.23592
 kpt#  10, nband=  1, wtk=  0.06250, kpt=  0.3750 -0.3750  0.1250 (reduced coord)
   0.00569
 kpt#  11, nband=  1, wtk=  0.06250, kpt= -0.3750 -0.3750  0.1250 (reduced coord)
   0.00861
 kpt#  12, nband=  1, wtk=  0.06250, kpt= -0.1250 -0.3750  0.1250 (reduced coord)
  -0.23522
 kpt#  13, nband=  1, wtk=  0.06250, kpt=  0.1250 -0.1250  0.1250 (reduced coord)
  -0.45959
 kpt#  14, nband=  1, wtk=  0.06250, kpt=  0.3750 -0.1250  0.1250 (reduced coord)
  -0.20920
 kpt#  15, nband=  1, wtk=  0.03125, kpt=  0.1250  0.3750  0.3750 (reduced coord)
  -0.02070
 kpt#  16, nband=  1, wtk=  0.03125, kpt=  0.3750  0.3750  0.3750 (reduced coord)
   0.21571
 kpt#  17, nband=  1, wtk=  0.03125, kpt= -0.3750  0.3750  0.3750 (reduced coord)
   0.20607
 kpt#  18, nband=  1, wtk=  0.03125, kpt= -0.1250  0.3750  0.3750 (reduced coord)
  -0.02346
 kpt#  19, nband=  1, wtk=  0.06250, kpt=  0.1250 -0.3750  0.3750 (reduced coord)
  -0.02455
 kpt#  20, nband=  1, wtk=  0.06250, kpt=  0.3750 -0.3750  0.3750 (reduced coord)
   0.20844
 Total charge density [el/Bohr^3]
,     Maximum=    3.8766E-01  at reduced coord.    0.1667    0.1667    0.1667
,Next maximum=    3.8176E-01  at reduced coord.    0.1667    0.0833    0.0833
,     Minimum=    1.5689E-02  at reduced coord.    0.6667    0.6667    0.5833
,Next minimum=    1.5689E-02  at reduced coord.    0.6667    0.5833    0.6667
,  Integrated=    2.0000E+00

--------------------------------------------------------------------------------
 Components of total free energy (in Hartree) :

    Kinetic energy  =  1.47557785208882E+00
    Hartree energy  =  1.35394171520470E-01
    XC energy       = -8.11775260004666E-01
    Ewald energy    = -9.41641996829018E-01
    PspCore energy  =  6.22030071830427E-03
    Loc. psp. energy= -9.19213242381307E-01
    NL   psp  energy=  0.00000000000000E+00
    >>>>>>>>> Etotal= -1.05543817488739E+00

 Other information on the energy :
    Total energy(eV)= -2.87199333173587E+01 ; Band energy (Ha)=  -2.3433647433E-01
--------------------------------------------------------------------------------

 Cartesian components of stress tensor (hartree/bohr^3)
  sigma(1 1)= -8.04443828E-03  sigma(3 2)= -5.87957438E-04
  sigma(2 2)= -6.06685463E-03  sigma(3 1)= -1.09952913E-03
  sigma(3 3)= -6.06685463E-03  sigma(2 1)= -1.09952913E-03

-Cartesian components of stress tensor (GPa)         [Pressure=  1.9789E+02 GPa]
- sigma(1 1)= -2.36675505E+02  sigma(3 2)= -1.72983021E+01
- sigma(2 2)= -1.78492996E+02  sigma(3 1)= -3.23492583E+01
- sigma(3 3)= -1.78492996E+02  sigma(2 1)= -3.23492583E+01


--------------------------------------------------------------------------------
 STRING METHOD - CELL #    3/   6
--------------------------------------------------------------------------------

 Real(R)+Recip(G) space primitive vectors, cartesian coordinates (Bohr,Bohr^-1):
 R(1)=  3.0000000  0.0000000  0.0000000  G(1)=  0.3333333  0.0000000  0.0000000
 R(2)=  0.0000000  3.0000000  0.0000000  G(2)=  0.0000000  0.3333333  0.0000000
 R(3)=  0.0000000  0.0000000  3.0000000  G(3)=  0.0000000  0.0000000  0.3333333
 Unit cell volume ucvol=  2.7000000E+01 bohr^3
 Angles (23,13,12)=  9.00000000E+01  9.00000000E+01  9.00000000E+01 degrees

 getcut: wavevector=  0.0000  0.0000  0.0000  ngfft=  12  12  12
         ecut(hartree)=     15.000   => boxcut(ratio)=   2.29429

 getcut : COMMENT -
  Note that boxcut > 2.2 ; recall that boxcut=Gcut(box)/Gcut(sphere) = 2
  is sufficient for exact treatment of convolution.
  Such a large boxcut is a waste : you could raise ecut
  e.g. ecut=   19.739209 Hartrees makes boxcut=2

--------------------------------------------------------------------------------

P newkpt: treating      1 bands with npw=      78 for ikpt=   1 by node    0
P newkpt: treating      1 bands with npw=      73 for ikpt=   2 by node    0
P newkpt: treating      1 bands with npw=      73 for ikpt=   3 by node    0
P newkpt: treating      1 bands with npw=      78 for ikpt=   4 by node    0
P newkpt: treating      1 bands with npw=      73 for ikpt=   5 by node    0
P newkpt: treating      1 bands with npw=      76 for ikpt=   6 by node    0
P newkpt: treating      1 bands with npw=      76 for ikpt=   7 by node    0
P newkpt: treating      1 bands with npw=      73 for ikpt=   8 by node    0
P newkpt: treating      1 bands with npw=      73 for ikpt=   9 by node    0
P newkpt: treating      1 bands with npw=      76 for ikpt=  10 by node    0
P newkpt: treating      1 bands with npw=      76 for ikpt=  11 by node    0
P newkpt: treating      1 bands with npw=      73 for ikpt=  12 by node    0
P newkpt: treating      1 bands with npw=      78 for ikpt=  13 by node    0
P newkpt: treating      1 bands with npw=      73 for ikpt=  14 by node    0
P newkpt: treating      1 bands with npw=      76 for ikpt=  15 by node    0
P newkpt: treating      1 bands with npw=      72 for ikpt=  16 by node    0
P newkpt: treating      1 bands with npw=      72 for ikpt=  17 by node    0
P newkpt: treating      1 bands with npw=      76 for ikpt=  18 by node    0
P newkpt: treating      1 bands with npw=      76 for ikpt=  19 by node    0
P newkpt: treating      1 bands with npw=      72 for ikpt=  20 by node    0

_setup2: Arith. and geom. avg. npw (full set) are      74.625      74.598

================================================================================

     iter   Etot(hartree)      deltaE(h)  residm     vres2    diffor    maxfor
 ETOT  1  -1.0588278987404    -1.059E+00 3.510E-06 1.255E+00 1.103E-04 1.103E-04
 ETOT  2  -1.0597665405667    -9.386E-04 9.675E-10 9.833E-03 3.869E-05 1.490E-04
 ETOT  3  -1.0597702017920    -3.661E-06 1.110E-08 5.459E-05 3.737E-05 1.116E-04
 ETOT  4  -1.0597702160622    -1.427E-08 1.267E-10 4.342E-08 2.772E-06 1.144E-04
 ETOT  5  -1.0597702160741    -1.189E-11 6.390E-14 1.566E-11 6.787E-07 1.151E-04
 ETOT  6  -1.0597702160741     8.882E-16 4.082E-17 1.279E-14 1.598E-08 1.151E-04

 At SCF step    6, forces are converged : 
  for the second time, max diff in force=  1.598E-08 < toldff=  2.000E-06

 Cartesian components of stress tensor (hartree/bohr^3)
  sigma(1 1)= -5.08448860E-03  sigma(3 2)= -2.25902263E-05
  sigma(2 2)= -5.81709652E-03  sigma(3 1)=  1.35225428E-05
  sigma(3 3)= -5.81709652E-03  sigma(2 1)=  1.35225428E-05

================================================================================

 ----iterations are completed or convergence reached----

 Mean square residual over all n,k,spin=   1.1781E-17; max=  4.0820E-17
   0.1250  0.1250  0.1250    1  4.41997E-18 kpt; spin; max resid(k); each band:
  4.42E-18
   0.3750  0.1250  0.1250    1  1.41192E-17 kpt; spin; max resid(k); each band:
  1.41E-17
  -0.3750  0.1250  0.1250    1  1.19774E-17 kpt; spin; max resid(k); each band:
  1.20E-17
  -0.1250  0.1250  0.1250    1  3.04640E-18 kpt; spin; max resid(k); each band:
  3.05E-18
   0.1250  0.3750  0.1250    1  3.38100E-18 kpt; spin; max resid(k); each band:
  3.38E-18
   0.3750  0.3750  0.1250    1  3.14015E-17 kpt; spin; max resid(k); each band:
  3.14E-17
  -0.3750  0.3750  0.1250    1  2.47110E-17 kpt; spin; max resid(k); each band:
  2.47E-17
  -0.1250  0.3750  0.1250    1  3.49168E-18 kpt; spin; max resid(k); each band:
  3.49E-18
   0.1250 -0.3750  0.1250    1  3.74597E-18 kpt; spin; max resid(k); each band:
  3.75E-18
   0.3750 -0.3750  0.1250    1  2.67270E-17 kpt; spin; max resid(k); each band:
  2.67E-17
  -0.3750 -0.3750  0.1250    1  4.08196E-17 kpt; spin; max resid(k); each band:
  4.08E-17
  -0.1250 -0.3750  0.1250    1  4.64282E-18 kpt; spin; max resid(k); each band:
  4.64E-18
   0.1250 -0.1250  0.1250    1  5.05930E-18 kpt; spin; max resid(k); each band:
  5.06E-18
   0.3750 -0.1250  0.1250    1  1.22594E-17 kpt; spin; max resid(k); each band:
  1.23E-17
   0.1250  0.3750  0.3750    1  9.02297E-18 kpt; spin; max resid(k); each band:
  9.02E-18
   0.3750  0.3750  0.3750    1  2.40003E-17 kpt; spin; max resid(k); each band:
  2.40E-17
  -0.3750  0.3750  0.3750    1  3.81210E-18 kpt; spin; max resid(k); each band:
  3.81E-18
  -0.1250  0.3750  0.3750    1  3.72791E-18 kpt; spin; max resid(k); each band:
  3.73E-18
   0.1250 -0.3750  0.3750    1  2.52785E-18 kpt; spin; max resid(k); each band:
  2.53E-18
   0.3750 -0.3750  0.3750    1  2.71700E-18 kpt; spin; max resid(k); each band:
  2.72E-18
 reduced coordinates (array xred) for    2 atoms
       0.000000000000      0.062197026968      0.062197026968
       0.439962141969      0.193439973032      0.193439973032
 rms dE/dt=  8.2387E-03; max dE/dt=  1.4261E-02; dE/dt below (all hartree)
    1      -0.014261440392      0.000345331416      0.000345331416
    2       0.014261440359     -0.000345331425     -0.000345331425

 cartesian coordinates (angstrom) at end:
    1      0.00000000000000     0.09873974734034     0.09873974734034
    2      0.69845381451680     0.30709207487662     0.30709207487662

 cartesian forces (hartree/bohr) at end:
    1      0.00475381345853    -0.00011511047341    -0.00011511047341
    2     -0.00475381345853     0.00011511047341     0.00011511047341
 frms,max,avg= 1.1511047E-04 1.1511047E-04   5.406E-12  1.525E-12  1.525E-12 h/b

 cartesian forces (eV/Angstrom) at end:
    1      0.24445089606855    -0.00591921803793    -0.00591921803793
    2     -0.24445089606855     0.00591921803793     0.00591921803793
 frms,max,avg= 5.9192180E-03 5.9192180E-03   2.780E-10  7.842E-11  7.842E-11 e/A
 length scales=  3.000000000000  3.000000000000  3.000000000000 bohr
              =  1.587531625770  1.587531625770  1.587531625770 angstroms
 Fermi (or HOMO) energy (hartree) =   0.25548   Average Vxc (hartree)=  -0.44964
 Eigenvalues (hartree) for nkpt=  20  k points:
 kpt#   1, nband=  1, wtk=  0.03125, kpt=  0.1250  0.1250  0.1250 (reduced coord)
  -0.45101
 kpt#   2, nband=  1, wtk=  0.03125, kpt=  0.3750  0.1250  0.1250 (reduced coord)
  -0.18089
 kpt#   3, nband=  1, wtk=  0.03125, kpt= -0.3750  0.1250  0.1250 (reduced coord)
  -0.18228
 kpt#   4, nband=  1, wtk=  0.03125, kpt= -0.1250  0.1250  0.1250 (reduced coord)
  -0.45135
 kpt#   5, nband=  1, wtk=  0.06250, kpt=  0.1250  0.3750  0.1250 (reduced coord)
  -0.22531
 kpt#   6, nband=  1, wtk=  0.06250, kpt=  0.3750  0.3750  0.1250 (reduced coord)
   0.04341
 kpt#   7, nband=  1, wtk=  0.06250, kpt= -0.3750  0.3750  0.1250 (reduced coord)
   0.04033
 kpt#   8, nband=  1, wtk=  0.06250, kpt= -0.1250  0.3750  0.1250 (reduced coord)
  -0.22602
 kpt#   9, nband=  1, wtk=  0.06250, kpt=  0.1250 -0.3750  0.1250 (reduced coord)
  -0.22634
 kpt#  10, nband=  1, wtk=  0.06250, kpt=  0.3750 -0.3750  0.1250 (reduced coord)
   0.04071
 kpt#  11, nband=  1, wtk=  0.06250, kpt= -0.3750 -0.3750  0.1250 (reduced coord)
   0.04210
 kpt#  12, nband=  1, wtk=  0.06250, kpt= -0.1250 -0.3750  0.1250 (reduced coord)
  -0.22606
 kpt#  13, nband=  1, wtk=  0.06250, kpt=  0.1250 -0.1250  0.1250 (reduced coord)
  -0.45138
 kpt#  14, nband=  1, wtk=  0.06250, kpt=  0.3750 -0.1250  0.1250 (reduced coord)
  -0.18174
 kpt#  15, nband=  1, wtk=  0.03125, kpt=  0.1250  0.3750  0.3750 (reduced coord)
  -0.01111
 kpt#  16, nband=  1, wtk=  0.03125, kpt=  0.3750  0.3750  0.3750 (reduced coord)
   0.25548
 kpt#  17, nband=  1, wtk=  0.03125, kpt= -0.3750  0.3750  0.3750 (reduced coord)
   0.25050
 kpt#  18, nband=  1, wtk=  0.03125, kpt= -0.1250  0.3750  0.3750 (reduced coord)
  -0.01222
 kpt#  19, nband=  1, wtk=  0.06250, kpt=  0.1250 -0.3750  0.3750 (reduced coord)
  -0.01336
 kpt#  20, nband=  1, wtk=  0.06250, kpt=  0.3750 -0.3750  0.3750 (reduced coord)
   0.25139
 Total charge density [el/Bohr^3]
,     Maximum=    2.8299E-01  at reduced coord.    0.3333    0.1667    0.1667
,Next maximum=    2.8109E-01  at reduced coord.    0.0833    0.0833    0.0833
,     Minimum=    1.9280E-02  at reduced coord.    0.6667    0.6667    0.6667
,Next minimum=    1.9370E-02  at reduced coord.    0.7500    0.6667    0.5833
,  Integrated=    2.0000E+00

--------------------------------------------------------------------------------
 Components of total free energy (in Hartree) :

    Kinetic energy  =  1.37936506021169E+00
    Hartree energy  =  1.00797496550993E-01
    XC energy       = -7.90537907720659E-01
    Ewald energy    = -1.01761108241217E+00
    PspCore energy  =  6.22030071830427E-03
    Loc. psp. energy= -7.38004083422298E-01
    NL   psp  energy=  0.00000000000000E+00
    >>>>>>>>> Etotal= -1.05977021607414E+00

 Other information on the energy :
    Total energy(eV)= -2.88378141529886E+01 ; Band energy (Ha)=  -1.9046354046E-01
--------------------------------------------------------------------------------

 Cartesian components of stress tensor (hartree/bohr^3)
  sigma(1 1)= -5.08448860E-03  sigma(3 2)= -2.25902263E-05
  sigma(2 2)= -5.81709652E-03  sigma(3 1)=  1.35225428E-05
  sigma(3 3)= -5.81709652E-03  sigma(2 1)=  1.35225428E-05

-Cartesian components of stress tensor (GPa)         [Pressure=  1.6396E+02 GPa]
- sigma(1 1)= -1.49590794E+02  sigma(3 2)= -6.64627292E-01
- sigma(2 2)= -1.71144859E+02  sigma(3 1)=  3.97846878E-01
- sigma(3 3)= -1.71144859E+02  sigma(2 1)=  3.97846878E-01


--------------------------------------------------------------------------------
 STRING METHOD - CELL #    4/   6
--------------------------------------------------------------------------------

 Real(R)+Recip(G) space primitive vectors, cartesian coordinates (Bohr,Bohr^-1):
 R(1)=  3.0000000  0.0000000  0.0000000  G(1)=  0.3333333  0.0000000  0.0000000
 R(2)=  0.0000000  3.0000000  0.0000000  G(2)=  0.0000000  0.3333333  0.0000000
 R(3)=  0.0000000  0.0000000  3.0000000  G(3)=  0.0000000  0.0000000  0.3333333
 Unit cell volume ucvol=  2.7000000E+01 bohr^3
 Angles (23,13,12)=  9.00000000E+01  9.00000000E+01  9.00000000E+01 degrees

 getcut: wavevector=  0.0000  0.0000  0.0000  ngfft=  12  12  12
         ecut(hartree)=     15.000   => boxcut(ratio)=   2.29429

 getcut : COMMENT -
  Note that boxcut > 2.2 ; recall that boxcut=Gcut(box)/Gcut(sphere) = 2
  is sufficient for exact treatment of convolution.
  Such a large boxcut is a waste : you could raise ecut
  e.g. ecut=   19.739209 Hartrees makes boxcut=2

--------------------------------------------------------------------------------

P newkpt: treating      1 bands with npw=      78 for ikpt=   1 by node    0
P newkpt: treating      1 bands with npw=      73 for ikpt=   2 by node    0
P newkpt: treating      1 bands with npw=      73 for ikpt=   3 by node    0
P newkpt: treating      1 bands with npw=      78 for ikpt=   4 by node    0
P newkpt: treating      1 bands with npw=      73 for ikpt=   5 by node    0
P newkpt: treating      1 bands with npw=      76 for ikpt=   6 by node    0
P newkpt: treating      1 bands with npw=      76 for ikpt=   7 by node    0
P newkpt: treating      1 bands with npw=      73 for ikpt=   8 by node    0
P newkpt: treating      1 bands with npw=      73 for ikpt=   9 by node    0
P newkpt: treating      1 bands with npw=      76 for ikpt=  10 by node    0
P newkpt: treating      1 bands with npw=      76 for ikpt=  11 by node    0
P newkpt: treating      1 bands with npw=      73 for ikpt=  12 by node    0
P newkpt: treating      1 bands with npw=      78 for ikpt=  13 by node    0
P newkpt: treating      1 bands with npw=      73 for ikpt=  14 by node    0
P newkpt: treating      1 bands with npw=      76 for ikpt=  15 by node    0
P newkpt: treating      1 bands with npw=      72 for ikpt=  16 by node    0
P newkpt: treating      1 bands with npw=      72 for ikpt=  17 by node    0
P newkpt: treating      1 bands with npw=      76 for ikpt=  18 by node    0
P newkpt: treating      1 bands with npw=      76 for ikpt=  19 by node    0
P newkpt: treating      1 bands with npw=      72 for ikpt=  20 by node    0

_setup2: Arith. and geom. avg. npw (full set) are      74.625      74.598

================================================================================

     iter   Etot(hartree)      deltaE(h)  residm     vres2    diffor    maxfor
 ETOT  1  -1.0588281865646    -1.059E+00 1.768E-06 1.255E+00 1.123E-04 1.123E-04
 ETOT  2  -1.0597665404056    -9.384E-04 9.735E-10 9.833E-03 3.663E-05 1.490E-04
 ETOT  3  -1.0597702018054    -3.661E-06 1.108E-08 5.455E-05 3.732E-05 1.116E-04
 ETOT  4  -1.0597702160621    -1.426E-08 1.264E-10 4.336E-08 2.773E-06 1.144E-04
 ETOT  5  -1.0597702160740    -1.187E-11 6.364E-14 1.561E-11 6.781E-07 1.151E-04
 ETOT  6  -1.0597702160740    -5.107E-15 4.049E-17 1.265E-14 1.598E-08 1.151E-04

 At SCF step    6, forces are converged : 
  for the second time, max diff in force=  1.598E-08 < toldff=  2.000E-06

 Cartesian components of stress tensor (hartree/bohr^3)
  sigma(1 1)= -5.08448859E-03  sigma(3 2)= -2.25902257E-05
  sigma(2 2)= -5.81709652E-03  sigma(3 1)= -1.35225437E-05
  sigma(3 3)= -5.81709652E-03  sigma(2 1)= -1.35225437E-05

================================================================================

 ----iterations are completed or convergence reached----

 Mean square residual over all n,k,spin=   1.1571E-17; max=  4.0489E-17
   0.1250  0.1250  0.1250    1  2.91785E-18 kpt; spin; max resid(k); each band:
  2.92E-18
   0.3750  0.1250  0.1250    1  1.17457E-17 kpt; spin; max resid(k); each band:
  1.17E-17
  -0.3750  0.1250  0.1250    1  1.37982E-17 kpt; spin; max resid(k); each band:
  1.38E-17
  -0.1250  0.1250  0.1250    1  4.26048E-18 kpt; spin; max resid(k); each band:
  4.26E-18
   0.1250  0.3750  0.1250    1  3.43319E-18 kpt; spin; max resid(k); each band:
  3.43E-18
   0.3750  0.3750  0.1250    1  2.42684E-17 kpt; spin; max resid(k); each band:
  2.43E-17
  -0.3750  0.3750  0.1250    1  3.08245E-17 kpt; spin; max resid(k); each band:
  3.08E-17
  -0.1250  0.3750  0.1250    1  3.33122E-18 kpt; spin; max resid(k); each band:
  3.33E-18
   0.1250 -0.3750  0.1250    1  4.57974E-18 kpt; spin; max resid(k); each band:
  4.58E-18
   0.3750 -0.3750  0.1250    1  4.04889E-17 kpt; spin; max resid(k); each band:
  4.05E-17
  -0.3750 -0.3750  0.1250    1  2.62522E-17 kpt; spin; max resid(k); each band:
  2.63E-17
  -0.1250 -0.3750  0.1250    1  3.67472E-18 kpt; spin; max resid(k); each band:
  3.67E-18
   0.1250 -0.1250  0.1250    1  4.88511E-18 kpt; spin; max resid(k); each band:
  4.89E-18
   0.3750 -0.1250  0.1250    1  1.20523E-17 kpt; spin; max resid(k); each band:
  1.21E-17
   0.1250  0.3750  0.3750    1  3.70246E-18 kpt; spin; max resid(k); each band:
  3.70E-18
   0.3750  0.3750  0.3750    1  3.76745E-18 kpt; spin; max resid(k); each band:
  3.77E-18
  -0.3750  0.3750  0.3750    1  2.32404E-17 kpt; spin; max resid(k); each band:
  2.32E-17
  -0.1250  0.3750  0.3750    1  8.99286E-18 kpt; spin; max resid(k); each band:
  8.99E-18
   0.1250 -0.3750  0.3750    1  2.51467E-18 kpt; spin; max resid(k); each band:
  2.51E-18
[...]
P newkpt: treating      1 bands with npw=      76 for ikpt=  10 by node    0
P newkpt: treating      1 bands with npw=      76 for ikpt=  11 by node    0
P newkpt: treating      1 bands with npw=      73 for ikpt=  12 by node    0
P newkpt: treating      1 bands with npw=      78 for ikpt=  13 by node    0
P newkpt: treating      1 bands with npw=      73 for ikpt=  14 by node    0
P newkpt: treating      1 bands with npw=      76 for ikpt=  15 by node    0
P newkpt: treating      1 bands with npw=      72 for ikpt=  16 by node    0
P newkpt: treating      1 bands with npw=      72 for ikpt=  17 by node    0
P newkpt: treating      1 bands with npw=      76 for ikpt=  18 by node    0
P newkpt: treating      1 bands with npw=      76 for ikpt=  19 by node    0
P newkpt: treating      1 bands with npw=      72 for ikpt=  20 by node    0

_setup2: Arith. and geom. avg. npw (full set) are      74.625      74.598

================================================================================

     iter   Etot(hartree)      deltaE(h)  residm     vres2    diffor    maxfor
 ETOT  1  -1.0544046227262    -1.054E+00 9.939E-07 2.558E+00 2.507E-02 2.507E-02
 ETOT  2  -1.0567635059835    -2.359E-03 1.017E-09 1.079E-02 3.537E-03 2.861E-02
 ETOT  3  -1.0567659660485    -2.460E-06 1.251E-08 1.890E-04 1.403E-05 2.860E-02
 ETOT  4  -1.0567660227071    -5.666E-08 2.203E-10 3.686E-08 2.234E-05 2.862E-02
 ETOT  5  -1.0567660227159    -8.814E-12 2.672E-14 1.183E-11 7.062E-07 2.862E-02
 ETOT  6  -1.0567660227159     4.441E-16 2.236E-17 1.250E-14 1.184E-08 2.862E-02

 At SCF step    6, forces are converged : 
  for the second time, max diff in force=  1.184E-08 < toldff=  2.000E-06

 Cartesian components of stress tensor (hartree/bohr^3)
  sigma(1 1)= -7.66540979E-03  sigma(3 2)= -5.20272582E-04
  sigma(2 2)= -6.03158278E-03  sigma(3 1)=  9.45859251E-04
  sigma(3 3)= -6.03158278E-03  sigma(2 1)=  9.45859251E-04

================================================================================

 ----iterations are completed or convergence reached----

 Mean square residual over all n,k,spin=   7.2376E-18; max=  2.2357E-17
   0.1250  0.1250  0.1250    1  4.78358E-18 kpt; spin; max resid(k); each band:
  4.78E-18
   0.3750  0.1250  0.1250    1  8.94724E-18 kpt; spin; max resid(k); each band:
  8.95E-18
  -0.3750  0.1250  0.1250    1  1.24681E-17 kpt; spin; max resid(k); each band:
  1.25E-17
  -0.1250  0.1250  0.1250    1  5.60186E-18 kpt; spin; max resid(k); each band:
  5.60E-18
   0.1250  0.3750  0.1250    1  2.22942E-18 kpt; spin; max resid(k); each band:
  2.23E-18
   0.3750  0.3750  0.1250    1  1.05536E-17 kpt; spin; max resid(k); each band:
  1.06E-17
  -0.3750  0.3750  0.1250    1  2.14366E-18 kpt; spin; max resid(k); each band:
  2.14E-18
  -0.1250  0.3750  0.1250    1  4.53059E-18 kpt; spin; max resid(k); each band:
  4.53E-18
   0.1250 -0.3750  0.1250    1  6.46033E-18 kpt; spin; max resid(k); each band:
  6.46E-18
   0.3750 -0.3750  0.1250    1  2.23572E-17 kpt; spin; max resid(k); each band:
  2.24E-17
  -0.3750 -0.3750  0.1250    1  1.11443E-17 kpt; spin; max resid(k); each band:
  1.11E-17
  -0.1250 -0.3750  0.1250    1  3.08113E-18 kpt; spin; max resid(k); each band:
  3.08E-18
   0.1250 -0.1250  0.1250    1  4.78645E-18 kpt; spin; max resid(k); each band:
  4.79E-18
   0.3750 -0.1250  0.1250    1  1.03612E-17 kpt; spin; max resid(k); each band:
  1.04E-17
   0.1250  0.3750  0.3750    1  1.94973E-18 kpt; spin; max resid(k); each band:
  1.95E-18
   0.3750  0.3750  0.3750    1  2.07056E-18 kpt; spin; max resid(k); each band:
  2.07E-18
  -0.3750  0.3750  0.3750    1  1.20779E-17 kpt; spin; max resid(k); each band:
  1.21E-17
  -0.1250  0.3750  0.3750    1  1.69390E-18 kpt; spin; max resid(k); each band:
  1.69E-18
   0.1250 -0.3750  0.3750    1  1.21139E-18 kpt; spin; max resid(k); each band:
  1.21E-18
   0.3750 -0.3750  0.3750    1  1.63008E-17 kpt; spin; max resid(k); each band:
  1.63E-17
 reduced coordinates (array xred) for    2 atoms
       0.000000000000      0.048410268540      0.048410268540
       0.668966137751      0.207226731460      0.207226731460
 rms dE/dt=  1.1078E-01; max dE/dt=  1.4858E-01; dE/dt below (all hartree)
    1      -0.148583157990      0.085854335606      0.085854335606
    2       0.148583158021     -0.085854335590     -0.085854335590

 cartesian coordinates (angstrom) at end:
    1      0.00000000000000     0.07685283231872     0.07685283231872
    2      1.06200490024942     0.32897898989825     0.32897898989825

 cartesian forces (hartree/bohr) at end:
    1      0.04952771933511    -0.02861811186588    -0.02861811186588
    2     -0.04952771933511     0.02861811186588     0.02861811186588
 frms,max,avg= 2.8618112E-02 2.8618112E-02  -5.267E-12 -2.665E-12 -2.665E-12 h/b

 cartesian forces (eV/Angstrom) at end:
    1      2.54681751341660    -1.47160235680940    -1.47160235680940
    2     -2.54681751341660     1.47160235680940     1.47160235680940
 frms,max,avg= 1.4716024E+00 1.4716024E+00  -2.708E-10 -1.370E-10 -1.370E-10 e/A
 length scales=  3.000000000000  3.000000000000  3.000000000000 bohr
              =  1.587531625770  1.587531625770  1.587531625770 angstroms
 Fermi (or HOMO) energy (hartree) =   0.22082   Average Vxc (hartree)=  -0.44503
 Eigenvalues (hartree) for nkpt=  20  k points:
 kpt#   1, nband=  1, wtk=  0.03125, kpt=  0.1250  0.1250  0.1250 (reduced coord)
  -0.45826
 kpt#   2, nband=  1, wtk=  0.03125, kpt=  0.3750  0.1250  0.1250 (reduced coord)
  -0.20805
 kpt#   3, nband=  1, wtk=  0.03125, kpt= -0.3750  0.1250  0.1250 (reduced coord)
  -0.20499
 kpt#   4, nband=  1, wtk=  0.03125, kpt= -0.1250  0.1250  0.1250 (reduced coord)
  -0.45741
 kpt#   5, nband=  1, wtk=  0.06250, kpt=  0.1250  0.3750  0.1250 (reduced coord)
  -0.23331
 kpt#   6, nband=  1, wtk=  0.06250, kpt=  0.3750  0.3750  0.1250 (reduced coord)
   0.00826
 kpt#   7, nband=  1, wtk=  0.06250, kpt= -0.3750  0.3750  0.1250 (reduced coord)
   0.01478
 kpt#   8, nband=  1, wtk=  0.06250, kpt= -0.1250  0.3750  0.1250 (reduced coord)
  -0.23153
 kpt#   9, nband=  1, wtk=  0.06250, kpt=  0.1250 -0.3750  0.1250 (reduced coord)
  -0.23290
 kpt#  10, nband=  1, wtk=  0.06250, kpt=  0.3750 -0.3750  0.1250 (reduced coord)
   0.01214
 kpt#  11, nband=  1, wtk=  0.06250, kpt= -0.3750 -0.3750  0.1250 (reduced coord)
   0.00916
 kpt#  12, nband=  1, wtk=  0.06250, kpt= -0.1250 -0.3750  0.1250 (reduced coord)
  -0.23360
 kpt#  13, nband=  1, wtk=  0.06250, kpt=  0.1250 -0.1250  0.1250 (reduced coord)
  -0.45814
 kpt#  14, nband=  1, wtk=  0.06250, kpt=  0.3750 -0.1250  0.1250 (reduced coord)
  -0.20683
 kpt#  15, nband=  1, wtk=  0.03125, kpt=  0.1250  0.3750  0.3750 (reduced coord)
  -0.01995
 kpt#  16, nband=  1, wtk=  0.03125, kpt=  0.3750  0.3750  0.3750 (reduced coord)
   0.21095
 kpt#  17, nband=  1, wtk=  0.03125, kpt= -0.3750  0.3750  0.3750 (reduced coord)
   0.22082
 kpt#  18, nband=  1, wtk=  0.03125, kpt= -0.1250  0.3750  0.3750 (reduced coord)
  -0.01716
 kpt#  19, nband=  1, wtk=  0.06250, kpt=  0.1250 -0.3750  0.3750 (reduced coord)
  -0.02115
 kpt#  20, nband=  1, wtk=  0.06250, kpt=  0.3750 -0.3750  0.3750 (reduced coord)
   0.21331
 Total charge density [el/Bohr^3]
,     Maximum=    3.7937E-01  at reduced coord.    0.8333    0.1667    0.1667
,Next maximum=    3.7432E-01  at reduced coord.    0.8333    0.0833    0.0833
,     Minimum=    1.5978E-02  at reduced coord.    0.3333    0.6667    0.5833
,Next minimum=    1.5978E-02  at reduced coord.    0.3333    0.5833    0.6667
,  Integrated=    2.0000E+00

--------------------------------------------------------------------------------
 Components of total free energy (in Hartree) :

    Kinetic energy  =  1.46561504728584E+00
    Hartree energy  =  1.31735985588173E-01
    XC energy       = -8.09559461137563E-01
    Ewald energy    = -9.51896017113340E-01
    PspCore energy  =  6.22030071830427E-03
    Loc. psp. energy= -8.98881878057319E-01
    NL   psp  energy=  0.00000000000000E+00
    >>>>>>>>> Etotal= -1.05676602271590E+00

 Other information on the energy :
    Total energy(eV)= -2.87560658943280E+01 ; Band energy (Ha)=  -2.2835605059E-01
--------------------------------------------------------------------------------

 Cartesian components of stress tensor (hartree/bohr^3)
  sigma(1 1)= -7.66540979E-03  sigma(3 2)= -5.20272582E-04
  sigma(2 2)= -6.03158278E-03  sigma(3 1)=  9.45859251E-04
  sigma(3 3)= -6.03158278E-03  sigma(2 1)=  9.45859251E-04

-Cartesian components of stress tensor (GPa)         [Pressure=  1.9348E+02 GPa]
- sigma(1 1)= -2.25524104E+02  sigma(3 2)= -1.53069452E+01
- sigma(2 2)= -1.77455262E+02  sigma(3 1)=  2.78281353E+01
- sigma(3 3)= -1.77455262E+02  sigma(2 1)=  2.78281353E+01

== END DATASET(S) ==============================================================
================================================================================
  
 -outvars: echo values of variables after computation  --------
            acell      3.0000000000E+00  3.0000000000E+00  3.0000000000E+00 Bohr
              amu      1.00794000E+00  1.00794000E+00
      chksymbreak           0
         dynimage        0    1    1    1    1    0
             ecut      1.50000000E+01 Hartree
           ecutsm      5.00000000E-01 Hartree
      etotal_2img     -1.0567659711E+00
      etotal_3img     -1.0597517653E+00
      etotal_4img     -1.0597517641E+00
      etotal_5img     -1.0567660227E+00
       fcart_2img     -4.9528138987E-02 -2.8618300005E-02 -2.8618300005E-02
                       4.9528138987E-02  2.8618300005E-02  2.8618300005E-02
       fcart_3img      5.1554720789E-03  2.0232363162E-04  2.0232363162E-04
                      -5.1554720789E-03 -2.0232363162E-04 -2.0232363162E-04
       fcart_4img     -5.1554491126E-03  2.0230978023E-04  2.0230978023E-04
                       5.1554491126E-03 -2.0230978023E-04 -2.0230978023E-04
       fcart_5img      4.9527719335E-02 -2.8618111866E-02 -2.8618111866E-02
                      -4.9527719335E-02  2.8618111866E-02  2.8618111866E-02
-          fftalg         112
     fxcartfactor      1.00000000E+01
          iatfixx        1    2
           imgmov           2
           iprcch           1
         istatimg           0
              kpt      1.25000000E-01  1.25000000E-01  1.25000000E-01
                       3.75000000E-01  1.25000000E-01  1.25000000E-01
                      -3.75000000E-01  1.25000000E-01  1.25000000E-01
                      -1.25000000E-01  1.25000000E-01  1.25000000E-01
                       1.25000000E-01  3.75000000E-01  1.25000000E-01
                       3.75000000E-01  3.75000000E-01  1.25000000E-01
                      -3.75000000E-01  3.75000000E-01  1.25000000E-01
                      -1.25000000E-01  3.75000000E-01  1.25000000E-01
                       1.25000000E-01 -3.75000000E-01  1.25000000E-01
                       3.75000000E-01 -3.75000000E-01  1.25000000E-01
                      -3.75000000E-01 -3.75000000E-01  1.25000000E-01
                      -1.25000000E-01 -3.75000000E-01  1.25000000E-01
                       1.25000000E-01 -1.25000000E-01  1.25000000E-01
                       3.75000000E-01 -1.25000000E-01  1.25000000E-01
                       1.25000000E-01  3.75000000E-01  3.75000000E-01
                       3.75000000E-01  3.75000000E-01  3.75000000E-01
                      -3.75000000E-01  3.75000000E-01  3.75000000E-01
                      -1.25000000E-01  3.75000000E-01  3.75000000E-01
                       1.25000000E-01 -3.75000000E-01  3.75000000E-01
                       3.75000000E-01 -3.75000000E-01  3.75000000E-01
         kptrlatt        4    0    0      0    4    0      0    0    4
          kptrlen      1.20000000E+01
P           mkmem          20
          natfixx           2
            natom           2
            nband           1
        ndynimage           4
            ngfft          12      12      12
           nimage           6
             nkpt          20
            nstep          20
             nsym           2
        ntimimage          15
           ntypat           2
        optforces           1
           prtden           0
           prteig           0
            prtwf           0
           shiftk      5.00000000E-01  5.00000000E-01  5.00000000E-01
          spgroup           8
      strten_2img     -7.6654256468E-03 -6.0315839706E-03 -6.0315839706E-03
                      -5.2027510534E-04 -9.4586527562E-04 -9.4586527562E-04
      strten_3img     -5.0309963670E-03 -5.8193871259E-03 -5.8193871259E-03
                      -1.8623297087E-05  2.0284777260E-05  2.0284777260E-05
      strten_4img     -5.0309979532E-03 -5.8193870700E-03 -5.8193870700E-03
                      -1.8623442400E-05 -2.0284486073E-05 -2.0284486073E-05
      strten_5img     -7.6654097857E-03 -6.0315827811E-03 -6.0315827811E-03
                      -5.2027258176E-04  9.4585925139E-04  9.4585925139E-04
           symrel      1  0  0   0  1  0   0  0  1       1  0  0   0  0  1   0  1  0
           toldff      2.00000000E-06
           tolimg      1.00000000E-05 Hartree
            typat      1  2
              wtk        0.03125    0.03125    0.03125    0.03125    0.06250    0.06250
                         0.06250    0.06250    0.06250    0.06250    0.06250    0.06250
                         0.06250    0.06250    0.03125    0.03125    0.03125    0.03125
                         0.06250    0.06250
           xangst      0.0000000000E+00  0.0000000000E+00  0.0000000000E+00
                       4.0583182222E-01  4.0583182222E-01  4.0583182222E-01
      xangst_2img      0.0000000000E+00  7.6852999656E-02  7.6852999656E-02
                       5.2552656107E-01  3.2897882256E-01  3.2897882256E-01
      xangst_3img      0.0000000000E+00  9.7615752532E-02  9.7615752532E-02
                       7.0038345793E-01  3.0821606968E-01  3.0821606968E-01
      xangst_4img      0.0000000000E+00  9.7615879487E-02  9.7615879487E-02
                       8.8714802817E-01  3.0821594273E-01  3.0821594273E-01
      xangst_5img      0.0000000000E+00  7.6852832319E-02  7.6852832319E-02
                       1.0620049002E+00  3.2897898990E-01  3.2897898990E-01
      xangst_6img      0.0000000000E+00  0.0000000000E+00  0.0000000000E+00
                       1.1816998036E+00  4.0583182222E-01  4.0583182222E-01
            xcart      0.0000000000E+00  0.0000000000E+00  0.0000000000E+00
                       7.6691100000E-01  7.6691100000E-01  7.6691100000E-01
       xcart_2img      0.0000000000E+00  1.4523112184E-01  1.4523112184E-01
                       9.9310127597E-01  6.2167987816E-01  6.2167987816E-01
       xcart_3img      0.0000000000E+00  1.8446703854E-01  1.8446703854E-01
                       1.3235329235E+00  5.8244396146E-01  5.8244396146E-01
       xcart_4img      0.0000000000E+00  1.8446727845E-01  1.8446727845E-01
                       1.6764668126E+00  5.8244372155E-01  5.8244372155E-01
       xcart_5img      0.0000000000E+00  1.4523080562E-01  1.4523080562E-01
                       2.0068984133E+00  6.2168019438E-01  6.2168019438E-01
       xcart_6img      0.0000000000E+00  0.0000000000E+00  0.0000000000E+00
                       2.2330890000E+00  7.6691100000E-01  7.6691100000E-01
             xred      0.0000000000E+00  0.0000000000E+00  0.0000000000E+00
                       2.5563700000E-01  2.5563700000E-01  2.5563700000E-01
        xred_2img      0.0000000000E+00  4.8410373947E-02  4.8410373947E-02
                       3.3103375866E-01  2.0722662605E-01  2.0722662605E-01
        xred_3img      0.0000000000E+00  6.1489012847E-02  6.1489012847E-02
                       4.4117764117E-01  1.9414798715E-01  1.9414798715E-01
        xred_4img      0.0000000000E+00  6.1489092817E-02  6.1489092817E-02
                       5.5882227085E-01  1.9414790718E-01  1.9414790718E-01
        xred_5img      0.0000000000E+00  4.8410268540E-02  4.8410268540E-02
                       6.6896613775E-01  2.0722673146E-01  2.0722673146E-01
        xred_6img      0.0000000000E+00  0.0000000000E+00  0.0000000000E+00
                       7.4436300000E-01  2.5563700000E-01  2.5563700000E-01
            znucl        1.00000    1.00000

================================================================================


- Timing analysis has been suppressed with timopt=0



================================================================================

 Suggested references for the acknowledgment of ABINIT usage.

 The users of ABINIT have little formal obligations with respect to the ABINIT group
 (those specified in the GNU General Public License, http://www.gnu.org/copyleft/gpl.txt).
 However, it is common practice in the scientific literature,
 to acknowledge the efforts of people that have made the research possible.
 In this spirit, please find below suggested citations of work written by ABINIT developers,
 corresponding to implementations inside of ABINIT that you have used in the present run.
 Note also that it will be of great value to readers of publications presenting these results,
 to read papers enabling them to understand the theoretical formalism and details
 of the ABINIT implementation.
 For information on why they are suggested, see also http://www.abinit.org/about/?text=acknowledgments.

 [1] ABINIT : First-principles approach of materials and nanosystem properties.
 X. Gonze, B. Amadon, P.-M. Anglade, J.-M. Beuken, F. Bottin, P. Boulanger, F. Bruneval,
 D. Caliste, R. Caracas, M. Cote, T. Deutsch, L. Genovese, Ph. Ghosez, M. Giantomassi
 S. Goedecker, D.R. Hamann, P. Hermet, F. Jollet, G. Jomard, S. Leroux, M. Mancini, S. Mazevet,
 M.J.T. Oliveira, G. Onida, Y. Pouillon, T. Rangel, G.-M. Rignanese, D. Sangalli, R. Shaltaf,
 M. Torrent, M.J. Verstraete, G. Zerah, J.W. Zwanziger
 Computer Phys. Comm. 180, 2582-2615 (2009).
 Comment : the third generic paper describing the ABINIT project.
 Note that a version of this paper, that is not formatted for Computer Phys. Comm. 
 is available at http://www.abinit.org/about/ABINIT_CPC_v10.pdf .
 The licence allows the authors to put it on the Web.

 [2] A brief introduction to the ABINIT software package.
 X. Gonze, G.-M. Rignanese, M. Verstraete, J.-M. Beuken, Y. Pouillon, R. Caracas, F. Jollet,
 M. Torrent, G. Zerah, M. Mikami, Ph. Ghosez, M. Veithen, J.-Y. Raty, V. Olevano, F. Bruneval,
 L. Reining, R. Godby, G. Onida, D.R. Hamann, and D.C. Allan.
 Z. Kristallogr. 220, 558-562 (2005).
 Comment : the second generic paper describing the ABINIT project. Note that this paper
 should be cited especially if you are using the GW part of ABINIT, as several authors
 of this part are not in the list of authors of the first or third paper.
 The .pdf of the latter paper is available at http://www.abinit.org/about/zfk_0505-06_558-562.pdf.
 Note that it should not redistributed (Copyright by Oldenburg Wissenshaftverlag,
 the licence allows the authors to put it on the Web).


 And optionally :

 [3] First-principles computation of material properties : the ABINIT software project. 
 X. Gonze, J.-M. Beuken, R. Caracas, F. Detraux, M. Fuchs, G.-M. Rignanese, L. Sindic,
 M. Verstraete, G. Zerah, F. Jollet, M. Torrent, A. Roy, M. Mikami, Ph. Ghosez, J.-Y. Raty, D.C. Allan.
 Computational Materials Science 25, 478-492 (2002). http://dx.doi.org/10.1016/S0927-0256(02)00325-7
 Comment : the original paper describing the ABINIT project.

 [4] Fast radix 2, 3, 4 and 5 kernels for Fast Fourier Transformations
 on computers with overlapping multiply-add instructions.
 S. Goedecker, SIAM J. on Scientific Computing 18, 1605 (1997).
-
- Proc.   0 individual time (sec): cpu=          3.3  wall=          4.1

================================================================================

 Calculation completed.
.Delivered   65 WARNINGs and 132 COMMENTs to log file.
+Overall time at end (sec) : cpu=          3.3  wall=          4.1
