
.Version 7.9.3 of ABINIT 
.(MPI version, prepared for a x86_64_linux_gnu4.7 computer) 

.Copyright (C) 1998-2014 ABINIT group . 
 ABINIT comes with ABSOLUTELY NO WARRANTY.
 It is free software, and you are welcome to redistribute it
 under certain conditions (GNU General Public License,
 see ~abinit/COPYING or http://www.gnu.org/copyleft/gpl.txt).

 ABINIT is a project of the Universite Catholique de Louvain,
 Corning Inc. and other collaborators, see ~abinit/doc/developers/contributors.txt .
 Please read ~abinit/doc/users/acknowledgments.html for suggested
 acknowledgments of the ABINIT effort.
 For more information, see http://www.abinit.org .

.Starting date : Sat 30 Aug 2014.
- ( at 22h38 )
  
- input  file    -> t78.in
- output file    -> t78.out
- root for input  files -> t78i
- root for output files -> t78o


 DATASET    1 : space group R-3 (#148); Bravais hR (rhombohedral)
================================================================================
 Values of the parameters that define the memory need for DATASET  1.
   intxc =         0  ionmov =         0    iscf =        14 xclevel =         1
  lmnmax =         2   lnmax =         2   mband =        32  mffmem =         1
P  mgfft =        16   mkmem =         6 mpssoang=         3     mpw =       244
  mqgrid =      3001   natom =        10    nfft =      4096    nkpt =         6
  nloalg =         4  nspden =         1 nspinor =         1  nsppol =         1
    nsym =         6  n1xccc =      2501  ntypat =         3  occopt =         1
================================================================================
P This job should need less than                       2.945 Mbytes of memory.
  Rough estimation (10% accuracy) of disk space for files :
_ WF disk file :      0.717 Mbytes ; DEN or POT disk file :      0.033 Mbytes.
================================================================================


 DATASET    2 : space group R-3 c (#167); Bravais hR (rhombohedral)
================================================================================
 Values of the parameters that define the memory need for DATASET  2.
   intxc =         0  ionmov =         0    iscf =        14 xclevel =         1
  lmnmax =         2   lnmax =         2   mband =        32  mffmem =         1
P  mgfft =        16   mkmem =         5 mpssoang=         3     mpw =       244
  mqgrid =      3001   natom =        10    nfft =      4096    nkpt =         5
  nloalg =         4  nspden =         1 nspinor =         1  nsppol =         1
    nsym =        12  n1xccc =      2501  ntypat =         3  occopt =         1
================================================================================
P This job should need less than                       2.813 Mbytes of memory.
  Rough estimation (10% accuracy) of disk space for files :
_ WF disk file :      0.598 Mbytes ; DEN or POT disk file :      0.033 Mbytes.
================================================================================


 DATASET    3 : space group R-3 c (#167); Bravais hR (rhombohedral)
================================================================================
 Values of the parameters that define the memory need for DATASET  3.
   intxc =         0  ionmov =         0    iscf =        14 xclevel =         1
  lmnmax =         2   lnmax =         2   mband =        32  mffmem =         1
P  mgfft =        16   mkmem =         5 mpssoang=         3     mpw =       244
  mqgrid =      3001   natom =        10    nfft =      4096    nkpt =         5
  nloalg =         4  nspden =         1 nspinor =         1  nsppol =         1
    nsym =        12  n1xccc =      2501  ntypat =         3  occopt =         1
================================================================================
P This job should need less than                       2.813 Mbytes of memory.
  Rough estimation (10% accuracy) of disk space for files :
_ WF disk file :      0.598 Mbytes ; DEN or POT disk file :      0.033 Mbytes.
================================================================================

--------------------------------------------------------------------------------
------------- Echo of variables that govern the present computation ------------
--------------------------------------------------------------------------------
-
- outvars: echo of selected default values                                      
-   accesswff0 =  0 , fftalg0 =112 , wfoptalg0 =  0
-
- outvars: echo of global parameters not present in the input file              
-  max_nthreads =    0
-
 -outvars: echo values of preprocessed input variables --------
            acell      1.2000000000E+01  1.2000000000E+01  1.2000000000E+01 Bohr
              amu      5.58470000E+01  1.20110000E+01  1.59994000E+01
             ecut      2.00000000E+00 Hartree
-          fftalg         112
             iscf          14
           jdtset        1    2    3
              kpt1     0.00000000E+00  0.00000000E+00 -2.50000000E-01
                       0.00000000E+00  2.50000000E-01  5.00000000E-01
                       0.00000000E+00  5.00000000E-01 -2.50000000E-01
                       2.50000000E-01  2.50000000E-01 -2.50000000E-01
                       2.50000000E-01  2.50000000E-01  2.50000000E-01
                       2.50000000E-01  5.00000000E-01  5.00000000E-01
              kpt2     0.00000000E+00  0.00000000E+00 -2.50000000E-01
                       0.00000000E+00  2.50000000E-01  5.00000000E-01
                       2.50000000E-01  2.50000000E-01 -2.50000000E-01
                       2.50000000E-01  2.50000000E-01  2.50000000E-01
                       2.50000000E-01  5.00000000E-01  5.00000000E-01
              kpt3     0.00000000E+00  0.00000000E+00 -2.50000000E-01
                       0.00000000E+00  2.50000000E-01  5.00000000E-01
                       2.50000000E-01  2.50000000E-01 -2.50000000E-01
                       2.50000000E-01  2.50000000E-01  2.50000000E-01
                       2.50000000E-01  5.00000000E-01  5.00000000E-01
         kptrlatt       -2    2    2      2   -2    2      2    2   -2
          kptrlen      4.15692194E+01
P           mkmem1          6
P           mkmem2          5
P           mkmem3          5
            natom          10
            nband1         32
            nband2         32
            nband3         32
           ndtset           3
            ngfft          16      16      16
             nkpt1          6
             nkpt2          5
             nkpt3          5
            nline           1
            nstep           2
             nsym1          6
             nsym2         12
             nsym3         12
           ntypat           3
              occ1     2.000000  2.000000  2.000000  2.000000  2.000000  2.000000
                       2.000000  2.000000  2.000000  2.000000  2.000000  2.000000
                       2.000000  2.000000  2.000000  2.000000  2.000000  2.000000
                       2.000000  2.000000  2.000000  2.000000  2.000000  2.000000
                       2.000000  2.000000  2.000000  2.000000  2.000000  2.000000
                       0.000000  0.000000
              occ2     2.000000  2.000000  2.000000  2.000000  2.000000  2.000000
                       2.000000  2.000000  2.000000  2.000000  2.000000  2.000000
                       2.000000  2.000000  2.000000  2.000000  2.000000  2.000000
                       2.000000  2.000000  2.000000  2.000000  2.000000  2.000000
                       2.000000  2.000000  2.000000  2.000000  2.000000  2.000000
                       0.000000  0.000000
              occ3     2.000000  2.000000  2.000000  2.000000  2.000000  2.000000
                       2.000000  2.000000  2.000000  2.000000  2.000000  2.000000
                       2.000000  2.000000  2.000000  2.000000  2.000000  2.000000
                       2.000000  2.000000  2.000000  2.000000  2.000000  2.000000
                       2.000000  2.000000  2.000000  2.000000  2.000000  2.000000
                       0.000000  0.000000
           shiftk      5.00000000E-01  5.00000000E-01  5.00000000E-01
          spgroup1        148
          spgroup2        167
          spgroup3        167
           symafm1       1    1    1    1    1    1
           symafm2       1    1    1    1    1    1    1    1    1    1
                         1    1
           symafm3       1    1    1    1    1    1    1    1    1    1
                         1    1
           symrel1     1  0  0   0  1  0   0  0  1      -1  0  0   0 -1  0   0  0 -1
                       0  0  1   1  0  0   0  1  0       0  0 -1  -1  0  0   0 -1  0
                       0  1  0   0  0  1   1  0  0       0 -1  0   0  0 -1  -1  0  0
           symrel2     1  0  0   0  1  0   0  0  1      -1  0  0   0 -1  0   0  0 -1
                       0  1  0   1  0  0   0  0  1       0 -1  0  -1  0  0   0  0 -1
                       0  0  1   1  0  0   0  1  0       0  0 -1  -1  0  0   0 -1  0
                       1  0  0   0  0  1   0  1  0      -1  0  0   0  0 -1   0 -1  0
                       0  1  0   0  0  1   1  0  0       0 -1  0   0  0 -1  -1  0  0
                       0  0  1   0  1  0   1  0  0       0  0 -1   0 -1  0  -1  0  0
           symrel3     1  0  0   0  1  0   0  0  1      -1  0  0   0 -1  0   0  0 -1
                       0  1  0   1  0  0   0  0  1       0 -1  0  -1  0  0   0  0 -1
                       0  0  1   1  0  0   0  1  0       0  0 -1  -1  0  0   0 -1  0
                       1  0  0   0  0  1   0  1  0      -1  0  0   0  0 -1   0 -1  0
                       0  1  0   0  0  1   1  0  0       0 -1  0   0  0 -1  -1  0  0
                       0  0  1   0  1  0   1  0  0       0  0 -1   0 -1  0  -1  0  0
            tnons1     0.0000000  0.0000000  0.0000000     0.0000000  0.0000000  0.0000000
                       0.0000000  0.0000000  0.0000000     0.0000000  0.0000000  0.0000000
                       0.0000000  0.0000000  0.0000000     0.0000000  0.0000000  0.0000000
            tnons2     0.0000000  0.0000000  0.0000000     0.0000000  0.0000000  0.0000000
                       0.5000000  0.5000000  0.5000000     0.5000000  0.5000000  0.5000000
                       0.0000000  0.0000000  0.0000000     0.0000000  0.0000000  0.0000000
                       0.5000000  0.5000000  0.5000000     0.5000000  0.5000000  0.5000000
                       0.0000000  0.0000000  0.0000000     0.0000000  0.0000000  0.0000000
                       0.5000000  0.5000000  0.5000000     0.5000000  0.5000000  0.5000000
            tnons3     0.0000000  0.0000000  0.0000000     0.0000000  0.0000000  0.0000000
                       0.5000000  0.5000000  0.5000000     0.5000000  0.5000000  0.5000000
                       0.0000000  0.0000000  0.0000000     0.0000000  0.0000000  0.0000000
                       0.5000000  0.5000000  0.5000000     0.5000000  0.5000000  0.5000000
                       0.0000000  0.0000000  0.0000000     0.0000000  0.0000000  0.0000000
                       0.5000000  0.5000000  0.5000000     0.5000000  0.5000000  0.5000000
           tolsym1     1.00000000E-08
           tolsym2     1.00000000E-02
           tolsym3     1.00000000E-08
           tolwfr      1.00000000E-08
            typat      1  1  2  2  3  3  3  3  3  3
              wtk1       0.18750    0.18750    0.18750    0.18750    0.06250    0.18750
              wtk2       0.18750    0.37500    0.18750    0.06250    0.18750
              wtk3       0.18750    0.37500    0.18750    0.06250    0.18750
           xangst1     0.0000000000E+00  0.0000000000E+00  0.0000000000E+00
                       3.1750632515E+00  3.1750632515E+00  3.1750632515E+00
                       1.5870180974E+00  1.5870180974E+00  1.5870180974E+00
                       4.7631084057E+00  4.7631084057E+00  4.7631084057E+00
                      -1.2422930282E-01  3.3011067664E+00  1.5840191993E+00
                       3.3011067664E+00  1.5840191993E+00 -1.2422930282E-01
                       1.5840191993E+00 -1.2422930282E-01  3.3011067664E+00
                       1.2422930282E-01  3.0490197366E+00  4.7661073037E+00
                       3.0490197366E+00  4.7661073037E+00  1.2422930282E-01
                       4.7661073037E+00  1.2422930282E-01  3.0490197366E+00
           xangst2     0.0000000000E+00  0.0000000000E+00  0.0000000000E+00
                       3.1750632515E+00  3.1750632515E+00  3.1750632515E+00
                       1.5875316258E+00  1.5875316258E+00  1.5875316258E+00
                       4.7625948773E+00  4.7625948773E+00  4.7625948773E+00
                      -1.2513640886E-01  3.3001996604E+00  1.5875316258E+00
                       3.3001996604E+00  1.5875316258E+00 -1.2513640886E-01
                       1.5875316258E+00 -1.2513640886E-01  3.3001996604E+00
                       1.2513640886E-01  3.0499268427E+00  4.7625948773E+00
                       3.0499268427E+00  4.7625948773E+00  1.2513640886E-01
                       4.7625948773E+00  1.2513640886E-01  3.0499268427E+00
           xangst3     0.0000000000E+00  0.0000000000E+00  0.0000000000E+00
                       3.1750632515E+00  3.1750632515E+00  3.1750632515E+00
                       1.5875316258E+00  1.5875316258E+00  1.5875316258E+00
                      -1.5875316258E+00 -1.5875316258E+00 -1.5875316258E+00
                       3.3490567177E+00 -1.7399346618E-01  1.5875316258E+00
                       1.5875316258E+00  3.3490567177E+00 -1.7399346618E-01
                      -1.7399346618E-01  1.5875316258E+00  3.3490567177E+00
                      -3.3490567177E+00  1.7399346618E-01 -1.5875316258E+00
                      -1.5875316258E+00 -3.3490567177E+00  1.7399346618E-01
                       1.7399346618E-01 -1.5875316258E+00 -3.3490567177E+00
            xcart1     0.0000000000E+00  0.0000000000E+00  0.0000000000E+00
                       6.0000000000E+00  6.0000000000E+00  6.0000000000E+00
                       2.9990295720E+00  2.9990295720E+00  2.9990295720E+00
                       9.0009704280E+00  9.0009704280E+00  9.0009704280E+00
                      -2.3475936000E-01  6.2381877240E+00  2.9933624760E+00
                       6.2381877240E+00  2.9933624760E+00 -2.3475936000E-01
                       2.9933624760E+00 -2.3475936000E-01  6.2381877240E+00
                       2.3475936000E-01  5.7618122760E+00  9.0066375240E+00
                       5.7618122760E+00  9.0066375240E+00  2.3475936000E-01
                       9.0066375240E+00  2.3475936000E-01  5.7618122760E+00
            xcart2     0.0000000000E+00  0.0000000000E+00  0.0000000000E+00
                       6.0000000000E+00  6.0000000000E+00  6.0000000000E+00
                       3.0000000000E+00  3.0000000000E+00  3.0000000000E+00
                       9.0000000000E+00  9.0000000000E+00  9.0000000000E+00
                      -2.3647354200E-01  6.2364735420E+00  3.0000000000E+00
                       6.2364735420E+00  3.0000000000E+00 -2.3647354200E-01
                       3.0000000000E+00 -2.3647354200E-01  6.2364735420E+00
                       2.3647354200E-01  5.7635264580E+00  9.0000000000E+00
                       5.7635264580E+00  9.0000000000E+00  2.3647354200E-01
                       9.0000000000E+00  2.3647354200E-01  5.7635264580E+00
            xcart3     0.0000000000E+00  0.0000000000E+00  0.0000000000E+00
                       6.0000000000E+00  6.0000000000E+00  6.0000000000E+00
                       3.0000000000E+00  3.0000000000E+00  3.0000000000E+00
                      -3.0000000000E+00 -3.0000000000E+00 -3.0000000000E+00
                       6.3288000000E+00 -3.2880000000E-01  3.0000000000E+00
                       3.0000000000E+00  6.3288000000E+00 -3.2880000000E-01
                      -3.2880000000E-01  3.0000000000E+00  6.3288000000E+00
                      -6.3288000000E+00  3.2880000000E-01 -3.0000000000E+00
                      -3.0000000000E+00 -6.3288000000E+00  3.2880000000E-01
                       3.2880000000E-01 -3.0000000000E+00 -6.3288000000E+00
             xred1     0.0000000000E+00  0.0000000000E+00  0.0000000000E+00
                       5.0000000000E-01  5.0000000000E-01  5.0000000000E-01
                       2.4991913100E-01  2.4991913100E-01  2.4991913100E-01
                       7.5008086900E-01  7.5008086900E-01  7.5008086900E-01
                      -1.9563280000E-02  5.1984897700E-01  2.4944687300E-01
                       5.1984897700E-01  2.4944687300E-01 -1.9563280000E-02
                       2.4944687300E-01 -1.9563280000E-02  5.1984897700E-01
                       1.9563280000E-02  4.8015102300E-01  7.5055312700E-01
                       4.8015102300E-01  7.5055312700E-01  1.9563280000E-02
                       7.5055312700E-01  1.9563280000E-02  4.8015102300E-01
             xred2     0.0000000000E+00  0.0000000000E+00  0.0000000000E+00
                       5.0000000000E-01  5.0000000000E-01  5.0000000000E-01
                       2.5000000000E-01  2.5000000000E-01  2.5000000000E-01
                       7.5000000000E-01  7.5000000000E-01  7.5000000000E-01
                      -1.9706128500E-02  5.1970612850E-01  2.5000000000E-01
                       5.1970612850E-01  2.5000000000E-01 -1.9706128500E-02
                       2.5000000000E-01 -1.9706128500E-02  5.1970612850E-01
                       1.9706128500E-02  4.8029387150E-01  7.5000000000E-01
                       4.8029387150E-01  7.5000000000E-01  1.9706128500E-02
                       7.5000000000E-01  1.9706128500E-02  4.8029387150E-01
             xred3     0.0000000000E+00  0.0000000000E+00  0.0000000000E+00
                       5.0000000000E-01  5.0000000000E-01  5.0000000000E-01
                       2.5000000000E-01  2.5000000000E-01  2.5000000000E-01
                      -2.5000000000E-01 -2.5000000000E-01 -2.5000000000E-01
                       5.2740000000E-01 -2.7400000000E-02  2.5000000000E-01
                       2.5000000000E-01  5.2740000000E-01 -2.7400000000E-02
                      -2.7400000000E-02  2.5000000000E-01  5.2740000000E-01
                      -5.2740000000E-01  2.7400000000E-02 -2.5000000000E-01
                      -2.5000000000E-01 -5.2740000000E-01  2.7400000000E-02
                       2.7400000000E-02 -2.5000000000E-01 -5.2740000000E-01
            znucl       26.00000    6.00000    8.00000

================================================================================

 chkinp: Checking input parameters for consistency, jdtset=   1.

 chkinp: Checking input parameters for consistency, jdtset=   2.

 chkinp: Checking input parameters for consistency, jdtset=   3.

================================================================================
== DATASET  1 ==================================================================
-   nproc =    1

 Exchange-correlation functional for the present dataset will be:
  LDA: new Teter (4/93) with spin-polarized option - ixc=1
 Citation for XC functional:
  S. Goedecker, M. Teter, J. Huetter, PRB 54, 1703 (1996)

 Real(R)+Recip(G) space primitive vectors, cartesian coordinates (Bohr,Bohr^-1):
 R(1)= 12.0000000  0.0000000  0.0000000  G(1)=  0.0833333  0.0000000  0.0000000
 R(2)=  0.0000000 12.0000000  0.0000000  G(2)=  0.0000000  0.0833333  0.0000000
 R(3)=  0.0000000  0.0000000 12.0000000  G(3)=  0.0000000  0.0000000  0.0833333
 Unit cell volume ucvol=  1.7280000E+03 bohr^3
 Angles (23,13,12)=  9.00000000E+01  9.00000000E+01  9.00000000E+01 degrees

 getcut: wavevector=  0.0000  0.0000  0.0000  ngfft=  16  16  16
         ecut(hartree)=      2.000   => boxcut(ratio)=   2.09440

--- Pseudopotential description ------------------------------------------------
- pspini: atom type   1  psp file is /home/gonze/ABINIT/ABINITv7.9.3/trunk/7.9.3-private/tests/Psps_for_tests/26fe.pspnc
- pspatm: opening atomic psp file    /home/gonze/ABINIT/ABINITv7.9.3/trunk/7.9.3-private/tests/Psps_for_tests/26fe.pspnc
-  Troullier-Martins psp for element  Fe        Thu Oct 27 17:35:05 EDT 1994
- 26.00000   8.00000    940714                znucl, zion, pspdat
    1    1    2    0      2001   0.00000      pspcod,pspxc,lmax,lloc,mmax,r2well
    0   4.333  10.868    0   2.2918558        l,e99.0,e99.9,nproj,rcpsp
   0.00000000   0.00000000   0.00000000   0.00000000     rms, ekb1, ekb2, epsatm
    1   1.213   4.197    1   2.8345121        l,e99.0,e99.9,nproj,rcpsp
   0.00000000   0.00000000   0.00000000   0.00000000     rms, ekb1, ekb2, epsatm
    2  18.664  23.972    1   2.2918558        l,e99.0,e99.9,nproj,rcpsp
   0.00000000   0.00000000   0.00000000   0.00000000     rms, ekb1, ekb2, epsatm
    1.56404770202776    2.06158206779471    6.88331421535388   rchrg,fchrg,qchrg
 pspatm: epsatm=   62.03296659
         --- l  ekb(1:nproj) -->
             1    1.561134
             2   -8.115829
 pspatm: atomic psp has been read  and splines computed

- pspini: atom type   2  psp file is /home/gonze/ABINIT/ABINITv7.9.3/trunk/7.9.3-private/tests/Psps_for_tests/6c.pspnc
- pspatm: opening atomic psp file    /home/gonze/ABINIT/ABINITv7.9.3/trunk/7.9.3-private/tests/Psps_for_tests/6c.pspnc
-  Troullier-Martins psp for element  C         Thu Oct 27 17:29:33 EDT 1994
-  6.00000   4.00000    940714                znucl, zion, pspdat
    1    1    1    1      2001   0.00000      pspcod,pspxc,lmax,lloc,mmax,r2well
    0  10.372  24.987    1   1.4850707        l,e99.0,e99.9,nproj,rcpsp
   0.00000000   0.00000000   0.00000000   0.00000000     rms, ekb1, ekb2, epsatm
    1  15.431  21.987    0   1.4850707        l,e99.0,e99.9,nproj,rcpsp
   0.00000000   0.00000000   0.00000000   0.00000000     rms, ekb1, ekb2, epsatm
    0.83985002509544    0.99012430797080    0.51184907750884   rchrg,fchrg,qchrg
 pspatm: epsatm=    0.92590353
         --- l  ekb(1:nproj) -->
             0    4.921466
 pspatm: atomic psp has been read  and splines computed

- pspini: atom type   3  psp file is /home/gonze/ABINIT/ABINITv7.9.3/trunk/7.9.3-private/tests/Psps_for_tests/8o.pspnc
- pspatm: opening atomic psp file    /home/gonze/ABINIT/ABINITv7.9.3/trunk/7.9.3-private/tests/Psps_for_tests/8o.pspnc
-  Troullier-Martins psp for element  O         Thu Oct 27 17:29:57 EDT 1994
-  8.00000   6.00000    940714                znucl, zion, pspdat
    1    1    1    1      2001   0.00000      pspcod,pspxc,lmax,lloc,mmax,r2well
    0   5.480  16.893    1   1.4482335        l,e99.0,e99.9,nproj,rcpsp
   0.00000000   0.00000000   0.00000000   0.00000000     rms, ekb1, ekb2, epsatm
    1  20.911  28.075    0   1.4482335        l,e99.0,e99.9,nproj,rcpsp
   0.00000000   0.00000000   0.00000000   0.00000000     rms, ekb1, ekb2, epsatm
    0.56990156784787    3.95561236318184    0.63894027514378   rchrg,fchrg,qchrg
 pspatm: epsatm=    1.57752239
         --- l  ekb(1:nproj) -->
             0    5.670783
 pspatm: atomic psp has been read  and splines computed

   8.12297248E+03                                ecore*ucvol(ha*bohr**3)
--------------------------------------------------------------------------------

P newkpt: treating     32 bands with npw=     236 for ikpt=   1 by node    0
P newkpt: treating     32 bands with npw=     232 for ikpt=   2 by node    0
P newkpt: treating     32 bands with npw=     232 for ikpt=   3 by node    0
P newkpt: treating     32 bands with npw=     232 for ikpt=   4 by node    0
P newkpt: treating     32 bands with npw=     232 for ikpt=   5 by node    0
P newkpt: treating     32 bands with npw=     244 for ikpt=   6 by node    0

_setup2: Arith. and geom. avg. npw (full set) are     235.000     234.956

================================================================================

     iter   Etot(hartree)      deltaE(h)  residm     nres2
 ETOT  1  -140.58867652021    -1.406E+02 5.153E-02 2.162E+01
 ETOT  2  -126.90722345878     1.368E+01 2.567E-02 5.346E-01

 Cartesian components of stress tensor (hartree/bohr^3)
  sigma(1 1)=  1.49069618E-02  sigma(3 2)= -7.99219227E-04
  sigma(2 2)=  1.49069618E-02  sigma(3 1)= -7.99219227E-04
  sigma(3 3)=  1.49069618E-02  sigma(2 1)= -7.99219227E-04


 scprqt:  WARNING -
  nstep=    2 was not enough SCF cycles to converge;
  maximum residual=  2.567E-02 exceeds tolwfr=  1.000E-08

================================================================================

 ----iterations are completed or convergence reached----

 Mean square residual over all n,k,spin=   5.9995E-03; max=  2.5667E-02
   0.0000  0.0000 -0.2500    1  1.49122E-02 kpt; spin; max resid(k); each band:
  1.26E-02 8.32E-03 7.80E-03 7.63E-03 6.89E-03 8.42E-03 2.79E-03 2.84E-03
  2.45E-03 2.81E-03 3.83E-03 1.47E-03 1.65E-03 4.36E-03 2.72E-03 2.58E-03
  3.38E-03 3.49E-03 3.65E-03 3.26E-03 4.04E-03 4.63E-03 6.47E-03 6.45E-03
  5.03E-03 4.76E-03 5.78E-03 8.34E-03 8.19E-03 1.49E-02 1.27E-02 1.24E-02
   0.0000  0.2500  0.5000    1  1.22908E-02 kpt; spin; max resid(k); each band:
  6.98E-03 8.01E-03 8.08E-03 7.96E-03 7.56E-03 8.51E-03 2.77E-03 3.29E-03
  2.24E-03 2.86E-03 3.52E-03 1.90E-03 2.06E-03 2.41E-03 2.32E-03 3.00E-03
  4.79E-03 5.72E-03 5.70E-03 4.39E-03 4.56E-03 5.68E-03 5.92E-03 4.15E-03
  5.60E-03 6.14E-03 8.13E-03 7.47E-03 9.33E-03 1.10E-02 1.23E-02 1.22E-02
   0.0000  0.5000 -0.2500    1  1.38992E-02 kpt; spin; max resid(k); each band:
  6.85E-03 8.96E-03 6.95E-03 8.03E-03 8.07E-03 7.30E-03 2.90E-03 3.24E-03
  2.19E-03 2.95E-03 2.60E-03 2.01E-03 1.88E-03 2.50E-03 2.10E-03 2.91E-03
  4.64E-03 6.01E-03 5.43E-03 4.20E-03 4.93E-03 3.61E-03 5.86E-03 4.21E-03
  5.54E-03 7.36E-03 6.26E-03 1.00E-02 1.06E-02 1.39E-02 1.21E-02 9.15E-03
   0.2500  0.2500 -0.2500    1  1.22465E-02 kpt; spin; max resid(k); each band:
  8.97E-03 7.40E-03 7.91E-03 9.45E-03 6.27E-03 6.05E-03 2.45E-03 3.07E-03
  2.33E-03 2.37E-03 3.79E-03 3.19E-03 2.23E-03 1.59E-03 2.12E-03 4.04E-03
  3.87E-03 4.63E-03 4.10E-03 5.79E-03 4.63E-03 5.43E-03 4.68E-03 5.83E-03
  7.03E-03 5.95E-03 6.55E-03 6.37E-03 1.12E-02 1.22E-02 1.21E-02 1.17E-02
   0.2500  0.2500  0.2500    1  2.56671E-02 kpt; spin; max resid(k); each band:
  1.15E-02 6.17E-03 7.33E-03 8.41E-03 6.56E-03 7.35E-03 2.65E-03 3.31E-03
  2.46E-03 2.70E-03 2.00E-03 2.07E-03 3.05E-03 3.11E-03 2.19E-03 5.35E-03
  5.97E-03 3.03E-03 4.49E-03 3.63E-03 2.71E-03 5.06E-03 5.04E-03 5.09E-03
  5.48E-03 7.06E-03 7.21E-03 6.28E-03 1.50E-02 1.22E-02 9.77E-03 2.57E-02
   0.2500  0.5000  0.5000    1  1.56535E-02 kpt; spin; max resid(k); each band:
  9.07E-03 9.45E-03 8.98E-03 1.03E-02 9.84E-03 1.04E-02 2.53E-03 3.48E-03
  2.42E-03 2.50E-03 3.21E-03 2.69E-03 1.88E-03 3.42E-03 2.57E-03 4.65E-03
  4.85E-03 6.20E-03 4.75E-03 5.23E-03 6.98E-03 6.96E-03 6.14E-03 5.50E-03
  5.82E-03 6.57E-03 8.27E-03 8.35E-03 8.57E-03 9.47E-03 1.14E-02 1.57E-02
 reduced coordinates (array xred) for   10 atoms
       0.000000000000      0.000000000000      0.000000000000
       0.500000000000      0.500000000000      0.500000000000
       0.249919131000      0.249919131000      0.249919131000
       0.750080869000      0.750080869000      0.750080869000
      -0.019563280000      0.519848977000      0.249446873000
       0.519848977000      0.249446873000     -0.019563280000
       0.249446873000     -0.019563280000      0.519848977000
       0.019563280000      0.480151023000      0.750553127000
       0.480151023000      0.750553127000      0.019563280000
       0.750553127000      0.019563280000      0.480151023000
 rms dE/dt=  2.2772E+01; max dE/dt=  3.6013E+01; dE/dt below (all hartree)
    1       0.000000000000      0.000000000000      0.000000000000
    2       0.000000000000      0.000000000000      0.000000000000
    3      -0.021316484968     -0.021316484968     -0.021316484968
    4       0.021316484968      0.021316484968      0.021316484968
    5     -35.975617791000     36.012889364476     -1.278385546213
    6      36.012889364476     -1.278385546213    -35.975617791000
    7      -1.278385546213    -35.975617791000     36.012889364476
    8      35.975617791000    -36.012889364476      1.278385546213
    9     -36.012889364476      1.278385546213     35.975617791000
   10       1.278385546213     35.975617791000    -36.012889364476

 cartesian coordinates (angstrom) at end:
    1      0.00000000000000     0.00000000000000     0.00000000000000
    2      3.17506325154000     3.17506325154000     3.17506325154000
    3      1.58701809738982     1.58701809738982     1.58701809738982
    4      4.76310840569018     4.76310840569018     4.76310840569018
    5     -0.12422930281517     3.30110676644672     1.58401919934773
    6      3.30110676644672     1.58401919934773    -0.12422930281517
    7      1.58401919934773    -0.12422930281517     3.30110676644672
    8      0.12422930281517     3.04901973663327     4.76610730373227
    9      3.04901973663327     4.76610730373227     0.12422930281517
   10      4.76610730373227     0.12422930281517     3.04901973663327

 cartesian forces (hartree/bohr) at end:
    1     -0.00000000000000    -0.00000000000000    -0.00000000000000
    2     -0.00000000000000    -0.00000000000000    -0.00000000000000
    3      0.00177637374733     0.00177637374733     0.00177637374733
    4     -0.00177637374733    -0.00177637374733    -0.00177637374733
    5      2.99796814924999    -3.00107411370631     0.10653212885107
    6     -3.00107411370631     0.10653212885107     2.99796814924999
    7      0.10653212885107     2.99796814924999    -3.00107411370631
    8     -2.99796814924999     3.00107411370631    -0.10653212885107
    9      3.00107411370631    -0.10653212885107    -2.99796814924999
   10     -0.10653212885107    -2.99796814924999     3.00107411370631
 frms,max,avg= 1.8976623E+00 3.0010741E+00   0.000E+00  0.000E+00  0.000E+00 h/b

 cartesian forces (eV/Angstrom) at end:
    1     -0.00000000000000    -0.00000000000000    -0.00000000000000
    2     -0.00000000000000    -0.00000000000000    -0.00000000000000
    3      0.09134480308827     0.09134480308828     0.09134480308828
    4     -0.09134480308828    -0.09134480308828    -0.09134480308828
    5    154.16170761900977  -154.32142271955539     5.47810186178178
    6   -154.32142271955539     5.47810186178179   154.16170761900977
    7      5.47810186178178   154.16170761900977  -154.32142271955539
    8   -154.16170761900977   154.32142271955539    -5.47810186178178
    9    154.32142271955539    -5.47810186178178  -154.16170761900977
   10     -5.47810186178178  -154.16170761900977   154.32142271955539
 frms,max,avg= 9.7581711E+01 1.5432142E+02   0.000E+00  0.000E+00  0.000E+00 e/A
 length scales= 12.000000000000 12.000000000000 12.000000000000 bohr
              =  6.350126503080  6.350126503080  6.350126503080 angstroms
 prteigrs : about to open file t78o_DS1_EIG
 Fermi (or HOMO) energy (hartree) =   0.10540   Average Vxc (hartree)=  -0.34062
 Eigenvalues (hartree) for nkpt=   6  k points:
 kpt#   1, nband= 32, wtk=  0.18750, kpt=  0.0000  0.0000 -0.2500 (reduced coord)
  -1.26185  -1.25693  -1.25187  -1.22803  -1.19966  -1.19773  -0.38731  -0.37182
  -0.34049  -0.31310  -0.09695  -0.09280  -0.08906  -0.07894  -0.07221  -0.06885
  -0.04523  -0.04075  -0.02288  -0.01690   0.00070   0.00373   0.01275   0.02812
   0.04651   0.05678   0.06603   0.06920   0.07836   0.08586   0.12368   0.19553
 kpt#   2, nband= 32, wtk=  0.18750, kpt=  0.0000  0.2500  0.5000 (reduced coord)
  -1.24384  -1.23357  -1.22761  -1.21850  -1.21726  -1.20013  -0.38783  -0.37099
  -0.33945  -0.31040  -0.09961  -0.08753  -0.08139  -0.07633  -0.06855  -0.04549
  -0.04303  -0.02550  -0.01348  -0.00191   0.00189   0.00985   0.01578   0.02570
   0.03760   0.04742   0.05468   0.06411   0.07980   0.08749   0.09983   0.19281
 kpt#   3, nband= 32, wtk=  0.18750, kpt=  0.0000  0.5000 -0.2500 (reduced coord)
  -1.24388  -1.23387  -1.22766  -1.21868  -1.21676  -1.20016  -0.38785  -0.37100
  -0.33948  -0.31038  -0.09988  -0.08757  -0.08102  -0.07615  -0.06928  -0.04540
  -0.04311  -0.02508  -0.01333  -0.00094   0.00235   0.00856   0.01359   0.02485
   0.03797   0.04459   0.05266   0.06691   0.08409   0.09130   0.10503   0.15044
 kpt#   4, nband= 32, wtk=  0.18750, kpt=  0.2500  0.2500 -0.2500 (reduced coord)
  -1.26525  -1.24880  -1.22078  -1.22004  -1.20179  -1.18967  -0.38829  -0.37187
  -0.33878  -0.31068  -0.09227  -0.08870  -0.08477  -0.07888  -0.07702  -0.04350
  -0.03568  -0.03393  -0.02914   0.00360   0.00853   0.01457   0.02396   0.02652
   0.03365   0.05206   0.05380   0.06645   0.07837   0.10540   0.12581   0.16405
 kpt#   5, nband= 32, wtk=  0.06250, kpt=  0.2500  0.2500  0.2500 (reduced coord)
  -1.24018  -1.23596  -1.23394  -1.23391  -1.20059  -1.20057  -0.38805  -0.37003
  -0.34414  -0.30950  -0.08911  -0.08897  -0.08574  -0.08558  -0.08283  -0.04484
  -0.04406  -0.02284  -0.01297  -0.01141  -0.00745   0.01035   0.03864   0.04194
   0.04649   0.05351   0.05701   0.06573   0.06748   0.07831   0.13311   0.16025
 kpt#   6, nband= 32, wtk=  0.18750, kpt=  0.2500  0.5000  0.5000 (reduced coord)
  -1.26279  -1.25791  -1.24440  -1.23984  -1.23154  -1.22751  -0.38957  -0.37346
  -0.33847  -0.31015  -0.09217  -0.08979  -0.07948  -0.07349  -0.06987  -0.03589
  -0.02640  -0.02522  -0.01430  -0.01100  -0.00958   0.00255   0.01013   0.01640
   0.02182   0.03605   0.04384   0.05079   0.06139   0.07010   0.07910   0.10204
 Total charge density [el/Bohr^3]
,     Maximum=    2.0082E-01  at reduced coord.    0.0000    0.5000    0.7500
,Next maximum=    2.0082E-01  at reduced coord.    0.7500    0.0000    0.5000
,     Minimum=    4.5135E-03  at reduced coord.    0.2500    0.5000    0.0000
,Next minimum=    4.5135E-03  at reduced coord.    0.7500    0.5000    0.0000
,  Integrated=    6.0000E+01

--------------------------------------------------------------------------------
 Components of total free energy (in Hartree) :

    Kinetic energy  =  3.12726028336361E+01
    Hartree energy  =  1.23588361238057E+01
    XC energy       = -3.66679612072507E+01
    Ewald energy    = -9.37520223232539E+01
    PspCore energy  =  4.70079425663569E+00
    Loc. psp. energy= -6.75212268457706E+01
    NL   psp  energy=  1.02052652967078E+01
    >>>>>>>>> Etotal= -1.39403711865490E+02

 "Double-counting" decomposition of free energy:
    Band energy     = -1.78569002262089E+01
    Ewald energy    = -9.37520223232539E+01
    PspCore energy  =  4.70079425663569E+00
    Dble-C XC-energy= -1.99990951659557E+01
    >>>> Etotal (DC)= -1.26907223458783E+02
--------------------------------------------------------------------------------

 Cartesian components of stress tensor (hartree/bohr^3)
  sigma(1 1)=  1.49069618E-02  sigma(3 2)= -7.99219227E-04
  sigma(2 2)=  1.49069618E-02  sigma(3 1)= -7.99219227E-04
  sigma(3 3)=  1.49069618E-02  sigma(2 1)= -7.99219227E-04

-Cartesian components of stress tensor (GPa)         [Pressure= -4.3858E+02 GPa]
- sigma(1 1)=  4.38577884E+02  sigma(3 2)= -2.35138375E+01
- sigma(2 2)=  4.38577884E+02  sigma(3 1)= -2.35138375E+01
- sigma(3 3)=  4.38577884E+02  sigma(2 1)= -2.35138375E+01

================================================================================
== DATASET  2 ==================================================================
-   nproc =    1

 Exchange-correlation functional for the present dataset will be:
  LDA: new Teter (4/93) with spin-polarized option - ixc=1
 Citation for XC functional:
  S. Goedecker, M. Teter, J. Huetter, PRB 54, 1703 (1996)

 Real(R)+Recip(G) space primitive vectors, cartesian coordinates (Bohr,Bohr^-1):
 R(1)= 12.0000000  0.0000000  0.0000000  G(1)=  0.0833333  0.0000000  0.0000000
 R(2)=  0.0000000 12.0000000  0.0000000  G(2)=  0.0000000  0.0833333  0.0000000
 R(3)=  0.0000000  0.0000000 12.0000000  G(3)=  0.0000000  0.0000000  0.0833333
 Unit cell volume ucvol=  1.7280000E+03 bohr^3
 Angles (23,13,12)=  9.00000000E+01  9.00000000E+01  9.00000000E+01 degrees

 getcut: wavevector=  0.0000  0.0000  0.0000  ngfft=  16  16  16
         ecut(hartree)=      2.000   => boxcut(ratio)=   2.09440
--------------------------------------------------------------------------------

P newkpt: treating     32 bands with npw=     236 for ikpt=   1 by node    0
P newkpt: treating     32 bands with npw=     232 for ikpt=   2 by node    0
P newkpt: treating     32 bands with npw=     232 for ikpt=   3 by node    0
P newkpt: treating     32 bands with npw=     232 for ikpt=   4 by node    0
P newkpt: treating     32 bands with npw=     244 for ikpt=   5 by node    0

_setup2: Arith. and geom. avg. npw (full set) are     235.000     234.956

================================================================================

     iter   Etot(hartree)      deltaE(h)  residm     nres2
 ETOT  1  -140.57887851020    -1.406E+02 5.155E-02 2.162E+01
 ETOT  2  -126.90718256204     1.367E+01 2.582E-02 5.322E-01

 Cartesian components of stress tensor (hartree/bohr^3)
  sigma(1 1)=  1.48963031E-02  sigma(3 2)= -7.93977422E-04
  sigma(2 2)=  1.48963031E-02  sigma(3 1)= -7.93977422E-04
  sigma(3 3)=  1.48963031E-02  sigma(2 1)= -7.93977422E-04


 scprqt:  WARNING -
  nstep=    2 was not enough SCF cycles to converge;
  maximum residual=  2.582E-02 exceeds tolwfr=  1.000E-08

================================================================================

 ----iterations are completed or convergence reached----

 Mean square residual over all n,k,spin=   6.0348E-03; max=  2.5821E-02
   0.0000  0.0000 -0.2500    1  1.48850E-02 kpt; spin; max resid(k); each band:
  1.26E-02 8.30E-03 7.78E-03 7.63E-03 6.88E-03 8.41E-03 2.78E-03 2.82E-03
  2.49E-03 2.83E-03 3.83E-03 1.46E-03 1.64E-03 4.37E-03 2.71E-03 2.56E-03
  3.38E-03 3.48E-03 3.65E-03 3.26E-03 3.82E-03 4.83E-03 6.49E-03 6.42E-03
  5.01E-03 4.71E-03 5.81E-03 8.30E-03 8.19E-03 1.49E-02 1.27E-02 1.25E-02
   0.0000  0.2500  0.5000    1  1.22561E-02 kpt; spin; max resid(k); each band:
  6.98E-03 8.01E-03 8.08E-03 8.27E-03 7.26E-03 8.50E-03 2.78E-03 3.26E-03
  2.27E-03 2.87E-03 3.51E-03 1.89E-03 2.07E-03 2.43E-03 2.32E-03 2.96E-03
  4.78E-03 5.73E-03 5.70E-03 4.32E-03 4.57E-03 5.70E-03 5.91E-03 4.14E-03
  5.60E-03 6.13E-03 8.12E-03 7.44E-03 9.30E-03 1.10E-02 1.23E-02 1.22E-02
   0.2500  0.2500 -0.2500    1  1.22100E-02 kpt; spin; max resid(k); each band:
  8.97E-03 7.40E-03 7.88E-03 9.45E-03 6.29E-03 6.02E-03 2.42E-03 3.06E-03
  2.37E-03 2.39E-03 3.80E-03 3.19E-03 2.21E-03 1.62E-03 2.07E-03 4.04E-03
  3.86E-03 4.64E-03 4.07E-03 5.77E-03 4.58E-03 5.47E-03 4.69E-03 5.82E-03
  7.00E-03 5.96E-03 6.51E-03 6.39E-03 1.11E-02 1.22E-02 1.20E-02 1.18E-02
   0.2500  0.2500  0.2500    1  2.58208E-02 kpt; spin; max resid(k); each band:
  1.17E-02 6.01E-03 7.34E-03 8.40E-03 6.55E-03 7.37E-03 2.63E-03 3.28E-03
  2.49E-03 2.72E-03 2.03E-03 2.09E-03 3.02E-03 3.07E-03 2.20E-03 5.34E-03
  5.97E-03 3.05E-03 4.47E-03 3.04E-03 3.25E-03 5.07E-03 5.03E-03 5.07E-03
  5.49E-03 7.01E-03 7.17E-03 6.26E-03 1.50E-02 1.22E-02 9.75E-03 2.58E-02
   0.2500  0.5000  0.5000    1  1.56140E-02 kpt; spin; max resid(k); each band:
  9.05E-03 9.48E-03 8.98E-03 1.02E-02 9.86E-03 1.05E-02 2.51E-03 3.46E-03
  2.46E-03 2.52E-03 3.17E-03 2.72E-03 1.86E-03 3.46E-03 2.52E-03 4.62E-03
  4.80E-03 6.20E-03 4.79E-03 5.24E-03 6.94E-03 6.95E-03 6.09E-03 5.52E-03
  5.84E-03 6.57E-03 8.18E-03 8.39E-03 8.69E-03 9.36E-03 1.14E-02 1.56E-02
 reduced coordinates (array xred) for   10 atoms
       0.000000000000      0.000000000000      0.000000000000
       0.500000000000      0.500000000000      0.500000000000
       0.250000000000      0.250000000000      0.250000000000
       0.750000000000      0.750000000000      0.750000000000
      -0.019706128500      0.519706128500      0.250000000000
       0.519706128500      0.250000000000     -0.019706128500
       0.250000000000     -0.019706128500      0.519706128500
       0.019706128500      0.480293871500      0.750000000000
       0.480293871500      0.750000000000      0.019706128500
       0.750000000000      0.019706128500      0.480293871500
 rms dE/dt=  2.2774E+01; max dE/dt=  3.6008E+01; dE/dt below (all hartree)
    1       0.000000000000      0.000000000000      0.000000000000
    2       0.000000000000      0.000000000000      0.000000000000
    3       0.000000000000      0.000000000000      0.000000000000
    4      -0.000000000000      0.000000000000     -0.000000000000
    5     -36.008112632115     36.008112632115      0.000000000000
    6      36.008112632115      0.000000000000    -36.008112632115
    7       0.000000000000    -36.008112632115     36.008112632115
    8      36.008112632115    -36.008112632115      0.000000000000
    9     -36.008112632115      0.000000000000     36.008112632115
   10       0.000000000000     36.008112632115    -36.008112632115

 cartesian coordinates (angstrom) at end:
    1      0.00000000000000     0.00000000000000     0.00000000000000
    2      3.17506325154000     3.17506325154000     3.17506325154000
    3      1.58753162577000     1.58753162577000     1.58753162577000
    4      4.76259487731000     4.76259487731000     4.76259487731000
    5     -0.12513640886095     3.30019966040095     1.58753162577000
    6      3.30019966040095     1.58753162577000    -0.12513640886095
    7      1.58753162577000    -0.12513640886095     3.30019966040095
    8      0.12513640886095     3.04992684267905     4.76259487731000
    9      3.04992684267905     4.76259487731000     0.12513640886095
   10      4.76259487731000     0.12513640886095     3.04992684267905

 cartesian forces (hartree/bohr) at end:
    1     -0.00000000000000    -0.00000000000000    -0.00000000000000
    2     -0.00000000000000    -0.00000000000000    -0.00000000000000
    3     -0.00000000000000    -0.00000000000000    -0.00000000000000
    4     -0.00000000000000    -0.00000000000000    -0.00000000000000
    5      3.00067605267628    -3.00067605267628    -0.00000000000000
    6     -3.00067605267628    -0.00000000000000     3.00067605267628
    7     -0.00000000000000     3.00067605267628    -3.00067605267628
    8     -3.00067605267628     3.00067605267628    -0.00000000000000
    9      3.00067605267628    -0.00000000000000    -3.00067605267628
   10     -0.00000000000000    -3.00067605267628     3.00067605267628
 frms,max,avg= 1.8977942E+00 3.0006761E+00   0.000E+00  0.000E+00  0.000E+00 h/b

 cartesian forces (eV/Angstrom) at end:
    1     -0.00000000000000    -0.00000000000000    -0.00000000000000
    2     -0.00000000000000    -0.00000000000000    -0.00000000000000
    3     -0.00000000000000    -0.00000000000000    -0.00000000000000
    4     -0.00000000000000    -0.00000000000000    -0.00000000000000
    5    154.30095360011489  -154.30095360011487    -0.00000000000000
    6   -154.30095360011489    -0.00000000000000   154.30095360011487
    7     -0.00000000000000   154.30095360011489  -154.30095360011487
    8   -154.30095360011487   154.30095360011487    -0.00000000000000
    9    154.30095360011489    -0.00000000000000  -154.30095360011487
   10     -0.00000000000000  -154.30095360011489   154.30095360011489
 frms,max,avg= 9.7588492E+01 1.5430095E+02   0.000E+00  0.000E+00  0.000E+00 e/A
 length scales= 12.000000000000 12.000000000000 12.000000000000 bohr
              =  6.350126503080  6.350126503080  6.350126503080 angstroms
 prteigrs : about to open file t78o_DS2_EIG
 Fermi (or HOMO) energy (hartree) =   0.10548   Average Vxc (hartree)=  -0.34064
 Eigenvalues (hartree) for nkpt=   5  k points:
 kpt#   1, nband= 32, wtk=  0.18750, kpt=  0.0000  0.0000 -0.2500 (reduced coord)
  -1.26171  -1.25677  -1.25169  -1.22785  -1.19949  -1.19758  -0.38778  -0.37232
  -0.34110  -0.31367  -0.09709  -0.09268  -0.08899  -0.07905  -0.07218  -0.06914
  -0.04542  -0.04092  -0.02285  -0.01702   0.00086   0.00357   0.01276   0.02839
   0.04660   0.05670   0.06601   0.06946   0.07836   0.08582   0.12386   0.19524
 kpt#   2, nband= 32, wtk=  0.37500, kpt=  0.0000  0.2500  0.5000 (reduced coord)
  -1.24367  -1.23356  -1.22744  -1.21841  -1.21688  -1.19995  -0.38831  -0.37145
  -0.34011  -0.31097  -0.09980  -0.08762  -0.08118  -0.07625  -0.06887  -0.04541
  -0.04307  -0.02571  -0.01341  -0.00187   0.00186   0.00940   0.01588   0.02556
   0.03766   0.04749   0.05485   0.06437   0.07998   0.08743   0.09996   0.19258
 kpt#   3, nband= 32, wtk=  0.18750, kpt=  0.2500  0.2500 -0.2500 (reduced coord)
  -1.26509  -1.24863  -1.22061  -1.21990  -1.20163  -1.18952  -0.38876  -0.37236
  -0.33941  -0.31126  -0.09234  -0.08895  -0.08472  -0.07890  -0.07698  -0.04357
  -0.03570  -0.03417  -0.02907   0.00374   0.00857   0.01457   0.02382   0.02631
   0.03375   0.05216   0.05405   0.06644   0.07856   0.10548   0.12582   0.16386
 kpt#   4, nband= 32, wtk=  0.06250, kpt=  0.2500  0.2500  0.2500 (reduced coord)
  -1.23998  -1.23582  -1.23377  -1.23373  -1.20043  -1.20041  -0.38852  -0.37050
  -0.34478  -0.31007  -0.08906  -0.08892  -0.08575  -0.08561  -0.08321  -0.04492
  -0.04412  -0.02291  -0.01298  -0.01141  -0.00775   0.01045   0.03871   0.04193
   0.04665   0.05371   0.05728   0.06581   0.06744   0.07830   0.13262   0.16002
 kpt#   5, nband= 32, wtk=  0.18750, kpt=  0.2500  0.5000  0.5000 (reduced coord)
  -1.26260  -1.25774  -1.24424  -1.23969  -1.23139  -1.22736  -0.39004  -0.37394
  -0.33911  -0.31072  -0.09233  -0.08984  -0.07945  -0.07359  -0.06997  -0.03590
  -0.02641  -0.02526  -0.01434  -0.01103  -0.00938   0.00253   0.01016   0.01650
   0.02157   0.03614   0.04399   0.05062   0.06132   0.07029   0.07928   0.10195
 Total charge density [el/Bohr^3]
,     Maximum=    2.0076E-01  at reduced coord.    0.0000    0.5000    0.7500
,Next maximum=    2.0076E-01  at reduced coord.    0.7500    0.0000    0.5000
,     Minimum=    4.5004E-03  at reduced coord.    0.2500    0.5000    0.0000
,Next minimum=    4.5004E-03  at reduced coord.    0.7500    0.5000    0.0000
,  Integrated=    6.0000E+01

--------------------------------------------------------------------------------
 Components of total free energy (in Hartree) :

    Kinetic energy  =  3.12824070418506E+01
    Hartree energy  =  1.23523726910584E+01
    XC energy       = -3.66694710270830E+01
    Ewald energy    = -9.37522151301522E+01
    PspCore energy  =  4.70079425663569E+00
    Loc. psp. energy= -6.75212904727411E+01
    NL   psp  energy=  1.02079118848174E+01
    >>>>>>>>> Etotal= -1.39399490755614E+02

 "Double-counting" decomposition of free energy:
    Band energy     = -1.78609249314655E+01
    Ewald energy    = -9.37522151301522E+01
    PspCore energy  =  4.70079425663569E+00
    Dble-C XC-energy= -1.99948367570539E+01
    >>>> Etotal (DC)= -1.26907182562036E+02
--------------------------------------------------------------------------------

 Cartesian components of stress tensor (hartree/bohr^3)
  sigma(1 1)=  1.48963031E-02  sigma(3 2)= -7.93977422E-04
  sigma(2 2)=  1.48963031E-02  sigma(3 1)= -7.93977422E-04
  sigma(3 3)=  1.48963031E-02  sigma(2 1)= -7.93977422E-04

-Cartesian components of stress tensor (GPa)         [Pressure= -4.3826E+02 GPa]
- sigma(1 1)=  4.38264294E+02  sigma(3 2)= -2.33596183E+01
- sigma(2 2)=  4.38264294E+02  sigma(3 1)= -2.33596183E+01
- sigma(3 3)=  4.38264294E+02  sigma(2 1)= -2.33596183E+01

================================================================================
== DATASET  3 ==================================================================
-   nproc =    1

 Exchange-correlation functional for the present dataset will be:
  LDA: new Teter (4/93) with spin-polarized option - ixc=1
 Citation for XC functional:
  S. Goedecker, M. Teter, J. Huetter, PRB 54, 1703 (1996)

 Real(R)+Recip(G) space primitive vectors, cartesian coordinates (Bohr,Bohr^-1):
 R(1)= 12.0000000  0.0000000  0.0000000  G(1)=  0.0833333  0.0000000  0.0000000
 R(2)=  0.0000000 12.0000000  0.0000000  G(2)=  0.0000000  0.0833333  0.0000000
 R(3)=  0.0000000  0.0000000 12.0000000  G(3)=  0.0000000  0.0000000  0.0833333
 Unit cell volume ucvol=  1.7280000E+03 bohr^3
 Angles (23,13,12)=  9.00000000E+01  9.00000000E+01  9.00000000E+01 degrees

 getcut: wavevector=  0.0000  0.0000  0.0000  ngfft=  16  16  16
         ecut(hartree)=      2.000   => boxcut(ratio)=   2.09440
--------------------------------------------------------------------------------

P newkpt: treating     32 bands with npw=     236 for ikpt=   1 by node    0
P newkpt: treating     32 bands with npw=     232 for ikpt=   2 by node    0
P newkpt: treating     32 bands with npw=     232 for ikpt=   3 by node    0
P newkpt: treating     32 bands with npw=     232 for ikpt=   4 by node    0
P newkpt: treating     32 bands with npw=     244 for ikpt=   5 by node    0

_setup2: Arith. and geom. avg. npw (full set) are     235.000     234.956

================================================================================

     iter   Etot(hartree)      deltaE(h)  residm     nres2
 ETOT  1  -138.60692350369    -1.386E+02 6.266E-02 2.163E+01
 ETOT  2  -124.89550365577     1.371E+01 2.429E-02 5.434E-01

 Cartesian components of stress tensor (hartree/bohr^3)
  sigma(1 1)=  1.56907745E-02  sigma(3 2)= -2.88286036E-04
  sigma(2 2)=  1.56907745E-02  sigma(3 1)= -2.88286036E-04
  sigma(3 3)=  1.56907745E-02  sigma(2 1)= -2.88286036E-04


 scprqt:  WARNING -
  nstep=    2 was not enough SCF cycles to converge;
  maximum residual=  2.429E-02 exceeds tolwfr=  1.000E-08

================================================================================

 ----iterations are completed or convergence reached----

 Mean square residual over all n,k,spin=   5.9279E-03; max=  2.4288E-02
   0.0000  0.0000 -0.2500    1  2.11642E-02 kpt; spin; max resid(k); each band:
  5.87E-03 8.01E-03 1.39E-02 8.09E-03 5.61E-03 5.87E-03 2.85E-03 3.40E-03
  1.59E-03 2.53E-03 1.42E-03 4.06E-03 2.02E-03 3.85E-03 2.84E-03 2.42E-03
  3.71E-03 3.80E-03 3.32E-03 3.12E-03 4.70E-03 3.87E-03 6.14E-03 7.67E-03
  5.83E-03 4.47E-03 5.01E-03 7.22E-03 8.38E-03 9.64E-03 2.12E-02 1.13E-02
   0.0000  0.2500  0.5000    1  1.45653E-02 kpt; spin; max resid(k); each band:
  7.40E-03 7.31E-03 6.88E-03 6.39E-03 6.70E-03 7.00E-03 2.77E-03 3.85E-03
  1.87E-03 2.41E-03 3.21E-03 1.99E-03 1.80E-03 2.51E-03 2.04E-03 3.38E-03
  5.15E-03 5.53E-03 5.57E-03 3.81E-03 4.73E-03 4.79E-03 5.19E-03 4.98E-03
  5.69E-03 7.56E-03 8.50E-03 9.54E-03 9.00E-03 1.34E-02 1.46E-02 1.12E-02
   0.2500  0.2500 -0.2500    1  1.14616E-02 kpt; spin; max resid(k); each band:
  8.99E-03 6.57E-03 7.54E-03 8.15E-03 6.48E-03 6.80E-03 2.78E-03 3.97E-03
  1.92E-03 2.57E-03 3.56E-03 1.93E-03 2.87E-03 1.60E-03 2.37E-03 3.76E-03
  3.74E-03 4.04E-03 4.89E-03 5.08E-03 5.75E-03 5.08E-03 5.78E-03 5.64E-03
  7.46E-03 5.31E-03 6.57E-03 7.80E-03 7.20E-03 8.97E-03 1.15E-02 7.01E-03
   0.2500  0.2500  0.2500    1  2.42885E-02 kpt; spin; max resid(k); each band:
  5.91E-03 7.25E-03 9.07E-03 1.12E-02 6.89E-03 7.98E-03 3.00E-03 4.15E-03
  1.93E-03 2.32E-03 1.83E-03 1.89E-03 3.18E-03 3.65E-03 2.21E-03 5.65E-03
  6.50E-03 2.95E-03 4.87E-03 4.96E-03 2.55E-03 5.34E-03 6.10E-03 6.39E-03
  6.49E-03 5.62E-03 7.19E-03 7.34E-03 8.43E-03 1.34E-02 2.43E-02 7.02E-03
   0.2500  0.5000  0.5000    1  1.44857E-02 kpt; spin; max resid(k); each band:
  8.11E-03 8.38E-03 8.13E-03 9.08E-03 9.21E-03 8.35E-03 3.00E-03 4.21E-03
  1.99E-03 2.35E-03 2.97E-03 3.27E-03 1.87E-03 2.98E-03 2.57E-03 5.34E-03
  5.44E-03 5.11E-03 4.84E-03 5.62E-03 6.68E-03 6.61E-03 7.15E-03 6.29E-03
  7.44E-03 7.20E-03 9.42E-03 7.34E-03 8.02E-03 1.03E-02 1.45E-02 1.30E-02
 reduced coordinates (array xred) for   10 atoms
       0.000000000000      0.000000000000      0.000000000000
       0.500000000000      0.500000000000      0.500000000000
       0.250000000000      0.250000000000      0.250000000000
      -0.250000000000     -0.250000000000     -0.250000000000
       0.527400000000     -0.027400000000      0.250000000000
       0.250000000000      0.527400000000     -0.027400000000
      -0.027400000000      0.250000000000      0.527400000000
      -0.527400000000      0.027400000000     -0.250000000000
      -0.250000000000     -0.527400000000      0.027400000000
       0.027400000000     -0.250000000000     -0.527400000000
 rms dE/dt=  6.2329E+00; max dE/dt=  9.8551E+00; dE/dt below (all hartree)
    1       0.000000000000      0.000000000000      0.000000000000
    2       0.000000000000      0.000000000000      0.000000000000
    3       0.000000000000      0.000000000000      0.000000000000
    4       0.000000000000     -0.000000000000      0.000000000000
    5       9.855095503503     -9.855095503503      0.000000000000
    6       0.000000000000      9.855095503503     -9.855095503503
    7      -9.855095503503      0.000000000000      9.855095503503
    8      -9.855095503503      9.855095503503      0.000000000000
    9       0.000000000000     -9.855095503503      9.855095503503
   10       9.855095503503      0.000000000000     -9.855095503503

 cartesian coordinates (angstrom) at end:
    1      0.00000000000000     0.00000000000000     0.00000000000000
    2      3.17506325154000     3.17506325154000     3.17506325154000
    3      1.58753162577000     1.58753162577000     1.58753162577000
    4     -1.58753162577000    -1.58753162577000    -1.58753162577000
    5      3.34905671772439    -0.17399346618439     1.58753162577000
    6      1.58753162577000     3.34905671772439    -0.17399346618439
    7     -0.17399346618439     1.58753162577000     3.34905671772439
    8     -3.34905671772439     0.17399346618439    -1.58753162577000
    9     -1.58753162577000    -3.34905671772439     0.17399346618439
   10      0.17399346618439    -1.58753162577000    -3.34905671772439

 cartesian forces (hartree/bohr) at end:
    1     -0.00000000000000     0.00000000000000    -0.00000000000000
    2     -0.00000000000000     0.00000000000000    -0.00000000000000
    3     -0.00000000000000     0.00000000000000    -0.00000000000000
    4     -0.00000000000000     0.00000000000000    -0.00000000000000
    5     -0.82125795862525     0.82125795862525    -0.00000000000000
    6     -0.00000000000000    -0.82125795862525     0.82125795862525
    7      0.82125795862525     0.00000000000000    -0.82125795862525
    8      0.82125795862525    -0.82125795862525    -0.00000000000000
    9     -0.00000000000000     0.82125795862525    -0.82125795862525
   10     -0.82125795862525     0.00000000000000     0.82125795862525
 frms,max,avg= 5.1940914E-01 8.2125796E-01   0.000E+00  0.000E+00  0.000E+00 h/b

 cartesian forces (eV/Angstrom) at end:
    1     -0.00000000000000     0.00000000000000    -0.00000000000000
    2     -0.00000000000000     0.00000000000000    -0.00000000000000
    3     -0.00000000000000     0.00000000000000    -0.00000000000000
    4     -0.00000000000000     0.00000000000000    -0.00000000000000
    5    -42.23077864554497    42.23077864554497    -0.00000000000000
    6     -0.00000000000000   -42.23077864554497    42.23077864554497
    7     42.23077864554497     0.00000000000000   -42.23077864554497
    8     42.23077864554497   -42.23077864554497    -0.00000000000000
    9     -0.00000000000000    42.23077864554497   -42.23077864554497
   10    -42.23077864554497     0.00000000000000    42.23077864554497
 frms,max,avg= 2.6709090E+01 4.2230779E+01   0.000E+00  0.000E+00  0.000E+00 e/A
 length scales= 12.000000000000 12.000000000000 12.000000000000 bohr
              =  6.350126503080  6.350126503080  6.350126503080 angstroms
 prteigrs : about to open file t78o_DS3_EIG
 Fermi (or HOMO) energy (hartree) =   0.10244   Average Vxc (hartree)=  -0.34105
 Eigenvalues (hartree) for nkpt=   5  k points:
 kpt#   1, nband= 32, wtk=  0.18750, kpt=  0.0000  0.0000 -0.2500 (reduced coord)
  -1.25148  -1.24607  -1.24381  -1.22512  -1.19809  -1.19643  -0.38509  -0.37048
  -0.33472  -0.30809  -0.09582  -0.09536  -0.09067  -0.07878  -0.07333  -0.06793
  -0.04261  -0.03889  -0.02321  -0.01606  -0.00243   0.00497   0.01659   0.02920
   0.04275   0.05954   0.06494   0.06869   0.07791   0.10244   0.12758   0.18448
 kpt#   2, nband= 32, wtk=  0.37500, kpt=  0.0000  0.2500  0.5000 (reduced coord)
  -1.24071  -1.22911  -1.22202  -1.21229  -1.21040  -1.19133  -0.38582  -0.37005
  -0.33351  -0.30546  -0.09956  -0.08954  -0.08311  -0.07686  -0.07053  -0.04723
  -0.04247  -0.02361  -0.01394  -0.00017   0.00523   0.01135   0.01442   0.02681
   0.04083   0.04405   0.05530   0.06471   0.07835   0.09780   0.11604   0.13926
 kpt#   3, nband= 32, wtk=  0.18750, kpt=  0.2500  0.2500 -0.2500 (reduced coord)
  -1.25879  -1.24393  -1.21976  -1.20731  -1.19899  -1.18205  -0.38612  -0.37071
  -0.33307  -0.30571  -0.09275  -0.08754  -0.08707  -0.08047  -0.07897  -0.04312
  -0.03532  -0.03349  -0.03001   0.00418   0.00677   0.01382   0.01943   0.03202
   0.03635   0.04970   0.05715   0.06755   0.07523   0.09037   0.10832   0.18125
 kpt#   4, nband= 32, wtk=  0.06250, kpt=  0.2500  0.2500  0.2500 (reduced coord)
  -1.23525  -1.22840  -1.22833  -1.22231  -1.19772  -1.19768  -0.38590  -0.36923
  -0.33796  -0.30435  -0.09123  -0.09108  -0.08582  -0.08553  -0.07967  -0.04507
  -0.04419  -0.02593  -0.01438  -0.01388  -0.00724   0.00935   0.03822   0.04062
   0.04539   0.05855   0.06102   0.06426   0.06561   0.08002   0.11236   0.17016
 kpt#   5, nband= 32, wtk=  0.18750, kpt=  0.2500  0.5000  0.5000 (reduced coord)
  -1.25910  -1.25660  -1.23800  -1.23218  -1.22151  -1.21979  -0.38748  -0.37222
  -0.33286  -0.30537  -0.09227  -0.09100  -0.08173  -0.07385  -0.07160  -0.03777
  -0.02638  -0.02257  -0.01493  -0.01326  -0.00938   0.00521   0.00776   0.01306
   0.01775   0.03978   0.04501   0.05445   0.06455   0.07717   0.08538   0.10366
 Total charge density [el/Bohr^3]
,     Maximum=    1.9365E-01  at reduced coord.    0.2500    0.5000    0.9375
,Next maximum=    1.9365E-01  at reduced coord.    0.5000    0.0625    0.7500
,     Minimum=    4.6953E-03  at reduced coord.    0.5000    0.2500    0.0000
,Next minimum=    4.6953E-03  at reduced coord.    0.5000    0.7500    0.0000
,  Integrated=    6.0000E+01

--------------------------------------------------------------------------------
 Components of total free energy (in Hartree) :

    Kinetic energy  =  3.11850210052851E+01
    Hartree energy  =  1.20119861609256E+01
    XC energy       = -3.45770529535718E+01
    Ewald energy    = -9.41126246662655E+01
    PspCore energy  =  4.70079425663569E+00
    Loc. psp. energy= -6.67925210336553E+01
    NL   psp  energy=  1.01952274839778E+01
    >>>>>>>>> Etotal= -1.37389169746668E+02

 "Double-counting" decomposition of free energy:
    Band energy     = -1.77508654396444E+01
    Ewald energy    = -9.41126246662655E+01
    PspCore energy  =  4.70079425663569E+00
    Dble-C XC-energy= -1.77328078064908E+01
    >>>> Etotal (DC)= -1.24895503655765E+02
--------------------------------------------------------------------------------

 Cartesian components of stress tensor (hartree/bohr^3)
  sigma(1 1)=  1.56907745E-02  sigma(3 2)= -2.88286036E-04
  sigma(2 2)=  1.56907745E-02  sigma(3 1)= -2.88286036E-04
  sigma(3 3)=  1.56907745E-02  sigma(2 1)= -2.88286036E-04

-Cartesian components of stress tensor (GPa)         [Pressure= -4.6164E+02 GPa]
- sigma(1 1)=  4.61638447E+02  sigma(3 2)= -8.48166659E+00
- sigma(2 2)=  4.61638447E+02  sigma(3 1)= -8.48166659E+00
- sigma(3 3)=  4.61638447E+02  sigma(2 1)= -8.48166659E+00

== END DATASET(S) ==============================================================
================================================================================
  
 -outvars: echo values of variables after computation  --------
            acell      1.2000000000E+01  1.2000000000E+01  1.2000000000E+01 Bohr
              amu      5.58470000E+01  1.20110000E+01  1.59994000E+01
             ecut      2.00000000E+00 Hartree
           etotal1    -1.2690722346E+02
           etotal2    -1.2690718256E+02
           etotal3    -1.2489550366E+02
            fcart1    -1.9428902931E-17 -0.0000000000E+00 -0.0000000000E+00
                      -1.9428902931E-17 -0.0000000000E+00 -0.0000000000E+00
                       1.7763737473E-03  1.7763737473E-03  1.7763737473E-03
                      -1.7763737473E-03 -1.7763737473E-03 -1.7763737473E-03
                       2.9979681492E+00 -3.0010741137E+00  1.0653212885E-01
                      -3.0010741137E+00  1.0653212885E-01  2.9979681492E+00
                       1.0653212885E-01  2.9979681492E+00 -3.0010741137E+00
                      -2.9979681492E+00  3.0010741137E+00 -1.0653212885E-01
                       3.0010741137E+00 -1.0653212885E-01 -2.9979681492E+00
                      -1.0653212885E-01 -2.9979681492E+00  3.0010741137E+00
            fcart2    -4.4408920985E-17 -0.0000000000E+00 -4.4408920985E-17
                      -4.4408920985E-17 -0.0000000000E+00 -4.4408920985E-17
                      -4.4408920985E-17 -0.0000000000E+00 -4.4408920985E-17
                      -4.4408920985E-17 -0.0000000000E+00 -4.4408920985E-17
                       3.0006760527E+00 -3.0006760527E+00 -4.4408920985E-17
                      -3.0006760527E+00 -0.0000000000E+00  3.0006760527E+00
                      -4.4408920985E-17  3.0006760527E+00 -3.0006760527E+00
                      -3.0006760527E+00  3.0006760527E+00 -4.4408920985E-17
                       3.0006760527E+00 -0.0000000000E+00 -3.0006760527E+00
                      -4.4408920985E-17 -3.0006760527E+00  3.0006760527E+00
            fcart3    -0.0000000000E+00  1.1102230246E-17 -0.0000000000E+00
                      -0.0000000000E+00  1.1102230246E-17 -0.0000000000E+00
                      -0.0000000000E+00  1.1102230246E-17 -0.0000000000E+00
                      -0.0000000000E+00  1.1102230246E-17 -0.0000000000E+00
                      -8.2125795863E-01  8.2125795863E-01 -0.0000000000E+00
                      -0.0000000000E+00 -8.2125795863E-01  8.2125795863E-01
                       8.2125795863E-01  1.1102230246E-17 -8.2125795863E-01
                       8.2125795863E-01 -8.2125795863E-01 -0.0000000000E+00
                      -0.0000000000E+00  8.2125795863E-01 -8.2125795863E-01
                      -8.2125795863E-01  1.1102230246E-17  8.2125795863E-01
-          fftalg         112
             iscf          14
           jdtset        1    2    3
              kpt1     0.00000000E+00  0.00000000E+00 -2.50000000E-01
                       0.00000000E+00  2.50000000E-01  5.00000000E-01
                       0.00000000E+00  5.00000000E-01 -2.50000000E-01
                       2.50000000E-01  2.50000000E-01 -2.50000000E-01
                       2.50000000E-01  2.50000000E-01  2.50000000E-01
                       2.50000000E-01  5.00000000E-01  5.00000000E-01
              kpt2     0.00000000E+00  0.00000000E+00 -2.50000000E-01
                       0.00000000E+00  2.50000000E-01  5.00000000E-01
                       2.50000000E-01  2.50000000E-01 -2.50000000E-01
                       2.50000000E-01  2.50000000E-01  2.50000000E-01
                       2.50000000E-01  5.00000000E-01  5.00000000E-01
              kpt3     0.00000000E+00  0.00000000E+00 -2.50000000E-01
                       0.00000000E+00  2.50000000E-01  5.00000000E-01
                       2.50000000E-01  2.50000000E-01 -2.50000000E-01
                       2.50000000E-01  2.50000000E-01  2.50000000E-01
                       2.50000000E-01  5.00000000E-01  5.00000000E-01
         kptrlatt       -2    2    2      2   -2    2      2    2   -2
          kptrlen      4.15692194E+01
P           mkmem1          6
P           mkmem2          5
P           mkmem3          5
            natom          10
            nband1         32
            nband2         32
            nband3         32
           ndtset           3
            ngfft          16      16      16
             nkpt1          6
             nkpt2          5
             nkpt3          5
            nline           1
            nstep           2
             nsym1          6
             nsym2         12
             nsym3         12
           ntypat           3
              occ1     2.000000  2.000000  2.000000  2.000000  2.000000  2.000000
                       2.000000  2.000000  2.000000  2.000000  2.000000  2.000000
                       2.000000  2.000000  2.000000  2.000000  2.000000  2.000000
                       2.000000  2.000000  2.000000  2.000000  2.000000  2.000000
                       2.000000  2.000000  2.000000  2.000000  2.000000  2.000000
                       0.000000  0.000000
              occ2     2.000000  2.000000  2.000000  2.000000  2.000000  2.000000
                       2.000000  2.000000  2.000000  2.000000  2.000000  2.000000
                       2.000000  2.000000  2.000000  2.000000  2.000000  2.000000
                       2.000000  2.000000  2.000000  2.000000  2.000000  2.000000
                       2.000000  2.000000  2.000000  2.000000  2.000000  2.000000
                       0.000000  0.000000
              occ3     2.000000  2.000000  2.000000  2.000000  2.000000  2.000000
                       2.000000  2.000000  2.000000  2.000000  2.000000  2.000000
                       2.000000  2.000000  2.000000  2.000000  2.000000  2.000000
                       2.000000  2.000000  2.000000  2.000000  2.000000  2.000000
                       2.000000  2.000000  2.000000  2.000000  2.000000  2.000000
                       0.000000  0.000000
           shiftk      5.00000000E-01  5.00000000E-01  5.00000000E-01
          spgroup1        148
          spgroup2        167
          spgroup3        167
           strten1     1.4906961792E-02  1.4906961792E-02  1.4906961792E-02
                      -7.9921922722E-04 -7.9921922722E-04 -7.9921922722E-04
           strten2     1.4896303097E-02  1.4896303097E-02  1.4896303097E-02
                      -7.9397742152E-04 -7.9397742152E-04 -7.9397742152E-04
           strten3     1.5690774535E-02  1.5690774535E-02  1.5690774535E-02
                      -2.8828603649E-04 -2.8828603649E-04 -2.8828603649E-04
           symafm1       1    1    1    1    1    1
           symafm2       1    1    1    1    1    1    1    1    1    1
                         1    1
           symafm3       1    1    1    1    1    1    1    1    1    1
                         1    1
           symrel1     1  0  0   0  1  0   0  0  1      -1  0  0   0 -1  0   0  0 -1
                       0  0  1   1  0  0   0  1  0       0  0 -1  -1  0  0   0 -1  0
                       0  1  0   0  0  1   1  0  0       0 -1  0   0  0 -1  -1  0  0
           symrel2     1  0  0   0  1  0   0  0  1      -1  0  0   0 -1  0   0  0 -1
                       0  1  0   1  0  0   0  0  1       0 -1  0  -1  0  0   0  0 -1
                       0  0  1   1  0  0   0  1  0       0  0 -1  -1  0  0   0 -1  0
                       1  0  0   0  0  1   0  1  0      -1  0  0   0  0 -1   0 -1  0
                       0  1  0   0  0  1   1  0  0       0 -1  0   0  0 -1  -1  0  0
                       0  0  1   0  1  0   1  0  0       0  0 -1   0 -1  0  -1  0  0
           symrel3     1  0  0   0  1  0   0  0  1      -1  0  0   0 -1  0   0  0 -1
                       0  1  0   1  0  0   0  0  1       0 -1  0  -1  0  0   0  0 -1
                       0  0  1   1  0  0   0  1  0       0  0 -1  -1  0  0   0 -1  0
                       1  0  0   0  0  1   0  1  0      -1  0  0   0  0 -1   0 -1  0
                       0  1  0   0  0  1   1  0  0       0 -1  0   0  0 -1  -1  0  0
                       0  0  1   0  1  0   1  0  0       0  0 -1   0 -1  0  -1  0  0
            tnons1     0.0000000  0.0000000  0.0000000     0.0000000  0.0000000  0.0000000
                       0.0000000  0.0000000  0.0000000     0.0000000  0.0000000  0.0000000
                       0.0000000  0.0000000  0.0000000     0.0000000  0.0000000  0.0000000
            tnons2     0.0000000  0.0000000  0.0000000     0.0000000  0.0000000  0.0000000
                       0.5000000  0.5000000  0.5000000     0.5000000  0.5000000  0.5000000
                       0.0000000  0.0000000  0.0000000     0.0000000  0.0000000  0.0000000
                       0.5000000  0.5000000  0.5000000     0.5000000  0.5000000  0.5000000
                       0.0000000  0.0000000  0.0000000     0.0000000  0.0000000  0.0000000
                       0.5000000  0.5000000  0.5000000     0.5000000  0.5000000  0.5000000
            tnons3     0.0000000  0.0000000  0.0000000     0.0000000  0.0000000  0.0000000
                       0.5000000  0.5000000  0.5000000     0.5000000  0.5000000  0.5000000
                       0.0000000  0.0000000  0.0000000     0.0000000  0.0000000  0.0000000
                       0.5000000  0.5000000  0.5000000     0.5000000  0.5000000  0.5000000
                       0.0000000  0.0000000  0.0000000     0.0000000  0.0000000  0.0000000
                       0.5000000  0.5000000  0.5000000     0.5000000  0.5000000  0.5000000
           tolsym1     1.00000000E-08
           tolsym2     1.00000000E-02
           tolsym3     1.00000000E-08
           tolwfr      1.00000000E-08
            typat      1  1  2  2  3  3  3  3  3  3
              wtk1       0.18750    0.18750    0.18750    0.18750    0.06250    0.18750
              wtk2       0.18750    0.37500    0.18750    0.06250    0.18750
              wtk3       0.18750    0.37500    0.18750    0.06250    0.18750
           xangst1     0.0000000000E+00  0.0000000000E+00  0.0000000000E+00
                       3.1750632515E+00  3.1750632515E+00  3.1750632515E+00
                       1.5870180974E+00  1.5870180974E+00  1.5870180974E+00
                       4.7631084057E+00  4.7631084057E+00  4.7631084057E+00
                      -1.2422930282E-01  3.3011067664E+00  1.5840191993E+00
                       3.3011067664E+00  1.5840191993E+00 -1.2422930282E-01
                       1.5840191993E+00 -1.2422930282E-01  3.3011067664E+00
                       1.2422930282E-01  3.0490197366E+00  4.7661073037E+00
                       3.0490197366E+00  4.7661073037E+00  1.2422930282E-01
                       4.7661073037E+00  1.2422930282E-01  3.0490197366E+00
           xangst2     0.0000000000E+00  0.0000000000E+00  0.0000000000E+00
                       3.1750632515E+00  3.1750632515E+00  3.1750632515E+00
                       1.5875316258E+00  1.5875316258E+00  1.5875316258E+00
                       4.7625948773E+00  4.7625948773E+00  4.7625948773E+00
                      -1.2513640886E-01  3.3001996604E+00  1.5875316258E+00
                       3.3001996604E+00  1.5875316258E+00 -1.2513640886E-01
                       1.5875316258E+00 -1.2513640886E-01  3.3001996604E+00
                       1.2513640886E-01  3.0499268427E+00  4.7625948773E+00
                       3.0499268427E+00  4.7625948773E+00  1.2513640886E-01
                       4.7625948773E+00  1.2513640886E-01  3.0499268427E+00
           xangst3     0.0000000000E+00  0.0000000000E+00  0.0000000000E+00
                       3.1750632515E+00  3.1750632515E+00  3.1750632515E+00
                       1.5875316258E+00  1.5875316258E+00  1.5875316258E+00
                      -1.5875316258E+00 -1.5875316258E+00 -1.5875316258E+00
                       3.3490567177E+00 -1.7399346618E-01  1.5875316258E+00
                       1.5875316258E+00  3.3490567177E+00 -1.7399346618E-01
                      -1.7399346618E-01  1.5875316258E+00  3.3490567177E+00
                      -3.3490567177E+00  1.7399346618E-01 -1.5875316258E+00
                      -1.5875316258E+00 -3.3490567177E+00  1.7399346618E-01
                       1.7399346618E-01 -1.5875316258E+00 -3.3490567177E+00
            xcart1     0.0000000000E+00  0.0000000000E+00  0.0000000000E+00
                       6.0000000000E+00  6.0000000000E+00  6.0000000000E+00
                       2.9990295720E+00  2.9990295720E+00  2.9990295720E+00
                       9.0009704280E+00  9.0009704280E+00  9.0009704280E+00
                      -2.3475936000E-01  6.2381877240E+00  2.9933624760E+00
                       6.2381877240E+00  2.9933624760E+00 -2.3475936000E-01
                       2.9933624760E+00 -2.3475936000E-01  6.2381877240E+00
                       2.3475936000E-01  5.7618122760E+00  9.0066375240E+00
                       5.7618122760E+00  9.0066375240E+00  2.3475936000E-01
                       9.0066375240E+00  2.3475936000E-01  5.7618122760E+00
            xcart2     0.0000000000E+00  0.0000000000E+00  0.0000000000E+00
                       6.0000000000E+00  6.0000000000E+00  6.0000000000E+00
                       3.0000000000E+00  3.0000000000E+00  3.0000000000E+00
                       9.0000000000E+00  9.0000000000E+00  9.0000000000E+00
                      -2.3647354200E-01  6.2364735420E+00  3.0000000000E+00
                       6.2364735420E+00  3.0000000000E+00 -2.3647354200E-01
                       3.0000000000E+00 -2.3647354200E-01  6.2364735420E+00
                       2.3647354200E-01  5.7635264580E+00  9.0000000000E+00
                       5.7635264580E+00  9.0000000000E+00  2.3647354200E-01
                       9.0000000000E+00  2.3647354200E-01  5.7635264580E+00
            xcart3     0.0000000000E+00  0.0000000000E+00  0.0000000000E+00
                       6.0000000000E+00  6.0000000000E+00  6.0000000000E+00
                       3.0000000000E+00  3.0000000000E+00  3.0000000000E+00
                      -3.0000000000E+00 -3.0000000000E+00 -3.0000000000E+00
                       6.3288000000E+00 -3.2880000000E-01  3.0000000000E+00
                       3.0000000000E+00  6.3288000000E+00 -3.2880000000E-01
                      -3.2880000000E-01  3.0000000000E+00  6.3288000000E+00
                      -6.3288000000E+00  3.2880000000E-01 -3.0000000000E+00
                      -3.0000000000E+00 -6.3288000000E+00  3.2880000000E-01
                       3.2880000000E-01 -3.0000000000E+00 -6.3288000000E+00
             xred1     0.0000000000E+00  0.0000000000E+00  0.0000000000E+00
                       5.0000000000E-01  5.0000000000E-01  5.0000000000E-01
                       2.4991913100E-01  2.4991913100E-01  2.4991913100E-01
                       7.5008086900E-01  7.5008086900E-01  7.5008086900E-01
                      -1.9563280000E-02  5.1984897700E-01  2.4944687300E-01
                       5.1984897700E-01  2.4944687300E-01 -1.9563280000E-02
                       2.4944687300E-01 -1.9563280000E-02  5.1984897700E-01
                       1.9563280000E-02  4.8015102300E-01  7.5055312700E-01
                       4.8015102300E-01  7.5055312700E-01  1.9563280000E-02
                       7.5055312700E-01  1.9563280000E-02  4.8015102300E-01
             xred2     0.0000000000E+00  0.0000000000E+00  0.0000000000E+00
                       5.0000000000E-01  5.0000000000E-01  5.0000000000E-01
                       2.5000000000E-01  2.5000000000E-01  2.5000000000E-01
                       7.5000000000E-01  7.5000000000E-01  7.5000000000E-01
                      -1.9706128500E-02  5.1970612850E-01  2.5000000000E-01
                       5.1970612850E-01  2.5000000000E-01 -1.9706128500E-02
                       2.5000000000E-01 -1.9706128500E-02  5.1970612850E-01
                       1.9706128500E-02  4.8029387150E-01  7.5000000000E-01
                       4.8029387150E-01  7.5000000000E-01  1.9706128500E-02
                       7.5000000000E-01  1.9706128500E-02  4.8029387150E-01
             xred3     0.0000000000E+00  0.0000000000E+00  0.0000000000E+00
                       5.0000000000E-01  5.0000000000E-01  5.0000000000E-01
                       2.5000000000E-01  2.5000000000E-01  2.5000000000E-01
                      -2.5000000000E-01 -2.5000000000E-01 -2.5000000000E-01
                       5.2740000000E-01 -2.7400000000E-02  2.5000000000E-01
                       2.5000000000E-01  5.2740000000E-01 -2.7400000000E-02
                      -2.7400000000E-02  2.5000000000E-01  5.2740000000E-01
                      -5.2740000000E-01  2.7400000000E-02 -2.5000000000E-01
                      -2.5000000000E-01 -5.2740000000E-01  2.7400000000E-02
                       2.7400000000E-02 -2.5000000000E-01 -5.2740000000E-01
            znucl       26.00000    6.00000    8.00000

================================================================================


- Timing analysis has been suppressed with timopt=0



================================================================================

 Suggested references for the acknowledgment of ABINIT usage.

 The users of ABINIT have little formal obligations with respect to the ABINIT group
 (those specified in the GNU General Public License, http://www.gnu.org/copyleft/gpl.txt).
 However, it is common practice in the scientific literature,
 to acknowledge the efforts of people that have made the research possible.
 In this spirit, please find below suggested citations of work written by ABINIT developers,
 corresponding to implementations inside of ABINIT that you have used in the present run.
 Note also that it will be of great value to readers of publications presenting these results,
 to read papers enabling them to understand the theoretical formalism and details
 of the ABINIT implementation.
 For information on why they are suggested, see also http://www.abinit.org/about/?text=acknowledgments.

 [1] ABINIT : First-principles approach of materials and nanosystem properties.
 X. Gonze, B. Amadon, P.-M. Anglade, J.-M. Beuken, F. Bottin, P. Boulanger, F. Bruneval,
 D. Caliste, R. Caracas, M. Cote, T. Deutsch, L. Genovese, Ph. Ghosez, M. Giantomassi
 S. Goedecker, D.R. Hamann, P. Hermet, F. Jollet, G. Jomard, S. Leroux, M. Mancini, S. Mazevet,
 M.J.T. Oliveira, G. Onida, Y. Pouillon, T. Rangel, G.-M. Rignanese, D. Sangalli, R. Shaltaf,
 M. Torrent, M.J. Verstraete, G. Zerah, J.W. Zwanziger
 Computer Phys. Comm. 180, 2582-2615 (2009).
 Comment : the third generic paper describing the ABINIT project.
 Note that a version of this paper, that is not formatted for Computer Phys. Comm. 
 is available at http://www.abinit.org/about/ABINIT_CPC_v10.pdf .
 The licence allows the authors to put it on the Web.

 [2] A brief introduction to the ABINIT software package.
 X. Gonze, G.-M. Rignanese, M. Verstraete, J.-M. Beuken, Y. Pouillon, R. Caracas, F. Jollet,
 M. Torrent, G. Zerah, M. Mikami, Ph. Ghosez, M. Veithen, J.-Y. Raty, V. Olevano, F. Bruneval,
 L. Reining, R. Godby, G. Onida, D.R. Hamann, and D.C. Allan.
 Z. Kristallogr. 220, 558-562 (2005).
 Comment : the second generic paper describing the ABINIT project. Note that this paper
 should be cited especially if you are using the GW part of ABINIT, as several authors
 of this part are not in the list of authors of the first or third paper.
 The .pdf of the latter paper is available at http://www.abinit.org/about/zfk_0505-06_558-562.pdf.
 Note that it should not redistributed (Copyright by Oldenburg Wissenshaftverlag,
 the licence allows the authors to put it on the Web).


 And optionally :

 [3] First-principles computation of material properties : the ABINIT software project. 
 X. Gonze, J.-M. Beuken, R. Caracas, F. Detraux, M. Fuchs, G.-M. Rignanese, L. Sindic,
 M. Verstraete, G. Zerah, F. Jollet, M. Torrent, A. Roy, M. Mikami, Ph. Ghosez, J.-Y. Raty, D.C. Allan.
 Computational Materials Science 25, 478-492 (2002). http://dx.doi.org/10.1016/S0927-0256(02)00325-7
 Comment : the original paper describing the ABINIT project.

 [4] Fast radix 2, 3, 4 and 5 kernels for Fast Fourier Transformations
 on computers with overlapping multiply-add instructions.
 S. Goedecker, SIAM J. on Scientific Computing 18, 1605 (1997).
-
- Proc.   0 individual time (sec): cpu=          1.8  wall=          1.8

================================================================================

 Calculation completed.
.Delivered    7 WARNINGs and   3 COMMENTs to log file.
+Overall time at end (sec) : cpu=          1.8  wall=          1.8
