
.Version 7.10.2 of ABINIT 
.(MPI version, prepared for a x86_64_linux_gnu4.7 computer) 

.Copyright (C) 1998-2014 ABINIT group . 
 ABINIT comes with ABSOLUTELY NO WARRANTY.
 It is free software, and you are welcome to redistribute it
 under certain conditions (GNU General Public License,
 see ~abinit/COPYING or http://www.gnu.org/copyleft/gpl.txt).

 ABINIT is a project of the Universite Catholique de Louvain,
 Corning Inc. and other collaborators, see ~abinit/doc/developers/contributors.txt .
 Please read ~abinit/doc/users/acknowledgments.html for suggested
 acknowledgments of the ABINIT effort.
 For more information, see http://www.abinit.org .

.Starting date : Tue 11 Nov 2014.
- ( at 11h55 )
  
- input  file    -> t22.in
- output file    -> t22.out
- root for input  files -> t22i
- root for output files -> t22o


 DATASET    1 : space group Fm -3 m (#225); Bravais cF (face-center cubic)
================================================================================
 Values of the parameters that define the memory need for DATASET  1.
   intxc =         0  ionmov =         0    iscf =        17 xclevel =         1
  lmnmax =        38   lnmax =        10   mband =        20  mffmem =         1
P  mgfft =        27   mkmem =         2 mpssoang=         4     mpw =       655
  mqgrid =      3001   natom =         2    nfft =     19683    nkpt =         2
  nloalg =         4  nspden =         2 nspinor =         1  nsppol =         2
    nsym =        48  n1xccc =         1  ntypat =         2  occopt =         1
 PAW method is used; the additional fine FFT grid is defined by:
   mgfftf=        36    nfftf =     46656
================================================================================
P This job should need less than                      29.244 Mbytes of memory.
  Rough estimation (10% accuracy) of disk space for files :
_ WF disk file :      0.802 Mbytes ; DEN or POT disk file :      0.714 Mbytes.
================================================================================


 DATASET    2 : space group Fm -3 m (#225); Bravais cF (face-center cubic)
================================================================================
 Values of the parameters that define the memory need for DATASET  2.
   intxc =         0  ionmov =         0    iscf =        17 xclevel =         1
  lmnmax =        38   lnmax =        10   mband =        20  mffmem =         1
P  mgfft =        27   mkmem =         2 mpssoang=         4     mpw =       655
  mqgrid =      3001   natom =         2    nfft =     19683    nkpt =         2
  nloalg =         4  nspden =         2 nspinor =         1  nsppol =         2
    nsym =        48  n1xccc =         1  ntypat =         2  occopt =         7
 PAW method is used; the additional fine FFT grid is defined by:
   mgfftf=        36    nfftf =     46656
================================================================================
P This job should need less than                      29.976 Mbytes of memory.
  Rough estimation (10% accuracy) of disk space for files :
_ WF disk file :      0.802 Mbytes ; DEN or POT disk file :      0.714 Mbytes.
================================================================================


 DATASET    3 : space group Fm -3 m (#225); Bravais cF (face-center cubic)
================================================================================
 Values of the parameters that define the memory need for DATASET  3.
   intxc =         0  ionmov =         0    iscf =        17 xclevel =         1
  lmnmax =        38   lnmax =        10   mband =        20  mffmem =         1
P  mgfft =        27   mkmem =         2 mpssoang=         4     mpw =       655
  mqgrid =      3001   natom =         2    nfft =     19683    nkpt =         2
  nloalg =         4  nspden =         2 nspinor =         1  nsppol =         2
    nsym =        48  n1xccc =         1  ntypat =         2  occopt =         7
 PAW method is used; the additional fine FFT grid is defined by:
   mgfftf=        36    nfftf =     46656
================================================================================
P This job should need less than                      29.976 Mbytes of memory.
  Rough estimation (10% accuracy) of disk space for files :
_ WF disk file :      0.802 Mbytes ; DEN or POT disk file :      0.714 Mbytes.
================================================================================


 DATASET    4 : space group Fm -3 m (#225); Bravais cF (face-center cubic)
================================================================================
 Values of the parameters that define the memory need for DATASET  4.
   intxc =         0  ionmov =         0    iscf =        17 xclevel =         1
  lmnmax =        38   lnmax =        10   mband =        20  mffmem =         1
P  mgfft =        27   mkmem =         2 mpssoang=         4     mpw =       655
  mqgrid =      3001   natom =         2    nfft =     19683    nkpt =         2
  nloalg =         4  nspden =         2 nspinor =         1  nsppol =         2
    nsym =        48  n1xccc =         1  ntypat =         2  occopt =         7
 PAW method is used; the additional fine FFT grid is defined by:
   mgfftf=        36    nfftf =     46656
================================================================================
P This job should need less than                      29.976 Mbytes of memory.
  Rough estimation (10% accuracy) of disk space for files :
_ WF disk file :      0.802 Mbytes ; DEN or POT disk file :      0.714 Mbytes.
================================================================================

--------------------------------------------------------------------------------
------------- Echo of variables that govern the present computation ------------
--------------------------------------------------------------------------------
-
- outvars: echo of selected default values                                      
-   accesswff0 =  0 , fftalg0 =112 , wfoptalg0 = 10
-
- outvars: echo of global parameters not present in the input file              
-  max_nthreads =    0
-
 -outvars: echo values of preprocessed input variables --------
            acell      9.8000000000E+00  9.8000000000E+00  9.8000000000E+00 Bohr
              amu      1.51965000E+02  1.59994000E+01
           diemac      4.00000000E+00
             ecut      1.50000000E+01 Hartree
-          fftalg         112
           getwfk1          0
           getwfk2         -1
           getwfk3         -1
           getwfk4         -1
              ixc           7
           jdtset        1    2    3    4
            jpawu      2.20495952E-02  0.00000000E+00 Hartree
              kpt     -2.50000000E-01  5.00000000E-01  0.00000000E+00
                      -2.50000000E-01  0.00000000E+00  0.00000000E+00
         kptrlatt        2   -2    2     -2    2    2     -2   -2    2
          kptrlen      1.96000000E+01
            lpawu           3      -1
P           mkmem           2
            natom           2
            nband1         20
            nband2         20
            nband3         20
            nband4         20
           ndtset           4
            ngfft          27      27      27
          ngfftdg          36      36      36
             nkpt           2
            nline1          6
            nline2          4
            nline3          4
            nline4          4
           nspden           2
           nsppol           2
            nstep1         35
            nstep2          3
            nstep3          3
            nstep4          3
             nsym          48
           ntypat           2
              occ1     1.000000  1.000000  1.000000  1.000000  1.000000  1.000000
                       1.000000  1.000000  1.000000  1.000000  1.000000  1.000000
                       1.000000  1.000000  1.000000  1.000000  1.000000  1.000000
                       1.000000  1.000000
                       1.000000  1.000000  1.000000  1.000000  1.000000  1.000000
                       1.000000  1.000000  1.000000  1.000000  1.000000  1.000000
                       1.000000  0.000000  0.000000  0.000000  0.000000  0.000000
                       0.000000  0.000000
              occ2     1.000000  1.000000  1.000000  1.000000  1.000000  1.000000
                       1.000000  1.000000  1.000000  1.000000  1.000000  1.000000
                       1.000000  1.000000  1.000000  1.000000  1.000000  1.000000
                       1.000000  1.000000
                       1.000000  1.000000  1.000000  1.000000  1.000000  1.000000
                       1.000000  1.000000  1.000000  1.000000  1.000000  1.000000
                       1.000000  1.000000  1.000000  1.000000  1.000000  1.000000
                       1.000000  1.000000
                       1.000000  1.000000  1.000000  1.000000  1.000000  1.000000
                       1.000000  1.000000  1.000000  1.000000  1.000000  1.000000
                       1.000000  0.000000  0.000000  0.000000  0.000000  0.000000
                       0.000000  0.000000
                       1.000000  1.000000  1.000000  1.000000  1.000000  1.000000
                       1.000000  1.000000  1.000000  1.000000  1.000000  1.000000
                       1.000000  0.000000  0.000000  0.000000  0.000000  0.000000
                       0.000000  0.000000
              occ3     1.000000  1.000000  1.000000  1.000000  1.000000  1.000000
                       1.000000  1.000000  1.000000  1.000000  1.000000  1.000000
                       1.000000  1.000000  1.000000  1.000000  1.000000  0.000000
                       0.000000  0.000000
                       1.000000  1.000000  1.000000  1.000000  1.000000  1.000000
                       1.000000  1.000000  1.000000  1.000000  1.000000  1.000000
                       1.000000  1.000000  1.000000  1.000000  1.000000  0.000000
                       0.000000  0.000000
                       1.000000  1.000000  1.000000  1.000000  1.000000  1.000000
                       1.000000  1.000000  1.000000  1.000000  1.000000  1.000000
                       1.000000  1.000000  1.000000  1.000000  0.000000  0.000000
                       0.000000  0.000000
                       1.000000  1.000000  1.000000  1.000000  1.000000  1.000000
                       1.000000  1.000000  1.000000  1.000000  1.000000  1.000000
                       1.000000  1.000000  1.000000  1.000000  0.000000  0.000000
                       0.000000  0.000000
              occ4     1.000000  1.000000  1.000000  1.000000  1.000000  1.000000
                       1.000000  1.000000  1.000000  1.000000  1.000000  1.000000
                       1.000000  1.000000  1.000000  1.000000  1.000000  1.000000
                       1.000000  1.000000
                       1.000000  1.000000  1.000000  1.000000  1.000000  1.000000
                       1.000000  1.000000  1.000000  1.000000  1.000000  1.000000
                       1.000000  1.000000  1.000000  1.000000  1.000000  1.000000
                       1.000000  1.000000
                       1.000000  1.000000  1.000000  1.000000  1.000000  1.000000
                       1.000000  1.000000  1.000000  1.000000  1.000000  1.000000
                       1.000000  0.000000  0.000000  0.000000  0.000000  0.000000
                       0.000000  0.000000
                       1.000000  1.000000  1.000000  1.000000  1.000000  1.000000
                       1.000000  1.000000  1.000000  1.000000  1.000000  1.000000
                       1.000000  0.000000  0.000000  0.000000  0.000000  0.000000
                       0.000000  0.000000
           occopt1          1
           occopt2          7
           occopt3          7
           occopt4          7
        pawecutdg      3.00000000E+01 Hartree
         pawxcdev           0
            rprim      0.0000000000E+00  5.0000000000E-01  5.0000000000E-01
                       5.0000000000E-01  0.0000000000E+00  5.0000000000E-01
                       5.0000000000E-01  5.0000000000E-01  0.0000000000E+00
           shiftk      5.00000000E-01  5.00000000E-01  5.00000000E-01
          spgroup         225
           spinat1     0.0000000000E+00  0.0000000000E+00  7.0000000000E+00
                       0.0000000000E+00  0.0000000000E+00  0.0000000000E+00
           spinat2     0.0000000000E+00  0.0000000000E+00  7.0000000000E+00
                       0.0000000000E+00  0.0000000000E+00  0.0000000000E+00
           spinat3     0.0000000000E+00  0.0000000000E+00  7.0000000000E+00
                       0.0000000000E+00  0.0000000000E+00  0.0000000000E+00
           spinat4     0.0000000000E+00  0.0000000000E+00  0.0000000000E+00
                       0.0000000000E+00  0.0000000000E+00  0.0000000000E+00
   spinmagntarget1     7.00000000E+00
   spinmagntarget2     7.00000000E+00
   spinmagntarget3    -9.99900000E+01
   spinmagntarget4     7.00000000E+00
           symrel      1  0  0   0  1  0   0  0  1      -1  0  0   0 -1  0   0  0 -1
                       0 -1  1   0 -1  0   1 -1  0       0  1 -1   0  1  0  -1  1  0
                      -1  0  0  -1  0  1  -1  1  0       1  0  0   1  0 -1   1 -1  0
                       0  1 -1   1  0 -1   0  0 -1       0 -1  1  -1  0  1   0  0  1
                      -1  0  0  -1  1  0  -1  0  1       1  0  0   1 -1  0   1  0 -1
                       0 -1  1   1 -1  0   0 -1  0       0  1 -1  -1  1  0   0  1  0
                       1  0  0   0  0  1   0  1  0      -1  0  0   0  0 -1   0 -1  0
                       0  1 -1   0  0 -1   1  0 -1       0 -1  1   0  0  1  -1  0  1
                      -1  0  1  -1  1  0  -1  0  0       1  0 -1   1 -1  0   1  0  0
                       0 -1  0   1 -1  0   0 -1  1       0  1  0  -1  1  0   0  1 -1
                       1  0 -1   0  0 -1   0  1 -1      -1  0  1   0  0  1   0 -1  1
                       0  1  0   0  0  1   1  0  0       0 -1  0   0  0 -1  -1  0  0
                       1  0 -1   0  1 -1   0  0 -1      -1  0  1   0 -1  1   0  0  1
                       0 -1  0   0 -1  1   1 -1  0       0  1  0   0  1 -1  -1  1  0
                      -1  0  1  -1  0  0  -1  1  0       1  0 -1   1  0  0   1 -1  0
                       0  1  0   1  0  0   0  0  1       0 -1  0  -1  0  0   0  0 -1
                       0  0 -1   0  1 -1   1  0 -1       0  0  1   0 -1  1  -1  0  1
                       1 -1  0   0 -1  1   0 -1  0      -1  1  0   0  1 -1   0  1  0
                       0  0  1   1  0  0   0  1  0       0  0 -1  -1  0  0   0 -1  0
                      -1  1  0  -1  0  0  -1  0  1       1 -1  0   1  0  0   1  0 -1
                       0  0  1   0  1  0   1  0  0       0  0 -1   0 -1  0  -1  0  0
                       1 -1  0   0 -1  0   0 -1  1      -1  1  0   0  1  0   0  1 -1
                       0  0 -1   1  0 -1   0  1 -1       0  0  1  -1  0  1   0 -1  1
                      -1  1  0  -1  0  1  -1  0  0       1 -1  0   1  0 -1   1  0  0
           tolvrs      1.00000000E-15
           tsmear      1.00000000E-03 Hartree
            typat      1  2
            upawu      2.75619940E-01  0.00000000E+00 Hartree
          usepawu           1
           useylm           1
              wtk        0.75000    0.25000
           xangst      0.0000000000E+00  0.0000000000E+00  0.0000000000E+00
                       2.5929683221E+00  2.5929683221E+00  2.5929683221E+00
            xcart      0.0000000000E+00  0.0000000000E+00  0.0000000000E+00
                       4.9000000000E+00  4.9000000000E+00  4.9000000000E+00
             xred      0.0000000000E+00  0.0000000000E+00  0.0000000000E+00
                       5.0000000000E-01  5.0000000000E-01  5.0000000000E-01
            znucl       63.00000    8.00000

================================================================================

 chkinp: Checking input parameters for consistency, jdtset=   1.

 chkinp: Checking input parameters for consistency, jdtset=   2.

 chkinp: Checking input parameters for consistency, jdtset=   3.

 chkinp: Checking input parameters for consistency, jdtset=   4.

================================================================================
== DATASET  1 ==================================================================
-   nproc =    1

 Exchange-correlation functional for the present dataset will be:
  LDA: Perdew-Wang 92 LSD fit to Ceperley-Alder data - ixc=7
 Citation for XC functional:
  J.P.Perdew and Y.Wang, PRB 45, 13244 (1992)

 Real(R)+Recip(G) space primitive vectors, cartesian coordinates (Bohr,Bohr^-1):
 R(1)=  0.0000000  4.9000000  4.9000000  G(1)= -0.1020408  0.1020408  0.1020408
 R(2)=  4.9000000  0.0000000  4.9000000  G(2)=  0.1020408 -0.1020408  0.1020408
 R(3)=  4.9000000  4.9000000  0.0000000  G(3)=  0.1020408  0.1020408 -0.1020408
 Unit cell volume ucvol=  2.3529800E+02 bohr^3
 Angles (23,13,12)=  6.00000000E+01  6.00000000E+01  6.00000000E+01 degrees

 Coarse grid specifications (used for wave-functions):

 getcut: wavevector=  0.0000  0.0000  0.0000  ngfft=  27  27  27
         ecut(hartree)=     15.000   => boxcut(ratio)=   2.15523

 Fine grid specifications (used for densities):

 getcut: wavevector=  0.0000  0.0000  0.0000  ngfft=  36  36  36
         ecut(hartree)=     30.000   => boxcut(ratio)=   2.10701

--- Pseudopotential description ------------------------------------------------
- pspini: atom type   1  psp file is /data/ABINIT/testf_gcc47/trunk_7.10.2-private/tests/Psps_for_tests/Eu_GGA_27e_10p.pawps
- pspatm: opening atomic psp file    /data/ABINIT/testf_gcc47/trunk_7.10.2-private/tests/Psps_for_tests/Eu_GGA_27e_10p.pawps
- Paw atomic data for element Eu - Generated by atompaw v3.0.1 & AtomPAW2Abinit v3.3.1
- 63.00000  27.00000  20110518                znucl, zion, pspdat
    7   11    3    0       889   0.00000      pspcod,pspxc,lmax,lloc,mmax,r2well
 Pseudopotential format is: paw5
 basis_size (lnmax)= 10 (lmn_size= 38), orbitals=   0   0   0   1   1   2   2   2   3   3
 Spheres core radius: rc_sph= 2.56938864
 5 radial meshes are used:
  - mesh 1: r(i)=AA*[exp(BB*(i-1))-1], size= 889 , AA= 0.17271E-03 BB= 0.10881E-01
  - mesh 2: r(i)=AA*[exp(BB*(i-1))-1], size= 884 , AA= 0.17271E-03 BB= 0.10881E-01
  - mesh 3: r(i)=AA*[exp(BB*(i-1))-1], size= 892 , AA= 0.17271E-03 BB= 0.10881E-01
  - mesh 4: r(i)=AA*[exp(BB*(i-1))-1], size=1008 , AA= 0.17271E-03 BB= 0.10881E-01
  - mesh 5: r(i)=AA*[exp(BB*(i-1))-1], size=1019 , AA= 0.17271E-03 BB= 0.10881E-01
 Shapefunction is SIN type: shapef(r)=[sin(pi*r/rshp)/(pi*r/rshp)]**2
 Radius for shape functions = sphere core radius
 Radial grid used for partial waves is grid 1
 Radial grid used for projectors is grid  2
 Radial grid used for (t)core density is grid 3
 Radial grid used for Vloc is grid 4
 Radial grid used for pseudo valence density is grid 5
 Compensation charge density is not taken into account in XC energy/potential
 pspatm: atomic psp has been read  and splines computed

- pspini: atom type   2  psp file is /data/ABINIT/testf_gcc47/trunk_7.10.2-private/tests/Psps_for_tests/O_GGA-rc12_xc0.paw
- pspatm: opening atomic psp file    /data/ABINIT/testf_gcc47/trunk_7.10.2-private/tests/Psps_for_tests/O_GGA-rc12_xc0.paw
- Paw atomic data for element O - Generated by atompaw v3.0.1 & AtomPAW2Abinit v3.3.1
-  8.00000   6.00000  20110521                znucl, zion, pspdat
    7   11    1    0       556   0.00000      pspcod,pspxc,lmax,lloc,mmax,r2well
 Pseudopotential format is: paw5
 basis_size (lnmax)=  6 (lmn_size= 12), orbitals=   0   0   0   1   1   1
 Spheres core radius: rc_sph= 1.20123053
 5 radial meshes are used:
  - mesh 1: r(i)=AA*[exp(BB*(i-1))-1], size= 556 , AA= 0.15172E-02 BB= 0.12137E-01
  - mesh 2: r(i)=AA*[exp(BB*(i-1))-1], size= 551 , AA= 0.15172E-02 BB= 0.12137E-01
  - mesh 3: r(i)=AA*[exp(BB*(i-1))-1], size= 575 , AA= 0.15172E-02 BB= 0.12137E-01
  - mesh 4: r(i)=AA*[exp(BB*(i-1))-1], size= 725 , AA= 0.15172E-02 BB= 0.12137E-01
  - mesh 5: r(i)=AA*[exp(BB*(i-1))-1], size= 743 , AA= 0.15172E-02 BB= 0.12137E-01
 Shapefunction is SIN type: shapef(r)=[sin(pi*r/rshp)/(pi*r/rshp)]**2
 Radius for shape functions = sphere core radius
 Radial grid used for partial waves is grid 1
 Radial grid used for projectors is grid  2
 Radial grid used for (t)core density is grid 3
 Radial grid used for Vloc is grid 4
 Radial grid used for pseudo valence density is grid 5
 Compensation charge density is not taken into account in XC energy/potential
 pspatm: atomic psp has been read  and splines computed

   3.13942036E+03                                ecore*ucvol(ha*bohr**3)
--------------------------------------------------------------------------------

P newkpt: treating     20 bands with npw=     655 for ikpt=   1 by node    0
P newkpt: treating     20 bands with npw=     640 for ikpt=   2 by node    0
P newkpt: treating     20 bands with npw=     655 for ikpt=   1 by node    0
P newkpt: treating     20 bands with npw=     640 for ikpt=   2 by node    0

_setup2: Arith. and geom. avg. npw (full set) are     651.250     651.217


 ******************************************
 LDA+U Method used: FLL
 ******************************************

================================================================================

     iter   Etot(hartree)      deltaE(h)  residm     nres2
 ETOT  1  -400.04966731623    -4.000E+02 6.102E-01 1.658E+03
 ETOT  2  -400.23102590812    -1.814E-01 2.367E+00 2.453E+03
 ETOT  3  -368.41022430219     3.182E+01 5.352E+00 9.076E+01
 ETOT  4  -371.13002467347    -2.720E+00 6.442E-01 2.196E+02
 ETOT  5  -371.15126505364    -2.124E-02 1.999E-01 9.573E+01
 ETOT  6  -371.19644140310    -4.518E-02 2.378E-03 9.458E+01
 ETOT  7  -371.20436212178    -7.921E-03 3.667E-05 9.770E+01
 ETOT  8  -371.31278157312    -1.084E-01 2.843E-02 1.203E+02
 ETOT  9  -371.36421214694    -5.143E-02 4.986E-04 1.595E+02
 ETOT 10  -372.24097965469    -8.768E-01 1.109E-01 3.608E+02
 ETOT 11  -371.88487884386     3.561E-01 6.069E-04 3.309E+02
 ETOT 12  -371.01661217710     8.683E-01 2.316E-01 2.204E+01
 ETOT 13  -371.22480336840    -2.082E-01 2.706E-01 7.969E+01
 ETOT 14  -371.08113861767     1.437E-01 1.157E-01 1.460E+01
 ETOT 15  -371.06167464223     1.946E-02 2.316E-02 2.392E+00
 ETOT 16  -371.09266186000    -3.099E-02 2.066E-02 1.274E+01
 ETOT 17  -371.09474460340    -2.083E-03 2.741E-02 1.316E+01
 ETOT 18  -371.07919314628     1.555E-02 4.294E-03 9.847E+00
 ETOT 19  -371.09038387535    -1.119E-02 4.859E-03 9.153E+00
 ETOT 20  -371.19302433363    -1.026E-01 4.827E-02 1.708E+01
 ETOT 21  -371.15314412084     3.988E-02 8.367E-03 9.306E+00
 ETOT 22  -371.12223396103     3.091E-02 2.778E-02 4.627E+00
 ETOT 23  -371.10285762260     1.938E-02 1.062E-02 2.366E+00
 ETOT 24  -371.10697607051    -4.118E-03 5.293E-04 4.595E+00
 ETOT 25  -371.10813931819    -1.163E-03 3.163E-03 1.168E+00
 ETOT 26  -371.10159878409     6.541E-03 2.657E-03 2.059E-01
 ETOT 27  -371.10248791376    -8.891E-04 1.070E-04 3.115E-01
 ETOT 28  -371.10221341566     2.745E-04 1.315E-01 1.648E-01
 ETOT 29  -371.10210071670     1.127E-04 2.409E-03 9.870E-02
 ETOT 30  -371.10209282121     7.895E-06 4.597E-04 8.953E-02
 ETOT 31  -371.10202050736     7.231E-05 6.194E-05 2.379E-02
 ETOT 32  -371.10200512708     1.538E-05 3.978E-06 1.520E-03
 ETOT 33  -371.10200636489    -1.238E-06 7.859E-07 6.673E-05
 ETOT 34  -371.10200652742    -1.625E-07 1.628E-07 1.251E-05
 ETOT 35  -371.10200654273    -1.531E-08 4.571E-08 2.128E-06

 Cartesian components of stress tensor (hartree/bohr^3)
  sigma(1 1)=  1.64468629E-02  sigma(3 2)=  0.00000000E+00
  sigma(2 2)=  1.64468629E-02  sigma(3 1)=  0.00000000E+00
  sigma(3 3)=  1.64468629E-02  sigma(2 1)=  0.00000000E+00


 scprqt:  WARNING -
  nstep=   35 was not enough SCF cycles to converge;
  density residual=  2.128E-06 exceeds tolvrs=  1.000E-15


 PAW TEST:
 ==== Compensation charge inside spheres ============
 The following values must be close to each other ...
 Compensation charge over spherical meshes =     14.319988641661256
 Compensation charge over fine fft grid    =     14.319959062321058

 ==== Results concerning PAW augmentation regions ====

 Total pseudopotential strength Dij (hartree):
 Atom #  1 - Spin component 1
   1.05652  -0.44581  -2.47470   0.00000   0.00000   0.00000   0.00000   0.00000   0.00000   0.00000   0.00000   0.00000 ...
  -0.44581   0.19344  -0.17184   0.00000   0.00000   0.00000   0.00000   0.00000   0.00000   0.00000   0.00000   0.00000 ...
  -2.47470  -0.17184  13.60719   0.00000   0.00000   0.00000   0.00000   0.00000   0.00000   0.00000   0.00000   0.00000 ...
   0.00000   0.00000   0.00000   0.16041   0.00000   0.00000  -0.18359   0.00000   0.00000   0.00000   0.00000   0.00000 ...
   0.00000   0.00000   0.00000   0.00000   0.16041   0.00000   0.00000  -0.18359   0.00000   0.00000   0.00000   0.00000 ...
   0.00000   0.00000   0.00000   0.00000   0.00000   0.16041   0.00000   0.00000  -0.18359   0.00000   0.00000   0.00000 ...
   0.00000   0.00000   0.00000  -0.18359   0.00000   0.00000   7.95533   0.00000   0.00000   0.00000   0.00000   0.00000 ...
   0.00000   0.00000   0.00000   0.00000  -0.18359   0.00000   0.00000   7.95533   0.00000   0.00000   0.00000   0.00000 ...
   0.00000   0.00000   0.00000   0.00000   0.00000  -0.18359   0.00000   0.00000   7.95533   0.00000   0.00000   0.00000 ...
   0.00000   0.00000   0.00000   0.00000   0.00000   0.00000   0.00000   0.00000   0.00000  -4.80690   0.00000   0.00000 ...
   0.00000   0.00000   0.00000   0.00000   0.00000   0.00000   0.00000   0.00000   0.00000   0.00000  -4.80690   0.00000 ...
   0.00000   0.00000   0.00000   0.00000   0.00000   0.00000   0.00000   0.00000   0.00000   0.00000   0.00000  -4.80643 ...
   ...  only 12  components have been written...
 Atom #  1 - Spin component 2
   1.08059  -0.45440  -2.21209   0.00000   0.00000   0.00000   0.00000   0.00000   0.00000   0.00000   0.00000   0.00000 ...
  -0.45440   0.19621  -0.24828   0.00000   0.00000   0.00000   0.00000   0.00000   0.00000   0.00000   0.00000   0.00000 ...
  -2.21209  -0.24828  13.65829   0.00000   0.00000   0.00000   0.00000   0.00000   0.00000   0.00000   0.00000   0.00000 ...
   0.00000   0.00000   0.00000   0.19014   0.00000   0.00000  -0.32068   0.00000   0.00000   0.00000   0.00000   0.00000 ...
   0.00000   0.00000   0.00000   0.00000   0.19014   0.00000   0.00000  -0.32068   0.00000   0.00000   0.00000   0.00000 ...
   0.00000   0.00000   0.00000   0.00000   0.00000   0.19014   0.00000   0.00000  -0.32068   0.00000   0.00000   0.00000 ...
   0.00000   0.00000   0.00000  -0.32068   0.00000   0.00000   8.28534   0.00000   0.00000   0.00000   0.00000   0.00000 ...
   0.00000   0.00000   0.00000   0.00000  -0.32068   0.00000   0.00000   8.28534   0.00000   0.00000   0.00000   0.00000 ...
   0.00000   0.00000   0.00000   0.00000   0.00000  -0.32068   0.00000   0.00000   8.28534   0.00000   0.00000   0.00000 ...
   0.00000   0.00000   0.00000   0.00000   0.00000   0.00000   0.00000   0.00000   0.00000  -4.62342   0.00000   0.00000 ...
   0.00000   0.00000   0.00000   0.00000   0.00000   0.00000   0.00000   0.00000   0.00000   0.00000  -4.62342   0.00000 ...
   0.00000   0.00000   0.00000   0.00000   0.00000   0.00000   0.00000   0.00000   0.00000   0.00000   0.00000  -4.62302 ...
   ...  only 12  components have been written...
 Atom #  2 - Spin component 1
  -0.02046  -0.05624  -0.00379   0.00000   0.00000   0.00000   0.00000   0.00000   0.00000   0.00000   0.00000   0.00000
  -0.05624  -1.63459   0.00153   0.00000   0.00000   0.00000   0.00000   0.00000   0.00000   0.00000   0.00000   0.00000
  -0.00379   0.00153   0.26963   0.00000   0.00000   0.00000   0.00000   0.00000   0.00000   0.00000   0.00000   0.00000
   0.00000   0.00000   0.00000  -0.73683   0.00000   0.00000   1.98719   0.00000   0.00000   0.61413   0.00000   0.00000
   0.00000   0.00000   0.00000   0.00000  -0.73683   0.00000   0.00000   1.98719   0.00000   0.00000   0.61413   0.00000
   0.00000   0.00000   0.00000   0.00000   0.00000  -0.73683   0.00000   0.00000   1.98719   0.00000   0.00000   0.61413
   0.00000   0.00000   0.00000   1.98719   0.00000   0.00000  -3.37109   0.00000   0.00000  -1.49276   0.00000   0.00000
   0.00000   0.00000   0.00000   0.00000   1.98719   0.00000   0.00000  -3.37109   0.00000   0.00000  -1.49276   0.00000
   0.00000   0.00000   0.00000   0.00000   0.00000   1.98719   0.00000   0.00000  -3.37109   0.00000   0.00000  -1.49276
   0.00000   0.00000   0.00000   0.61413   0.00000   0.00000  -1.49276   0.00000   0.00000  -1.87253   0.00000   0.00000
   0.00000   0.00000   0.00000   0.00000   0.61413   0.00000   0.00000  -1.49276   0.00000   0.00000  -1.87253   0.00000
   0.00000   0.00000   0.00000   0.00000   0.00000   0.61413   0.00000   0.00000  -1.49276   0.00000   0.00000  -1.87253
 Atom #  2 - Spin component 2
  -0.02009  -0.05256  -0.00419   0.00000   0.00000   0.00000   0.00000   0.00000   0.00000   0.00000   0.00000   0.00000
  -0.05256  -1.59860  -0.00262   0.00000   0.00000   0.00000   0.00000   0.00000   0.00000   0.00000   0.00000   0.00000
  -0.00419  -0.00262   0.27000   0.00000   0.00000   0.00000   0.00000   0.00000   0.00000   0.00000   0.00000   0.00000
   0.00000   0.00000   0.00000  -0.73793   0.00000   0.00000   1.99182   0.00000   0.00000   0.61505   0.00000   0.00000
   0.00000   0.00000   0.00000   0.00000  -0.73793   0.00000   0.00000   1.99182   0.00000   0.00000   0.61505   0.00000
   0.00000   0.00000   0.00000   0.00000   0.00000  -0.73793   0.00000   0.00000   1.99182   0.00000   0.00000   0.61505
   0.00000   0.00000   0.00000   1.99182   0.00000   0.00000  -3.39025   0.00000   0.00000  -1.49706   0.00000   0.00000
   0.00000   0.00000   0.00000   0.00000   1.99182   0.00000   0.00000  -3.39025   0.00000   0.00000  -1.49706   0.00000
   0.00000   0.00000   0.00000   0.00000   0.00000   1.99182   0.00000   0.00000  -3.39025   0.00000   0.00000  -1.49706
   0.00000   0.00000   0.00000   0.61505   0.00000   0.00000  -1.49706   0.00000   0.00000  -1.87322   0.00000   0.00000
   0.00000   0.00000   0.00000   0.00000   0.61505   0.00000   0.00000  -1.49706   0.00000   0.00000  -1.87322   0.00000
   0.00000   0.00000   0.00000   0.00000   0.00000   0.61505   0.00000   0.00000  -1.49706   0.00000   0.00000  -1.87322


 Augmentation waves occupancies Rhoij:
 Atom #  1 - Spin component 1
   1.00481   0.00505   0.00501   0.00000   0.00000   0.00000   0.00000   0.00000   0.00000   0.00000   0.00000   0.00000 ...
   0.00505   0.21305   0.00183   0.00000   0.00000   0.00000   0.00000   0.00000   0.00000   0.00000   0.00000   0.00000 ...
   0.00501   0.00183   0.00004   0.00000   0.00000   0.00000   0.00000   0.00000   0.00000   0.00000   0.00000   0.00000 ...
   0.00000   0.00000   0.00000   1.00490   0.00000   0.00000  -0.00465   0.00000   0.00000   0.00000   0.00000   0.00000 ...
   0.00000   0.00000   0.00000   0.00000   1.00490   0.00000   0.00000  -0.00465   0.00000   0.00000   0.00000   0.00000 ...
   0.00000   0.00000   0.00000   0.00000   0.00000   1.00490   0.00000   0.00000  -0.00465   0.00000   0.00000   0.00000 ...
   0.00000   0.00000   0.00000  -0.00465   0.00000   0.00000   0.00036   0.00000   0.00000   0.00000   0.00000   0.00000 ...
   0.00000   0.00000   0.00000   0.00000  -0.00465   0.00000   0.00000   0.00036   0.00000   0.00000   0.00000   0.00000 ...
   0.00000   0.00000   0.00000   0.00000   0.00000  -0.00465   0.00000   0.00000   0.00036   0.00000   0.00000   0.00000 ...
   0.00000   0.00000   0.00000   0.00000   0.00000   0.00000   0.00000   0.00000   0.00000   0.99859   0.00000   0.00000 ...
   0.00000   0.00000   0.00000   0.00000   0.00000   0.00000   0.00000   0.00000   0.00000   0.00000   0.99859   0.00000 ...
   0.00000   0.00000   0.00000   0.00000   0.00000   0.00000   0.00000   0.00000   0.00000   0.00000   0.00000   0.99864 ...
   ...  only 12  components have been written...
 Atom #  1 - Spin component 2
   1.00742   0.04292   0.00104   0.00000   0.00000   0.00000   0.00000   0.00000   0.00000   0.00000   0.00000   0.00000 ...
   0.04292   0.18794   0.00227   0.00000   0.00000   0.00000   0.00000   0.00000   0.00000   0.00000   0.00000   0.00000 ...
   0.00104   0.00227   0.00003   0.00000   0.00000   0.00000   0.00000   0.00000   0.00000   0.00000   0.00000   0.00000 ...
   0.00000   0.00000   0.00000   0.97729   0.00000   0.00000   0.00459   0.00000   0.00000   0.00000   0.00000   0.00000 ...
   0.00000   0.00000   0.00000   0.00000   0.97729   0.00000   0.00000   0.00459   0.00000   0.00000   0.00000   0.00000 ...
   0.00000   0.00000   0.00000   0.00000   0.00000   0.97729   0.00000   0.00000   0.00459   0.00000   0.00000   0.00000 ...
   0.00000   0.00000   0.00000   0.00459   0.00000   0.00000   0.00029   0.00000   0.00000   0.00000   0.00000   0.00000 ...
   0.00000   0.00000   0.00000   0.00000   0.00459   0.00000   0.00000   0.00029   0.00000   0.00000   0.00000   0.00000 ...
   0.00000   0.00000   0.00000   0.00000   0.00000   0.00459   0.00000   0.00000   0.00029   0.00000   0.00000   0.00000 ...
   0.00000   0.00000   0.00000   0.00000   0.00000   0.00000   0.00000   0.00000   0.00000   0.99859   0.00000   0.00000 ...
   0.00000   0.00000   0.00000   0.00000   0.00000   0.00000   0.00000   0.00000   0.00000   0.00000   0.99859   0.00000 ...
   0.00000   0.00000   0.00000   0.00000   0.00000   0.00000   0.00000   0.00000   0.00000   0.00000   0.00000   0.99864 ...
   ...  only 12  components have been written...
 Atom #  2 - Spin component 1
   0.85939   0.00300   0.01742   0.00000   0.00000   0.00000   0.00000   0.00000   0.00000   0.00000   0.00000   0.00000
   0.00300   0.00192   0.00475   0.00000   0.00000   0.00000   0.00000   0.00000   0.00000   0.00000   0.00000   0.00000
   0.01742   0.00475   0.01197   0.00000   0.00000   0.00000   0.00000   0.00000   0.00000   0.00000   0.00000   0.00000
   0.00000   0.00000   0.00000   0.75979   0.00000   0.00000   0.00454   0.00000   0.00000   0.03078   0.00000   0.00000
   0.00000   0.00000   0.00000   0.00000   0.75979   0.00000   0.00000   0.00454   0.00000   0.00000   0.03078   0.00000
   0.00000   0.00000   0.00000   0.00000   0.00000   0.75979   0.00000   0.00000   0.00454   0.00000   0.00000   0.03078
   0.00000   0.00000   0.00000   0.00454   0.00000   0.00000   0.00006   0.00000   0.00000   0.00017   0.00000   0.00000
   0.00000   0.00000   0.00000   0.00000   0.00454   0.00000   0.00000   0.00006   0.00000   0.00000   0.00017   0.00000
   0.00000   0.00000   0.00000   0.00000   0.00000   0.00454   0.00000   0.00000   0.00006   0.00000   0.00000   0.00017
   0.00000   0.00000   0.00000   0.03078   0.00000   0.00000   0.00017   0.00000   0.00000   0.00128   0.00000   0.00000
   0.00000   0.00000   0.00000   0.00000   0.03078   0.00000   0.00000   0.00017   0.00000   0.00000   0.00128   0.00000
   0.00000   0.00000   0.00000   0.00000   0.00000   0.03078   0.00000   0.00000   0.00017   0.00000   0.00000   0.00128
 Atom #  2 - Spin component 2
   0.81192   0.01174   0.03788   0.00000   0.00000   0.00000   0.00000   0.00000   0.00000   0.00000   0.00000   0.00000
   0.01174   0.00056   0.00142   0.00000   0.00000   0.00000   0.00000   0.00000   0.00000   0.00000   0.00000   0.00000
   0.03788   0.00142   0.00385   0.00000   0.00000   0.00000   0.00000   0.00000   0.00000   0.00000   0.00000   0.00000
   0.00000   0.00000   0.00000   0.79207   0.00000   0.00000   0.00372   0.00000   0.00000   0.03248   0.00000   0.00000
   0.00000   0.00000   0.00000   0.00000   0.79207   0.00000   0.00000   0.00372   0.00000   0.00000   0.03248   0.00000
   0.00000   0.00000   0.00000   0.00000   0.00000   0.79207   0.00000   0.00000   0.00372   0.00000   0.00000   0.03248
   0.00000   0.00000   0.00000   0.00372   0.00000   0.00000   0.00004   0.00000   0.00000   0.00014   0.00000   0.00000
   0.00000   0.00000   0.00000   0.00000   0.00372   0.00000   0.00000   0.00004   0.00000   0.00000   0.00014   0.00000
   0.00000   0.00000   0.00000   0.00000   0.00000   0.00372   0.00000   0.00000   0.00004   0.00000   0.00000   0.00014
   0.00000   0.00000   0.00000   0.03248   0.00000   0.00000   0.00014   0.00000   0.00000   0.00134   0.00000   0.00000
   0.00000   0.00000   0.00000   0.00000   0.03248   0.00000   0.00000   0.00014   0.00000   0.00000   0.00134   0.00000
   0.00000   0.00000   0.00000   0.00000   0.00000   0.03248   0.00000   0.00000   0.00014   0.00000   0.00000   0.00134

 "PAW+U" part of augmentation waves occupancies Rhoij:
 Atom #  1 - L=3 ONLY - Spin component 1
   1.03180   0.00000  -0.00075   0.00000   0.00000   0.00000   0.00000  -0.00488   0.00000   0.00014   0.00000   0.00000   0.00000   0.00000
   0.00000   1.02558   0.00000   0.00000   0.00000   0.00000   0.00000   0.00000  -0.00519   0.00000   0.00000   0.00000   0.00000   0.00000
  -0.00075   0.00000   1.03219   0.00000   0.00000   0.00000   0.00000   0.00014   0.00000  -0.00495   0.00000   0.00000   0.00000   0.00000
   0.00000   0.00000   0.00000   1.03122   0.00000   0.00000   0.00000   0.00000   0.00000   0.00000  -0.00477   0.00000   0.00000   0.00000
   0.00000   0.00000   0.00000   0.00000   1.03219   0.00000   0.00075   0.00000   0.00000   0.00000   0.00000  -0.00495   0.00000  -0.00014
   0.00000   0.00000   0.00000   0.00000   0.00000   1.03277   0.00000   0.00000   0.00000   0.00000   0.00000   0.00000  -0.00506   0.00000
   0.00000   0.00000   0.00000   0.00000   0.00075   0.00000   1.03180   0.00000   0.00000   0.00000   0.00000  -0.00014   0.00000  -0.00488
  -0.00488   0.00000   0.00014   0.00000   0.00000   0.00000   0.00000   0.00003   0.00000  -0.00000   0.00000   0.00000   0.00000   0.00000
   0.00000  -0.00519   0.00000   0.00000   0.00000   0.00000   0.00000   0.00000   0.00003   0.00000   0.00000   0.00000   0.00000   0.00000
   0.00014   0.00000  -0.00495   0.00000   0.00000   0.00000   0.00000  -0.00000   0.00000   0.00003   0.00000   0.00000   0.00000   0.00000
   0.00000   0.00000   0.00000  -0.00477   0.00000   0.00000   0.00000   0.00000   0.00000   0.00000   0.00003   0.00000   0.00000   0.00000
   0.00000   0.00000   0.00000   0.00000  -0.00495   0.00000  -0.00014   0.00000   0.00000   0.00000   0.00000   0.00003   0.00000   0.00000
   0.00000   0.00000   0.00000   0.00000   0.00000  -0.00506   0.00000   0.00000   0.00000   0.00000   0.00000   0.00000   0.00003   0.00000
   0.00000   0.00000   0.00000   0.00000  -0.00014   0.00000  -0.00488   0.00000   0.00000   0.00000   0.00000   0.00000   0.00000   0.00003
 Atom #  1 - L=3 ONLY - Spin component 2
   0.00056   0.00000   0.00025   0.00000   0.00000   0.00000   0.00000  -0.00003   0.00000  -0.00002   0.00000   0.00000   0.00000   0.00000
   0.00000   0.00002   0.00000   0.00000   0.00000   0.00000   0.00000   0.00000  -0.00000   0.00000   0.00000   0.00000   0.00000   0.00000
   0.00025   0.00000   0.00043   0.00000   0.00000   0.00000   0.00000  -0.00002   0.00000  -0.00003   0.00000   0.00000   0.00000   0.00000
   0.00000   0.00000   0.00000   0.00075   0.00000   0.00000   0.00000   0.00000   0.00000   0.00000  -0.00004   0.00000   0.00000   0.00000
   0.00000   0.00000   0.00000   0.00000   0.00043   0.00000  -0.00025   0.00000   0.00000   0.00000   0.00000  -0.00003   0.00000   0.00002
   0.00000   0.00000   0.00000   0.00000   0.00000   0.00024   0.00000   0.00000   0.00000   0.00000   0.00000   0.00000  -0.00001   0.00000
   0.00000   0.00000   0.00000   0.00000  -0.00025   0.00000   0.00056   0.00000   0.00000   0.00000   0.00000   0.00002   0.00000  -0.00003
  -0.00003   0.00000  -0.00002   0.00000   0.00000   0.00000   0.00000   0.00000   0.00000   0.00000   0.00000   0.00000   0.00000   0.00000
   0.00000  -0.00000   0.00000   0.00000   0.00000   0.00000   0.00000   0.00000   0.00000   0.00000   0.00000   0.00000   0.00000   0.00000
  -0.00002   0.00000  -0.00003   0.00000   0.00000   0.00000   0.00000   0.00000   0.00000   0.00000   0.00000   0.00000   0.00000   0.00000
   0.00000   0.00000   0.00000  -0.00004   0.00000   0.00000   0.00000   0.00000   0.00000   0.00000   0.00000   0.00000   0.00000   0.00000
   0.00000   0.00000   0.00000   0.00000  -0.00003   0.00000   0.00002   0.00000   0.00000   0.00000   0.00000   0.00000   0.00000  -0.00000
   0.00000   0.00000   0.00000   0.00000   0.00000  -0.00001   0.00000   0.00000   0.00000   0.00000   0.00000   0.00000   0.00000   0.00000
   0.00000   0.00000   0.00000   0.00000   0.00002   0.00000  -0.00003   0.00000   0.00000   0.00000   0.00000  -0.00000   0.00000   0.00000

 ---------- LDA+U DATA --------------------------------------------------- 

 ====== For Atom     1, occupations for correlated orbitals. lpawu =   3

 Atom   1. Occ. for lpawu and for spin  1 =   7.11732
 Atom   1. Occ. for lpawu and for spin  2 =   0.00367
 => On atom   1,  local Mag. for lpawu is       -7.113649

 == Occupation matrix for correlated orbitals:

 Occupation matrix for spin  1
     1.01737    0.00000   -0.00092    0.00000    0.00000    0.00000    0.00000
     0.00000    1.01166    0.00000    0.00000    0.00000    0.00000    0.00000
    -0.00092    0.00000    1.01785    0.00000    0.00000    0.00000    0.00000
     0.00000    0.00000    0.00000    1.01666    0.00000    0.00000    0.00000
     0.00000    0.00000    0.00000    0.00000    1.01785    0.00000    0.00092
     0.00000    0.00000    0.00000    0.00000    0.00000    1.01856    0.00000
     0.00000    0.00000    0.00000    0.00000    0.00092    0.00000    1.01737


 Occupation matrix for spin  2
     0.00069    0.00000    0.00030    0.00000    0.00000    0.00000    0.00000
     0.00000    0.00002    0.00000    0.00000    0.00000    0.00000    0.00000
     0.00030    0.00000    0.00053    0.00000    0.00000    0.00000    0.00000
     0.00000    0.00000    0.00000    0.00092    0.00000    0.00000    0.00000
     0.00000    0.00000    0.00000    0.00000    0.00053    0.00000   -0.00030
     0.00000    0.00000    0.00000    0.00000    0.00000    0.00030    0.00000
     0.00000    0.00000    0.00000    0.00000   -0.00030    0.00000    0.00069



================================================================================

 ----iterations are completed or convergence reached----

 Mean square residual over all n,k,spin=   1.1002E-09; max=  4.5705E-08
  -0.2500  0.5000  0.0000    1  6.23673E-10 kpt; spin; max resid(k); each band:
  6.78E-12 1.04E-11 7.41E-12 1.11E-11 1.08E-11 9.12E-11 5.25E-10 1.42E-10
  6.89E-11 4.50E-10 3.55E-10 2.92E-10 4.77E-10 1.39E-10 1.97E-10 2.80E-10
  1.32E-10 6.24E-10 2.93E-10 6.08E-10
  -0.2500  0.0000  0.0000    1  7.49294E-10 kpt; spin; max resid(k); each band:
  4.66E-12 4.66E-12 1.18E-11 1.18E-11 7.10E-12 1.85E-10 7.49E-10 2.33E-11
  2.33E-11 4.98E-10 4.63E-10 4.75E-10 4.75E-10 1.90E-10 4.25E-10 4.25E-10
  1.62E-10 5.07E-10 5.07E-10 1.19E-12
  -0.2500  0.5000  0.0000    2  2.21446E-09 kpt; spin; max resid(k); each band:
  5.77E-11 9.23E-11 1.16E-10 7.13E-11 3.96E-11 1.16E-10 2.17E-09 5.00E-10
  1.68E-10 2.02E-09 1.33E-09 1.12E-09 1.08E-09 1.00E-09 1.24E-09 1.18E-09
  1.13E-09 2.21E-09 1.41E-09 2.07E-09
  -0.2500  0.0000  0.0000    2  4.57051E-08 kpt; spin; max resid(k); each band:
  7.77E-11 7.77E-11 8.42E-11 8.41E-11 4.12E-11 1.50E-10 2.36E-09 8.49E-11
  8.49E-11 2.05E-09 1.09E-09 7.61E-10 7.61E-10 1.33E-09 5.76E-10 5.84E-10
  5.84E-10 1.25E-09 1.27E-09 4.57E-08
 reduced coordinates (array xred) for    2 atoms
       0.000000000000      0.000000000000      0.000000000000
       0.500000000000      0.500000000000      0.500000000000
 rms dE/dt=  0.0000E+00; max dE/dt=  0.0000E+00; dE/dt below (all hartree)
    1       0.000000000000      0.000000000000      0.000000000000
    2       0.000000000000      0.000000000000      0.000000000000

 cartesian coordinates (angstrom) at end:
    1      0.00000000000000     0.00000000000000     0.00000000000000
    2      2.59296832209100     2.59296832209100     2.59296832209100

 cartesian forces (hartree/bohr) at end:
    1     -0.00000000000000    -0.00000000000000    -0.00000000000000
    2     -0.00000000000000    -0.00000000000000    -0.00000000000000
 frms,max,avg= 0.0000000E+00 0.0000000E+00   0.000E+00  0.000E+00  0.000E+00 h/b

 cartesian forces (eV/Angstrom) at end:
    1     -0.00000000000000    -0.00000000000000    -0.00000000000000
    2     -0.00000000000000    -0.00000000000000    -0.00000000000000
 frms,max,avg= 0.0000000E+00 0.0000000E+00   0.000E+00  0.000E+00  0.000E+00 e/A
 length scales=  9.800000000000  9.800000000000  9.800000000000 bohr
              =  5.185936644182  5.185936644182  5.185936644182 angstroms
 prteigrs : about to open file t22o_DS1_EIG
 Fermi (or HOMO) energy (hartree) =   0.26112   Average Vxc (hartree)=  -0.39947
 Eigenvalues (hartree) for nkpt=   2  k points, SPIN UP:
 kpt#   1, nband= 20, wtk=  0.75000, kpt= -0.2500  0.5000  0.0000 (reduced coord)
  -4.53594  -4.53395  -4.53259  -4.53104  -4.52809  -1.19596  -0.46448  -0.42720
  -0.42028  -0.35868   0.10613   0.12706   0.13160   0.21673   0.22610   0.22777
   0.23147   0.23550   0.24179   0.25037
 kpt#   2, nband= 20, wtk=  0.25000, kpt= -0.2500  0.0000  0.0000 (reduced coord)
  -4.53215  -4.53215  -4.52837  -4.52837  -4.52732  -1.19816  -0.45888  -0.41380
  -0.41380  -0.35525   0.10125   0.12999   0.12999   0.22331   0.23365   0.23365
   0.24372   0.25135   0.25135   0.26112
 Eigenvalues (hartree) for nkpt=   2  k points, SPIN DOWN:
 kpt#   1, nband= 20, wtk=  0.75000, kpt= -0.2500  0.5000  0.0000 (reduced coord)
  -4.34109  -4.33909  -4.33770  -4.33616  -4.33328  -1.08379  -0.42830  -0.34749
  -0.33712  -0.31727   0.11489   0.13288   0.13588   0.34215   0.43858   0.50406
   0.52675   0.59240   0.59362   0.61438
 kpt#   2, nband= 20, wtk=  0.25000, kpt= -0.2500  0.0000  0.0000 (reduced coord)
  -4.33731  -4.33731  -4.33347  -4.33347  -4.33251  -1.08674  -0.42601  -0.32873
  -0.32873  -0.30792   0.10865   0.13404   0.13404   0.37393   0.38699   0.43479
   0.43479   0.53451   0.53451   0.61676
 Total charge density [el/Bohr^3]
,     Maximum=    1.6075E+00  at reduced coord.    0.0000    0.0000    0.0000
,Next maximum=    1.5904E+00  at reduced coord.    0.0000    0.0278    0.9722
,     Minimum=    4.7711E-03  at reduced coord.    0.2500    0.2500    0.2500
,Next minimum=    4.7711E-03  at reduced coord.    0.7500    0.7500    0.7500
,  Integrated=    3.3000E+01
 Spin up density      [el/Bohr^3]
,     Maximum=    1.0224E+00  at reduced coord.    0.0000    0.0000    0.0000
,Next maximum=    1.0100E+00  at reduced coord.    0.0000    0.0278    0.9722
,     Minimum=    2.7959E-03  at reduced coord.    0.2500    0.2500    0.2500
,Next minimum=    2.7959E-03  at reduced coord.    0.7500    0.7500    0.7500
,  Integrated=    2.0000E+01
 Spin down density    [el/Bohr^3]
,     Maximum=    5.8506E-01  at reduced coord.    0.0000    0.0000    0.0000
,Next maximum=    5.8037E-01  at reduced coord.    0.0000    0.0278    0.9722
,     Minimum=    1.9752E-03  at reduced coord.    0.2500    0.2500    0.2500
,Next minimum=    1.9752E-03  at reduced coord.    0.7500    0.7500    0.7500
,  Integrated=    1.3000E+01
 Magnetization (spin up - spin down) [el/Bohr^3]
,     Maximum=    4.3736E-01  at reduced coord.    0.0000    0.0000    0.0000
,Next maximum=    4.2966E-01  at reduced coord.    0.0000    0.0278    0.9722
,     Minimum=   -1.5859E-02  at reduced coord.    0.5278    0.4722    0.4444
,Next minimum=   -1.5859E-02  at reduced coord.    0.5556    0.4722    0.4444
,  Integrated=    7.0000E+00
 Relative magnetization (=zeta, between -1 and 1)
,     Maximum=    3.2725E-01  at reduced coord.    0.1389    0.8333    0.9167
,Next maximum=    3.2725E-01  at reduced coord.    0.1111    0.8333    0.9167
,     Minimum=   -1.8634E-02  at reduced coord.    0.5556    0.4444    0.4444
,Next minimum=   -1.8634E-02  at reduced coord.    0.4444    0.5556    0.4444

--------------------------------------------------------------------------------
 Components of total free energy (in Hartree) :

    Kinetic energy  =  3.44080761791027E+01
    Hartree energy  =  6.47445936829426E+01
    XC energy       = -9.59687798786522E+00
    Ewald energy    = -1.96963925581001E+02
    PspCore energy  =  1.33423163662638E+01
    Loc. psp. energy= -1.70544951708089E+02
    Spherical terms = -1.06491366403920E+02
    >>>>>>>>> Etotal= -3.71102135452566E+02

 "Double-counting" decomposition of free energy:
    Band energy     = -4.73145885353549E+01
    Ewald energy    = -1.96963925581001E+02
    PspCore energy  =  1.33423163662638E+01
    Dble-C XC-energy= -6.17650599233326E+01
    Spherical terms = -7.84007488693074E+01
    >>>> Etotal (DC)= -3.71102006542732E+02

  >Total energy in eV           = -1.00982026590655E+04
  >Total DC energy in eV        = -1.00981991512505E+04
--------------------------------------------------------------------------------

 Cartesian components of stress tensor (hartree/bohr^3)
  sigma(1 1)=  1.64468629E-02  sigma(3 2)=  0.00000000E+00
  sigma(2 2)=  1.64468629E-02  sigma(3 1)=  0.00000000E+00
  sigma(3 3)=  1.64468629E-02  sigma(2 1)=  0.00000000E+00

-Cartesian components of stress tensor (GPa)         [Pressure= -4.8388E+02 GPa]
- sigma(1 1)=  4.83883330E+02  sigma(3 2)=  0.00000000E+00
- sigma(2 2)=  4.83883330E+02  sigma(3 1)=  0.00000000E+00
- sigma(3 3)=  4.83883330E+02  sigma(2 1)=  0.00000000E+00

================================================================================
== DATASET  2 ==================================================================
-   nproc =    1

 mkfilename : getwfk/=0, take file _WFK from output of DATASET   1.

 Exchange-correlation functional for the present dataset will be:
  LDA: Perdew-Wang 92 LSD fit to Ceperley-Alder data - ixc=7
 Citation for XC functional:
  J.P.Perdew and Y.Wang, PRB 45, 13244 (1992)

 Real(R)+Recip(G) space primitive vectors, cartesian coordinates (Bohr,Bohr^-1):
 R(1)=  0.0000000  4.9000000  4.9000000  G(1)= -0.1020408  0.1020408  0.1020408
 R(2)=  4.9000000  0.0000000  4.9000000  G(2)=  0.1020408 -0.1020408  0.1020408
 R(3)=  4.9000000  4.9000000  0.0000000  G(3)=  0.1020408  0.1020408 -0.1020408
 Unit cell volume ucvol=  2.3529800E+02 bohr^3
 Angles (23,13,12)=  6.00000000E+01  6.00000000E+01  6.00000000E+01 degrees

 Coarse grid specifications (used for wave-functions):

 getcut: wavevector=  0.0000  0.0000  0.0000  ngfft=  27  27  27
         ecut(hartree)=     15.000   => boxcut(ratio)=   2.15523

 Fine grid specifications (used for densities):

 getcut: wavevector=  0.0000  0.0000  0.0000  ngfft=  36  36  36
         ecut(hartree)=     30.000   => boxcut(ratio)=   2.10701
--------------------------------------------------------------------------------

-inwffil : will read wavefunctions from disk file t22o_DS1_WFK
P newkpt: treating     20 bands with npw=     655 for ikpt=   1 by node    0
P newkpt: treating     20 bands with npw=     640 for ikpt=   2 by node    0
P newkpt: treating     20 bands with npw=     655 for ikpt=   1 by node    0
P newkpt: treating     20 bands with npw=     640 for ikpt=   2 by node    0

_setup2: Arith. and geom. avg. npw (full set) are     651.250     651.217


 ******************************************
 LDA+U Method used: FLL
 ******************************************

================================================================================

     iter   Etot(hartree)     deltaE(h) residm    nres2    magn
 ETOT  1  -371.10200656517    -3.71E+02 3.58E-09 2.69E-06 7.000
 ETOT  2  -371.10200657372    -8.56E-09 1.39E-09 5.93E-06 7.000
 ETOT  3  -371.10200655282     2.09E-08 3.50E-09 1.40E-08 7.000

 Cartesian components of stress tensor (hartree/bohr^3)
  sigma(1 1)=  1.64458007E-02  sigma(3 2)=  0.00000000E+00
  sigma(2 2)=  1.64458007E-02  sigma(3 1)=  0.00000000E+00
  sigma(3 3)=  1.64458007E-02  sigma(2 1)=  0.00000000E+00


 scprqt:  WARNING -
  nstep=    3 was not enough SCF cycles to converge;
  density residual=  1.399E-08 exceeds tolvrs=  1.000E-15


 PAW TEST:
 ==== Compensation charge inside spheres ============
 The following values must be close to each other ...
 Compensation charge over spherical meshes =     14.319927182884973
 Compensation charge over fine fft grid    =     14.319919164121687

 ==== Results concerning PAW augmentation regions ====

 Total pseudopotential strength Dij (hartree):
 Atom #  1 - Spin component 1
   1.05652  -0.44581  -2.47468   0.00000   0.00000   0.00000   0.00000   0.00000   0.00000   0.00000   0.00000   0.00000 ...
  -0.44581   0.19344  -0.17185   0.00000   0.00000   0.00000   0.00000   0.00000   0.00000   0.00000   0.00000   0.00000 ...
  -2.47468  -0.17185  13.60718   0.00000   0.00000   0.00000   0.00000   0.00000   0.00000   0.00000   0.00000   0.00000 ...
   0.00000   0.00000   0.00000   0.16041   0.00000   0.00000  -0.18360   0.00000   0.00000   0.00000   0.00000   0.00000 ...
   0.00000   0.00000   0.00000   0.00000   0.16041   0.00000   0.00000  -0.18360   0.00000   0.00000   0.00000   0.00000 ...
   0.00000   0.00000   0.00000   0.00000   0.00000   0.16041   0.00000   0.00000  -0.18360   0.00000   0.00000   0.00000 ...
   0.00000   0.00000   0.00000  -0.18360   0.00000   0.00000   7.95535   0.00000   0.00000   0.00000   0.00000   0.00000 ...
   0.00000   0.00000   0.00000   0.00000  -0.18360   0.00000   0.00000   7.95535   0.00000   0.00000   0.00000   0.00000 ...
   0.00000   0.00000   0.00000   0.00000   0.00000  -0.18360   0.00000   0.00000   7.95535   0.00000   0.00000   0.00000 ...
   0.00000   0.00000   0.00000   0.00000   0.00000   0.00000   0.00000   0.00000   0.00000  -4.80688   0.00000   0.00000 ...
   0.00000   0.00000   0.00000   0.00000   0.00000   0.00000   0.00000   0.00000   0.00000   0.00000  -4.80688   0.00000 ...
   0.00000   0.00000   0.00000   0.00000   0.00000   0.00000   0.00000   0.00000   0.00000   0.00000   0.00000  -4.80642 ...
   ...  only 12  components have been written...
 Atom #  1 - Spin component 2
   1.08058  -0.45440  -2.21207   0.00000   0.00000   0.00000   0.00000   0.00000   0.00000   0.00000   0.00000   0.00000 ...
  -0.45440   0.19621  -0.24829   0.00000   0.00000   0.00000   0.00000   0.00000   0.00000   0.00000   0.00000   0.00000 ...
  -2.21207  -0.24829  13.65828   0.00000   0.00000   0.00000   0.00000   0.00000   0.00000   0.00000   0.00000   0.00000 ...
   0.00000   0.00000   0.00000   0.19014   0.00000   0.00000  -0.32068   0.00000   0.00000   0.00000   0.00000   0.00000 ...
   0.00000   0.00000   0.00000   0.00000   0.19014   0.00000   0.00000  -0.32068   0.00000   0.00000   0.00000   0.00000 ...
   0.00000   0.00000   0.00000   0.00000   0.00000   0.19014   0.00000   0.00000  -0.32068   0.00000   0.00000   0.00000 ...
   0.00000   0.00000   0.00000  -0.32068   0.00000   0.00000   8.28536   0.00000   0.00000   0.00000   0.00000   0.00000 ...
   0.00000   0.00000   0.00000   0.00000  -0.32068   0.00000   0.00000   8.28536   0.00000   0.00000   0.00000   0.00000 ...
   0.00000   0.00000   0.00000   0.00000   0.00000  -0.32068   0.00000   0.00000   8.28536   0.00000   0.00000   0.00000 ...
   0.00000   0.00000   0.00000   0.00000   0.00000   0.00000   0.00000   0.00000   0.00000  -4.62340   0.00000   0.00000 ...
   0.00000   0.00000   0.00000   0.00000   0.00000   0.00000   0.00000   0.00000   0.00000   0.00000  -4.62340   0.00000 ...
   0.00000   0.00000   0.00000   0.00000   0.00000   0.00000   0.00000   0.00000   0.00000   0.00000   0.00000  -4.62299 ...
   ...  only 12  components have been written...
 Atom #  2 - Spin component 1
  -0.02046  -0.05622  -0.00379   0.00000   0.00000   0.00000   0.00000   0.00000   0.00000   0.00000   0.00000   0.00000
  -0.05622  -1.63442   0.00150   0.00000   0.00000   0.00000   0.00000   0.00000   0.00000   0.00000   0.00000   0.00000
  -0.00379   0.00150   0.26964   0.00000   0.00000   0.00000   0.00000   0.00000   0.00000   0.00000   0.00000   0.00000
   0.00000   0.00000   0.00000  -0.73682   0.00000   0.00000   1.98717   0.00000   0.00000   0.61412   0.00000   0.00000
   0.00000   0.00000   0.00000   0.00000  -0.73682   0.00000   0.00000   1.98717   0.00000   0.00000   0.61412   0.00000
   0.00000   0.00000   0.00000   0.00000   0.00000  -0.73682   0.00000   0.00000   1.98717   0.00000   0.00000   0.61412
   0.00000   0.00000   0.00000   1.98717   0.00000   0.00000  -3.37101   0.00000   0.00000  -1.49274   0.00000   0.00000
   0.00000   0.00000   0.00000   0.00000   1.98717   0.00000   0.00000  -3.37101   0.00000   0.00000  -1.49274   0.00000
   0.00000   0.00000   0.00000   0.00000   0.00000   1.98717   0.00000   0.00000  -3.37101   0.00000   0.00000  -1.49274
   0.00000   0.00000   0.00000   0.61412   0.00000   0.00000  -1.49274   0.00000   0.00000  -1.87252   0.00000   0.00000
   0.00000   0.00000   0.00000   0.00000   0.61412   0.00000   0.00000  -1.49274   0.00000   0.00000  -1.87252   0.00000
   0.00000   0.00000   0.00000   0.00000   0.00000   0.61412   0.00000   0.00000  -1.49274   0.00000   0.00000  -1.87252
 Atom #  2 - Spin component 2
  -0.02009  -0.05253  -0.00420   0.00000   0.00000   0.00000   0.00000   0.00000   0.00000   0.00000   0.00000   0.00000
  -0.05253  -1.59833  -0.00266   0.00000   0.00000   0.00000   0.00000   0.00000   0.00000   0.00000   0.00000   0.00000
  -0.00420  -0.00266   0.27000   0.00000   0.00000   0.00000   0.00000   0.00000   0.00000   0.00000   0.00000   0.00000
   0.00000   0.00000   0.00000  -0.73793   0.00000   0.00000   1.99183   0.00000   0.00000   0.61505   0.00000   0.00000
   0.00000   0.00000   0.00000   0.00000  -0.73793   0.00000   0.00000   1.99183   0.00000   0.00000   0.61505   0.00000
   0.00000   0.00000   0.00000   0.00000   0.00000  -0.73793   0.00000   0.00000   1.99183   0.00000   0.00000   0.61505
   0.00000   0.00000   0.00000   1.99183   0.00000   0.00000  -3.39030   0.00000   0.00000  -1.49706   0.00000   0.00000
   0.00000   0.00000   0.00000   0.00000   1.99183   0.00000   0.00000  -3.39030   0.00000   0.00000  -1.49706   0.00000
   0.00000   0.00000   0.00000   0.00000   0.00000   1.99183   0.00000   0.00000  -3.39030   0.00000   0.00000  -1.49706
   0.00000   0.00000   0.00000   0.61505   0.00000   0.00000  -1.49706   0.00000   0.00000  -1.87322   0.00000   0.00000
   0.00000   0.00000   0.00000   0.00000   0.61505   0.00000   0.00000  -1.49706   0.00000   0.00000  -1.87322   0.00000
   0.00000   0.00000   0.00000   0.00000   0.00000   0.61505   0.00000   0.00000  -1.49706   0.00000   0.00000  -1.87322


 Augmentation waves occupancies Rhoij:
 Atom #  1 - Spin component 1
   1.00482   0.00507   0.00501   0.00000   0.00000   0.00000   0.00000   0.00000   0.00000   0.00000   0.00000   0.00000 ...
   0.00507   0.21305   0.00183   0.00000   0.00000   0.00000   0.00000   0.00000   0.00000   0.00000   0.00000   0.00000 ...
   0.00501   0.00183   0.00004   0.00000   0.00000   0.00000   0.00000   0.00000   0.00000   0.00000   0.00000   0.00000 ...
   0.00000   0.00000   0.00000   1.00490   0.00000   0.00000  -0.00465   0.00000   0.00000   0.00000   0.00000   0.00000 ...
   0.00000   0.00000   0.00000   0.00000   1.00490   0.00000   0.00000  -0.00465   0.00000   0.00000   0.00000   0.00000 ...
   0.00000   0.00000   0.00000   0.00000   0.00000   1.00490   0.00000   0.00000  -0.00465   0.00000   0.00000   0.00000 ...
   0.00000   0.00000   0.00000  -0.00465   0.00000   0.00000   0.00036   0.00000   0.00000   0.00000   0.00000   0.00000 ...
   0.00000   0.00000   0.00000   0.00000  -0.00465   0.00000   0.00000   0.00036   0.00000   0.00000   0.00000   0.00000 ...
   0.00000   0.00000   0.00000   0.00000   0.00000  -0.00465   0.00000   0.00000   0.00036   0.00000   0.00000   0.00000 ...
   0.00000   0.00000   0.00000   0.00000   0.00000   0.00000   0.00000   0.00000   0.00000   0.99859   0.00000   0.00000 ...
   0.00000   0.00000   0.00000   0.00000   0.00000   0.00000   0.00000   0.00000   0.00000   0.00000   0.99859   0.00000 ...
   0.00000   0.00000   0.00000   0.00000   0.00000   0.00000   0.00000   0.00000   0.00000   0.00000   0.00000   0.99864 ...
   ...  only 12  components have been written...
 Atom #  1 - Spin component 2
   1.00742   0.04293   0.00104   0.00000   0.00000   0.00000   0.00000   0.00000   0.00000   0.00000   0.00000   0.00000 ...
   0.04293   0.18790   0.00227   0.00000   0.00000   0.00000   0.00000   0.00000   0.00000   0.00000   0.00000   0.00000 ...
   0.00104   0.00227   0.00003   0.00000   0.00000   0.00000   0.00000   0.00000   0.00000   0.00000   0.00000   0.00000 ...
   0.00000   0.00000   0.00000   0.97729   0.00000   0.00000   0.00459   0.00000   0.00000   0.00000   0.00000   0.00000 ...
   0.00000   0.00000   0.00000   0.00000   0.97729   0.00000   0.00000   0.00459   0.00000   0.00000   0.00000   0.00000 ...
   0.00000   0.00000   0.00000   0.00000   0.00000   0.97729   0.00000   0.00000   0.00459   0.00000   0.00000   0.00000 ...
   0.00000   0.00000   0.00000   0.00459   0.00000   0.00000   0.00029   0.00000   0.00000   0.00000   0.00000   0.00000 ...
   0.00000   0.00000   0.00000   0.00000   0.00459   0.00000   0.00000   0.00029   0.00000   0.00000   0.00000   0.00000 ...
   0.00000   0.00000   0.00000   0.00000   0.00000   0.00459   0.00000   0.00000   0.00029   0.00000   0.00000   0.00000 ...
   0.00000   0.00000   0.00000   0.00000   0.00000   0.00000   0.00000   0.00000   0.00000   0.99859   0.00000   0.00000 ...
   0.00000   0.00000   0.00000   0.00000   0.00000   0.00000   0.00000   0.00000   0.00000   0.00000   0.99859   0.00000 ...
   0.00000   0.00000   0.00000   0.00000   0.00000   0.00000   0.00000   0.00000   0.00000   0.00000   0.00000   0.99864 ...
   ...  only 12  components have been written...
 Atom #  2 - Spin component 1
   0.85948   0.00299   0.01740   0.00000   0.00000   0.00000   0.00000   0.00000   0.00000   0.00000   0.00000   0.00000
   0.00299   0.00192   0.00475   0.00000   0.00000   0.00000   0.00000   0.00000   0.00000   0.00000   0.00000   0.00000
   0.01740   0.00475   0.01197   0.00000   0.00000   0.00000   0.00000   0.00000   0.00000   0.00000   0.00000   0.00000
   0.00000   0.00000   0.00000   0.75978   0.00000   0.00000   0.00454   0.00000   0.00000   0.03078   0.00000   0.00000
   0.00000   0.00000   0.00000   0.00000   0.75978   0.00000   0.00000   0.00454   0.00000   0.00000   0.03078   0.00000
   0.00000   0.00000   0.00000   0.00000   0.00000   0.75978   0.00000   0.00000   0.00454   0.00000   0.00000   0.03078
   0.00000   0.00000   0.00000   0.00454   0.00000   0.00000   0.00006   0.00000   0.00000   0.00017   0.00000   0.00000
   0.00000   0.00000   0.00000   0.00000   0.00454   0.00000   0.00000   0.00006   0.00000   0.00000   0.00017   0.00000
   0.00000   0.00000   0.00000   0.00000   0.00000   0.00454   0.00000   0.00000   0.00006   0.00000   0.00000   0.00017
   0.00000   0.00000   0.00000   0.03078   0.00000   0.00000   0.00017   0.00000   0.00000   0.00128   0.00000   0.00000
   0.00000   0.00000   0.00000   0.00000   0.03078   0.00000   0.00000   0.00017   0.00000   0.00000   0.00128   0.00000
   0.00000   0.00000   0.00000   0.00000   0.00000   0.03078   0.00000   0.00000   0.00017   0.00000   0.00000   0.00128
 Atom #  2 - Spin component 2
   0.81184   0.01175   0.03790   0.00000   0.00000   0.00000   0.00000   0.00000   0.00000   0.00000   0.00000   0.00000
   0.01175   0.00056   0.00142   0.00000   0.00000   0.00000   0.00000   0.00000   0.00000   0.00000   0.00000   0.00000
   0.03790   0.00142   0.00385   0.00000   0.00000   0.00000   0.00000   0.00000   0.00000   0.00000   0.00000   0.00000
   0.00000   0.00000   0.00000   0.79210   0.00000   0.00000   0.00372   0.00000   0.00000   0.03248   0.00000   0.00000
   0.00000   0.00000   0.00000   0.00000   0.79210   0.00000   0.00000   0.00372   0.00000   0.00000   0.03248   0.00000
   0.00000   0.00000   0.00000   0.00000   0.00000   0.79210   0.00000   0.00000   0.00372   0.00000   0.00000   0.03248
   0.00000   0.00000   0.00000   0.00372   0.00000   0.00000   0.00004   0.00000   0.00000   0.00014   0.00000   0.00000
   0.00000   0.00000   0.00000   0.00000   0.00372   0.00000   0.00000   0.00004   0.00000   0.00000   0.00014   0.00000
   0.00000   0.00000   0.00000   0.00000   0.00000   0.00372   0.00000   0.00000   0.00004   0.00000   0.00000   0.00014
   0.00000   0.00000   0.00000   0.03248   0.00000   0.00000   0.00014   0.00000   0.00000   0.00134   0.00000   0.00000
   0.00000   0.00000   0.00000   0.00000   0.03248   0.00000   0.00000   0.00014   0.00000   0.00000   0.00134   0.00000
   0.00000   0.00000   0.00000   0.00000   0.00000   0.03248   0.00000   0.00000   0.00014   0.00000   0.00000   0.00134

 "PAW+U" part of augmentation waves occupancies Rhoij:
 Atom #  1 - L=3 ONLY - Spin component 1
   1.03180   0.00000  -0.00075   0.00000   0.00000   0.00000   0.00000  -0.00488   0.00000   0.00014   0.00000   0.00000   0.00000   0.00000
   0.00000   1.02556   0.00000   0.00000   0.00000   0.00000   0.00000   0.00000  -0.00519   0.00000   0.00000   0.00000   0.00000   0.00000
  -0.00075   0.00000   1.03218   0.00000   0.00000   0.00000   0.00000   0.00014   0.00000  -0.00495   0.00000   0.00000   0.00000   0.00000
   0.00000   0.00000   0.00000   1.03122   0.00000   0.00000   0.00000   0.00000   0.00000   0.00000  -0.00477   0.00000   0.00000   0.00000
   0.00000   0.00000   0.00000   0.00000   1.03218   0.00000   0.00075   0.00000   0.00000   0.00000   0.00000  -0.00495   0.00000  -0.00014
   0.00000   0.00000   0.00000   0.00000   0.00000   1.03277   0.00000   0.00000   0.00000   0.00000   0.00000   0.00000  -0.00506   0.00000
   0.00000   0.00000   0.00000   0.00000   0.00075   0.00000   1.03180   0.00000   0.00000   0.00000   0.00000  -0.00014   0.00000  -0.00488
  -0.00488   0.00000   0.00014   0.00000   0.00000   0.00000   0.00000   0.00003   0.00000  -0.00000   0.00000   0.00000   0.00000   0.00000
   0.00000  -0.00519   0.00000   0.00000   0.00000   0.00000   0.00000   0.00000   0.00003   0.00000   0.00000   0.00000   0.00000   0.00000
   0.00014   0.00000  -0.00495   0.00000   0.00000   0.00000   0.00000  -0.00000   0.00000   0.00003   0.00000   0.00000   0.00000   0.00000
   0.00000   0.00000   0.00000  -0.00477   0.00000   0.00000   0.00000   0.00000   0.00000   0.00000   0.00003   0.00000   0.00000   0.00000
   0.00000   0.00000   0.00000   0.00000  -0.00495   0.00000  -0.00014   0.00000   0.00000   0.00000   0.00000   0.00003   0.00000   0.00000
   0.00000   0.00000   0.00000   0.00000   0.00000  -0.00506   0.00000   0.00000   0.00000   0.00000   0.00000   0.00000   0.00003   0.00000
   0.00000   0.00000   0.00000   0.00000  -0.00014   0.00000  -0.00488   0.00000   0.00000   0.00000   0.00000   0.00000   0.00000   0.00003
 Atom #  1 - L=3 ONLY - Spin component 2
   0.00056   0.00000   0.00025   0.00000   0.00000   0.00000   0.00000  -0.00003   0.00000  -0.00002   0.00000   0.00000   0.00000   0.00000
   0.00000   0.00002   0.00000   0.00000   0.00000   0.00000   0.00000   0.00000  -0.00000   0.00000   0.00000   0.00000   0.00000   0.00000
   0.00025   0.00000   0.00043   0.00000   0.00000   0.00000   0.00000  -0.00002   0.00000  -0.00003   0.00000   0.00000   0.00000   0.00000
   0.00000   0.00000   0.00000   0.00075   0.00000   0.00000   0.00000   0.00000   0.00000   0.00000  -0.00004   0.00000   0.00000   0.00000
   0.00000   0.00000   0.00000   0.00000   0.00043   0.00000  -0.00025   0.00000   0.00000   0.00000   0.00000  -0.00003   0.00000   0.00002
   0.00000   0.00000   0.00000   0.00000   0.00000   0.00024   0.00000   0.00000   0.00000   0.00000   0.00000   0.00000  -0.00001   0.00000
   0.00000   0.00000   0.00000   0.00000  -0.00025   0.00000   0.00056   0.00000   0.00000   0.00000   0.00000   0.00002   0.00000  -0.00003
  -0.00003   0.00000  -0.00002   0.00000   0.00000   0.00000   0.00000   0.00000   0.00000   0.00000   0.00000   0.00000   0.00000   0.00000
   0.00000  -0.00000   0.00000   0.00000   0.00000   0.00000   0.00000   0.00000   0.00000   0.00000   0.00000   0.00000   0.00000   0.00000
  -0.00002   0.00000  -0.00003   0.00000   0.00000   0.00000   0.00000   0.00000   0.00000   0.00000   0.00000   0.00000   0.00000   0.00000
   0.00000   0.00000   0.00000  -0.00004   0.00000   0.00000   0.00000   0.00000   0.00000   0.00000   0.00000   0.00000   0.00000   0.00000
   0.00000   0.00000   0.00000   0.00000  -0.00003   0.00000   0.00002   0.00000   0.00000   0.00000   0.00000   0.00000   0.00000  -0.00000
   0.00000   0.00000   0.00000   0.00000   0.00000  -0.00001   0.00000   0.00000   0.00000   0.00000   0.00000   0.00000   0.00000   0.00000
   0.00000   0.00000   0.00000   0.00000   0.00002   0.00000  -0.00003   0.00000   0.00000   0.00000   0.00000  -0.00000   0.00000   0.00000

 ---------- LDA+U DATA --------------------------------------------------- 

 ====== For Atom     1, occupations for correlated orbitals. lpawu =   3

 Atom   1. Occ. for lpawu and for spin  1 =   7.11727
 Atom   1. Occ. for lpawu and for spin  2 =   0.00367
 => On atom   1,  local Mag. for lpawu is       -7.113604

 == Occupation matrix for correlated orbitals:

 Occupation matrix for spin  1
     1.01737    0.00000   -0.00091    0.00000    0.00000    0.00000    0.00000
     0.00000    1.01164    0.00000    0.00000    0.00000    0.00000    0.00000
    -0.00091    0.00000    1.01784    0.00000    0.00000    0.00000    0.00000
     0.00000    0.00000    0.00000    1.01666    0.00000    0.00000    0.00000
     0.00000    0.00000    0.00000    0.00000    1.01784    0.00000    0.00091
     0.00000    0.00000    0.00000    0.00000    0.00000    1.01855    0.00000
     0.00000    0.00000    0.00000    0.00000    0.00091    0.00000    1.01737


 Occupation matrix for spin  2
     0.00069    0.00000    0.00030    0.00000    0.00000    0.00000    0.00000
     0.00000    0.00002    0.00000    0.00000    0.00000    0.00000    0.00000
     0.00030    0.00000    0.00053    0.00000    0.00000    0.00000    0.00000
     0.00000    0.00000    0.00000    0.00092    0.00000    0.00000    0.00000
     0.00000    0.00000    0.00000    0.00000    0.00053    0.00000   -0.00030
     0.00000    0.00000    0.00000    0.00000    0.00000    0.00030    0.00000
     0.00000    0.00000    0.00000    0.00000   -0.00030    0.00000    0.00069



================================================================================

 ----iterations are completed or convergence reached----

 Mean square residual over all n,k,spin=   5.9911E-10; max=  3.5039E-09
  -0.2500  0.5000  0.0000    1  1.16660E-09 kpt; spin; max resid(k); each band:
  5.52E-12 1.06E-11 5.21E-12 1.35E-11 1.58E-11 2.51E-11 1.17E-09 1.06E-10
  4.70E-11 8.00E-10 1.08E-09 9.95E-10 1.07E-09 1.39E-11 9.49E-11 9.42E-10
  2.24E-10 1.53E-11 1.55E-10 4.18E-10
  -0.2500  0.0000  0.0000    1  1.86526E-09 kpt; spin; max resid(k); each band:
  3.51E-12 3.51E-12 1.56E-11 1.56E-11 1.17E-11 4.25E-11 1.24E-09 2.15E-11
  2.15E-11 8.70E-10 1.53E-09 1.87E-09 1.87E-09 1.22E-10 5.50E-10 5.50E-10
  3.69E-10 3.30E-10 3.30E-10 1.05E-12
  -0.2500  0.5000  0.0000    2  3.50389E-09 kpt; spin; max resid(k); each band:
  8.53E-11 1.79E-10 2.47E-10 1.17E-10 9.09E-11 6.04E-11 1.20E-09 1.95E-10
  9.32E-11 1.15E-09 6.26E-10 7.58E-10 6.90E-10 1.03E-09 1.08E-09 1.30E-09
  1.50E-09 3.50E-09 2.56E-09 8.30E-10
  -0.2500  0.0000  0.0000    2  1.68480E-09 kpt; spin; max resid(k); each band:
  1.41E-10 1.41E-10 1.58E-10 1.58E-10 1.16E-10 9.85E-11 1.07E-09 4.20E-11
  4.20E-11 1.05E-09 5.17E-10 5.70E-10 5.70E-10 9.39E-10 8.03E-10 1.38E-09
  1.38E-09 1.68E-09 1.68E-09 1.11E-09
 reduced coordinates (array xred) for    2 atoms
       0.000000000000      0.000000000000      0.000000000000
       0.500000000000      0.500000000000      0.500000000000
 rms dE/dt=  0.0000E+00; max dE/dt=  0.0000E+00; dE/dt below (all hartree)
    1       0.000000000000      0.000000000000      0.000000000000
    2       0.000000000000      0.000000000000      0.000000000000

 cartesian coordinates (angstrom) at end:
    1      0.00000000000000     0.00000000000000     0.00000000000000
    2      2.59296832209100     2.59296832209100     2.59296832209100

 cartesian forces (hartree/bohr) at end:
    1     -0.00000000000000    -0.00000000000000    -0.00000000000000
    2     -0.00000000000000    -0.00000000000000    -0.00000000000000
 frms,max,avg= 0.0000000E+00 0.0000000E+00   0.000E+00  0.000E+00  0.000E+00 h/b

 cartesian forces (eV/Angstrom) at end:
    1     -0.00000000000000    -0.00000000000000    -0.00000000000000
    2     -0.00000000000000    -0.00000000000000    -0.00000000000000
 frms,max,avg= 0.0000000E+00 0.0000000E+00   0.000E+00  0.000E+00  0.000E+00 e/A
 length scales=  9.800000000000  9.800000000000  9.800000000000 bohr
              =  5.185936644182  5.185936644182  5.185936644182 angstroms
 prteigrs : about to open file t22o_DS2_EIG
 Fermi (or HOMO) energy (hartree) =   0.14111   Average Vxc (hartree)=  -0.39947
 Magnetization (Bohr magneton)=  7.00000000E+00
 Total spin up =  2.00000000E+01   Total spin down =  1.30000000E+01
 Eigenvalues (hartree) for nkpt=   2  k points, SPIN UP:
 kpt#   1, nband= 20, wtk=  0.75000, kpt= -0.2500  0.5000  0.0000 (reduced coord)
  -4.53593  -4.53393  -4.53257  -4.53103  -4.52808  -1.19595  -0.46448  -0.42719
  -0.42028  -0.35868   0.10613   0.12706   0.13160   0.21676   0.22612   0.22777
   0.23147   0.23551   0.24183   0.25039
      occupation numbers for kpt#   1
   1.00000   1.00000   1.00000   1.00000   1.00000   1.00000   1.00000   1.00000
   1.00000   1.00000   1.00000   1.00000   1.00000   1.00000   1.00000   1.00000
   1.00000   1.00000   1.00000   1.00000
 kpt#   2, nband= 20, wtk=  0.25000, kpt= -0.2500  0.0000  0.0000 (reduced coord)
  -4.53214  -4.53214  -4.52835  -4.52835  -4.52730  -1.19815  -0.45888  -0.41379
  -0.41379  -0.35525   0.10124   0.12998   0.12998   0.22334   0.23366   0.23366
   0.24372   0.25136   0.25136   0.26115
      occupation numbers for kpt#   2
   1.00000   1.00000   1.00000   1.00000   1.00000   1.00000   1.00000   1.00000
   1.00000   1.00000   1.00000   1.00000   1.00000   1.00000   1.00000   1.00000
   1.00000   1.00000   1.00000   1.00000
 Eigenvalues (hartree) for nkpt=   2  k points, SPIN DOWN:
 kpt#   1, nband= 20, wtk=  0.75000, kpt= -0.2500  0.5000  0.0000 (reduced coord)
  -4.34107  -4.33907  -4.33768  -4.33614  -4.33326  -1.08378  -0.42832  -0.34749
  -0.33711  -0.31727   0.11488   0.13287   0.13586   0.34216   0.43859   0.50406
   0.52676   0.59241   0.59362   0.61439
      occupation numbers for kpt#   1
   1.00000   1.00000   1.00000   1.00000   1.00000   1.00000   1.00000   1.00000
   1.00000   1.00000   1.00000   1.00000   1.00000   0.00000   0.00000   0.00000
   0.00000   0.00000   0.00000   0.00000
 kpt#   2, nband= 20, wtk=  0.25000, kpt= -0.2500  0.0000  0.0000 (reduced coord)
  -4.33730  -4.33730  -4.33345  -4.33345  -4.33249  -1.08673  -0.42603  -0.32872
  -0.32872  -0.30792   0.10863   0.13402   0.13402   0.37393   0.38700   0.43480
   0.43480   0.53452   0.53452   0.61677
      occupation numbers for kpt#   2
   1.00000   1.00000   1.00000   1.00000   1.00000   1.00000   1.00000   1.00000
   1.00000   1.00000   1.00000   1.00000   1.00000   0.00000   0.00000   0.00000
   0.00000   0.00000   0.00000   0.00000
 Total charge density [el/Bohr^3]
,     Maximum=    1.6075E+00  at reduced coord.    0.0000    0.0000    0.0000
,Next maximum=    1.5904E+00  at reduced coord.    0.0000    0.0278    0.9722
,     Minimum=    4.7712E-03  at reduced coord.    0.2500    0.2500    0.2500
,Next minimum=    4.7712E-03  at reduced coord.    0.7500    0.7500    0.7500
,  Integrated=    3.3000E+01
 Spin up density      [el/Bohr^3]
,     Maximum=    1.0224E+00  at reduced coord.    0.0000    0.0000    0.0000
,Next maximum=    1.0100E+00  at reduced coord.    0.0000    0.0278    0.9722
,     Minimum=    2.7964E-03  at reduced coord.    0.2500    0.2500    0.2500
,Next minimum=    2.7964E-03  at reduced coord.    0.7500    0.7500    0.7500
,  Integrated=    2.0000E+01
 Spin down density    [el/Bohr^3]
,     Maximum=    5.8505E-01  at reduced coord.    0.0000    0.0000    0.0000
,Next maximum=    5.8037E-01  at reduced coord.    0.0000    0.0278    0.9722
,     Minimum=    1.9747E-03  at reduced coord.    0.2500    0.2500    0.2500
,Next minimum=    1.9747E-03  at reduced coord.    0.7500    0.7500    0.7500
,  Integrated=    1.3000E+01
 Magnetization (spin up - spin down) [el/Bohr^3]
,     Maximum=    4.3735E-01  at reduced coord.    0.0000    0.0000    0.0000
,Next maximum=    4.2965E-01  at reduced coord.    0.0000    0.0278    0.9722
,     Minimum=   -1.5891E-02  at reduced coord.    0.5278    0.4722    0.4444
,Next minimum=   -1.5891E-02  at reduced coord.    0.5556    0.4722    0.4444
,  Integrated=    7.0000E+00
 Relative magnetization (=zeta, between -1 and 1)
,     Maximum=    3.2725E-01  at reduced coord.    0.1389    0.8333    0.9167
,Next maximum=    3.2725E-01  at reduced coord.    0.1111    0.8333    0.9167
,     Minimum=   -1.8668E-02  at reduced coord.    0.5556    0.4444    0.4444
,Next minimum=   -1.8668E-02  at reduced coord.    0.4444    0.5556    0.4444

--------------------------------------------------------------------------------
 Components of total free energy (in Hartree) :

    Kinetic energy  =  3.44081884032593E+01
    Hartree energy  =  6.47447541181820E+01
    XC energy       = -9.59693638567104E+00
    Ewald energy    = -1.96963925581001E+02
    PspCore energy  =  1.33423163662638E+01
    Loc. psp. energy= -1.70545233387941E+02
    Spherical terms = -1.06491154143244E+02
    >>>>> Internal E= -3.71101990610153E+02

    -kT*entropy     = -5.66517081179375E-16
    >>>>>>>>> Etotal= -3.71101990610153E+02

 "Double-counting" decomposition of free energy:
    Band energy     = -4.73143290190173E+01
    Ewald energy    = -1.96963925581001E+02
    PspCore energy  =  1.33423163662638E+01
    Dble-C XC-energy= -6.17652016612081E+01
    Spherical terms = -7.84008666578529E+01
    >>>>> Internal E= -3.71102006552816E+02

    -kT*entropy     = -5.66517081179375E-16
    >>>> Etotal (DC)= -3.71102006552816E+02

  >Total energy in eV           = -1.00981987177030E+04
  >Total DC energy in eV        = -1.00981991515249E+04
--------------------------------------------------------------------------------

 Cartesian components of stress tensor (hartree/bohr^3)
  sigma(1 1)=  1.64458007E-02  sigma(3 2)=  0.00000000E+00
  sigma(2 2)=  1.64458007E-02  sigma(3 1)=  0.00000000E+00
  sigma(3 3)=  1.64458007E-02  sigma(2 1)=  0.00000000E+00

-Cartesian components of stress tensor (GPa)         [Pressure= -4.8385E+02 GPa]
- sigma(1 1)=  4.83852080E+02  sigma(3 2)=  0.00000000E+00
- sigma(2 2)=  4.83852080E+02  sigma(3 1)=  0.00000000E+00
- sigma(3 3)=  4.83852080E+02  sigma(2 1)=  0.00000000E+00

================================================================================
== DATASET  3 ==================================================================
-   nproc =    1

 mkfilename : getwfk/=0, take file _WFK from output of DATASET   2.

 Exchange-correlation functional for the present dataset will be:
  LDA: Perdew-Wang 92 LSD fit to Ceperley-Alder data - ixc=7
 Citation for XC functional:
  J.P.Perdew and Y.Wang, PRB 45, 13244 (1992)

 Real(R)+Recip(G) space primitive vectors, cartesian coordinates (Bohr,Bohr^-1):
 R(1)=  0.0000000  4.9000000  4.9000000  G(1)= -0.1020408  0.1020408  0.1020408
 R(2)=  4.9000000  0.0000000  4.9000000  G(2)=  0.1020408 -0.1020408  0.1020408
 R(3)=  4.9000000  4.9000000  0.0000000  G(3)=  0.1020408  0.1020408 -0.1020408
 Unit cell volume ucvol=  2.3529800E+02 bohr^3
 Angles (23,13,12)=  6.00000000E+01  6.00000000E+01  6.00000000E+01 degrees

 Coarse grid specifications (used for wave-functions):

 getcut: wavevector=  0.0000  0.0000  0.0000  ngfft=  27  27  27
         ecut(hartree)=     15.000   => boxcut(ratio)=   2.15523

 Fine grid specifications (used for densities):

 getcut: wavevector=  0.0000  0.0000  0.0000  ngfft=  36  36  36
[...]
   1.00000   1.00000   1.00000   1.00000   1.00000   1.00000   1.00000   1.00000
   1.00000   1.00000   1.00000   1.00000
 Eigenvalues (hartree) for nkpt=   2  k points, SPIN DOWN:
 kpt#   1, nband= 20, wtk=  0.75000, kpt= -0.2500  0.5000  0.0000 (reduced coord)
  -4.34107  -4.33907  -4.33768  -4.33614  -4.33326  -1.08378  -0.42832  -0.34749
  -0.33711  -0.31727   0.11488   0.13287   0.13585   0.34216   0.43859   0.50406
   0.52676   0.59241   0.59362   0.61439
      occupation numbers for kpt#   1
   1.00000   1.00000   1.00000   1.00000   1.00000   1.00000   1.00000   1.00000
   1.00000   1.00000   1.00000   1.00000   1.00000   0.00000   0.00000   0.00000
   0.00000   0.00000   0.00000   0.00000
 kpt#   2, nband= 20, wtk=  0.25000, kpt= -0.2500  0.0000  0.0000 (reduced coord)
  -4.33729  -4.33729  -4.33345  -4.33345  -4.33249  -1.08673  -0.42603  -0.32872
  -0.32872  -0.30792   0.10863   0.13402   0.13402   0.37393   0.38700   0.43480
   0.43480   0.53452   0.53452   0.61678
      occupation numbers for kpt#   2
   1.00000   1.00000   1.00000   1.00000   1.00000   1.00000   1.00000   1.00000
   1.00000   1.00000   1.00000   1.00000   1.00000   0.00000   0.00000   0.00000
   0.00000   0.00000   0.00000   0.00000
 Total charge density [el/Bohr^3]
,     Maximum=    1.6075E+00  at reduced coord.    0.0000    0.0000    0.0000
,Next maximum=    1.5904E+00  at reduced coord.    0.0000    0.0278    0.9722
,     Minimum=    4.7713E-03  at reduced coord.    0.2500    0.2500    0.2500
,Next minimum=    4.7713E-03  at reduced coord.    0.7500    0.7500    0.7500
,  Integrated=    3.3000E+01
 Spin up density      [el/Bohr^3]
,     Maximum=    1.0224E+00  at reduced coord.    0.0000    0.0000    0.0000
,Next maximum=    1.0100E+00  at reduced coord.    0.0000    0.0278    0.9722
,     Minimum=    2.7966E-03  at reduced coord.    0.2500    0.2500    0.2500
,Next minimum=    2.7966E-03  at reduced coord.    0.7500    0.7500    0.7500
,  Integrated=    2.0000E+01
 Spin down density    [el/Bohr^3]
,     Maximum=    5.8505E-01  at reduced coord.    0.0000    0.0000    0.0000
,Next maximum=    5.8037E-01  at reduced coord.    0.0000    0.0278    0.9722
,     Minimum=    1.9747E-03  at reduced coord.    0.2500    0.2500    0.2500
,Next minimum=    1.9747E-03  at reduced coord.    0.7500    0.7500    0.7500
,  Integrated=    1.3000E+01
 Magnetization (spin up - spin down) [el/Bohr^3]
,     Maximum=    4.3735E-01  at reduced coord.    0.0000    0.0000    0.0000
,Next maximum=    4.2965E-01  at reduced coord.    0.0000    0.0278    0.9722
,     Minimum=   -1.5902E-02  at reduced coord.    0.5278    0.4722    0.4444
,Next minimum=   -1.5902E-02  at reduced coord.    0.5556    0.4722    0.4444
,  Integrated=    7.0000E+00
 Relative magnetization (=zeta, between -1 and 1)
,     Maximum=    3.2725E-01  at reduced coord.    0.1389    0.8333    0.9167
,Next maximum=    3.2725E-01  at reduced coord.    0.1111    0.8333    0.9167
,     Minimum=   -1.8682E-02  at reduced coord.    0.5556    0.4444    0.4444
,Next minimum=   -1.8682E-02  at reduced coord.    0.4444    0.5556    0.4444

--------------------------------------------------------------------------------
 Components of total free energy (in Hartree) :

    Kinetic energy  =  3.44081300495040E+01
    Hartree energy  =  6.47447224519882E+01
    XC energy       = -9.59692959575657E+00
    Ewald energy    = -1.96963925581001E+02
    PspCore energy  =  1.33423163662638E+01
    Loc. psp. energy= -1.70545195408640E+02
    Spherical terms = -1.06491123838550E+02
    >>>>> Internal E= -3.71102005556192E+02

    -kT*entropy     = -5.61568095398885E-16
    >>>>>>>>> Etotal= -3.71102005556192E+02

 "Double-counting" decomposition of free energy:
    Band energy     = -4.73143080218277E+01
    Ewald energy    = -1.96963925581001E+02
    PspCore energy  =  1.33423163662638E+01
    Dble-C XC-energy= -6.17651720731539E+01
    Spherical terms = -7.84009172442240E+01
    >>>>> Internal E= -3.71102006553943E+02

    -kT*entropy     = -5.61568095398885E-16
    >>>> Etotal (DC)= -3.71102006553943E+02

  >Total energy in eV           = -1.00981991244054E+04
  >Total DC energy in eV        = -1.00981991515556E+04
--------------------------------------------------------------------------------

 Cartesian components of stress tensor (hartree/bohr^3)
  sigma(1 1)=  1.64455324E-02  sigma(3 2)=  0.00000000E+00
  sigma(2 2)=  1.64455324E-02  sigma(3 1)=  0.00000000E+00
  sigma(3 3)=  1.64455324E-02  sigma(2 1)=  0.00000000E+00

-Cartesian components of stress tensor (GPa)         [Pressure= -4.8384E+02 GPa]
- sigma(1 1)=  4.83844185E+02  sigma(3 2)=  0.00000000E+00
- sigma(2 2)=  4.83844185E+02  sigma(3 1)=  0.00000000E+00
- sigma(3 3)=  4.83844185E+02  sigma(2 1)=  0.00000000E+00

== END DATASET(S) ==============================================================
================================================================================
  
 -outvars: echo values of variables after computation  --------
            acell      9.8000000000E+00  9.8000000000E+00  9.8000000000E+00 Bohr
              amu      1.51965000E+02  1.59994000E+01
           diemac      4.00000000E+00
             ecut      1.50000000E+01 Hartree
           etotal1    -3.7110200654E+02
           etotal2    -3.7110200655E+02
           etotal3    -3.7110200655E+02
           etotal4    -3.7110200655E+02
            fcart1    -0.0000000000E+00 -0.0000000000E+00 -0.0000000000E+00
                      -0.0000000000E+00 -0.0000000000E+00 -0.0000000000E+00
            fcart2    -0.0000000000E+00 -0.0000000000E+00 -0.0000000000E+00
                      -0.0000000000E+00 -0.0000000000E+00 -0.0000000000E+00
            fcart3    -0.0000000000E+00 -0.0000000000E+00 -0.0000000000E+00
                      -0.0000000000E+00 -0.0000000000E+00 -0.0000000000E+00
            fcart4    -0.0000000000E+00 -0.0000000000E+00 -0.0000000000E+00
                      -0.0000000000E+00 -0.0000000000E+00 -0.0000000000E+00
-          fftalg         112
           getwfk1          0
           getwfk2         -1
           getwfk3         -1
           getwfk4         -1
              ixc           7
           jdtset        1    2    3    4
            jpawu      2.20495952E-02  0.00000000E+00 Hartree
              kpt     -2.50000000E-01  5.00000000E-01  0.00000000E+00
                      -2.50000000E-01  0.00000000E+00  0.00000000E+00
         kptrlatt        2   -2    2     -2    2    2     -2   -2    2
          kptrlen      1.96000000E+01
            lpawu           3      -1
P           mkmem           2
            natom           2
            nband1         20
            nband2         20
            nband3         20
            nband4         20
           ndtset           4
            ngfft          27      27      27
          ngfftdg          36      36      36
             nkpt           2
            nline1          6
            nline2          4
            nline3          4
            nline4          4
           nspden           2
           nsppol           2
            nstep1         35
            nstep2          3
            nstep3          3
            nstep4          3
             nsym          48
           ntypat           2
              occ1     1.000000  1.000000  1.000000  1.000000  1.000000  1.000000
                       1.000000  1.000000  1.000000  1.000000  1.000000  1.000000
                       1.000000  1.000000  1.000000  1.000000  1.000000  1.000000
                       1.000000  1.000000
                       1.000000  1.000000  1.000000  1.000000  1.000000  1.000000
                       1.000000  1.000000  1.000000  1.000000  1.000000  1.000000
                       1.000000  0.000000  0.000000  0.000000  0.000000  0.000000
                       0.000000  0.000000
              occ2     1.000000  1.000000  1.000000  1.000000  1.000000  1.000000
                       1.000000  1.000000  1.000000  1.000000  1.000000  1.000000
                       1.000000  1.000000  1.000000  1.000000  1.000000  1.000000
                       1.000000  1.000000
                       1.000000  1.000000  1.000000  1.000000  1.000000  1.000000
                       1.000000  1.000000  1.000000  1.000000  1.000000  1.000000
                       1.000000  1.000000  1.000000  1.000000  1.000000  1.000000
                       1.000000  1.000000
                       1.000000  1.000000  1.000000  1.000000  1.000000  1.000000
                       1.000000  1.000000  1.000000  1.000000  1.000000  1.000000
                       1.000000  0.000000  0.000000  0.000000  0.000000  0.000000
                       0.000000  0.000000
                       1.000000  1.000000  1.000000  1.000000  1.000000  1.000000
                       1.000000  1.000000  1.000000  1.000000  1.000000  1.000000
                       1.000000  0.000000  0.000000  0.000000  0.000000  0.000000
                       0.000000  0.000000
              occ3     1.000000  1.000000  1.000000  1.000000  1.000000  1.000000
                       1.000000  1.000000  1.000000  1.000000  1.000000  1.000000
                       1.000000  1.000000  1.000000  1.000000  1.000000  1.000000
                       1.000000  1.000000
                       1.000000  1.000000  1.000000  1.000000  1.000000  1.000000
                       1.000000  1.000000  1.000000  1.000000  1.000000  1.000000
                       1.000000  1.000000  1.000000  1.000000  1.000000  1.000000
                       1.000000  1.000000
                       1.000000  1.000000  1.000000  1.000000  1.000000  1.000000
                       1.000000  1.000000  1.000000  1.000000  1.000000  1.000000
                       1.000000  0.000000  0.000000  0.000000  0.000000  0.000000
                       0.000000  0.000000
                       1.000000  1.000000  1.000000  1.000000  1.000000  1.000000
                       1.000000  1.000000  1.000000  1.000000  1.000000  1.000000
                       1.000000  0.000000  0.000000  0.000000  0.000000  0.000000
                       0.000000  0.000000
              occ4     1.000000  1.000000  1.000000  1.000000  1.000000  1.000000
                       1.000000  1.000000  1.000000  1.000000  1.000000  1.000000
                       1.000000  1.000000  1.000000  1.000000  1.000000  1.000000
                       1.000000  1.000000
                       1.000000  1.000000  1.000000  1.000000  1.000000  1.000000
                       1.000000  1.000000  1.000000  1.000000  1.000000  1.000000
                       1.000000  1.000000  1.000000  1.000000  1.000000  1.000000
                       1.000000  1.000000
                       1.000000  1.000000  1.000000  1.000000  1.000000  1.000000
                       1.000000  1.000000  1.000000  1.000000  1.000000  1.000000
                       1.000000  0.000000  0.000000  0.000000  0.000000  0.000000
                       0.000000  0.000000
                       1.000000  1.000000  1.000000  1.000000  1.000000  1.000000
                       1.000000  1.000000  1.000000  1.000000  1.000000  1.000000
                       1.000000  0.000000  0.000000  0.000000  0.000000  0.000000
                       0.000000  0.000000
           occopt1          1
           occopt2          7
           occopt3          7
           occopt4          7
        pawecutdg      3.00000000E+01 Hartree
         pawxcdev           0
            rprim      0.0000000000E+00  5.0000000000E-01  5.0000000000E-01
                       5.0000000000E-01  0.0000000000E+00  5.0000000000E-01
                       5.0000000000E-01  5.0000000000E-01  0.0000000000E+00
           shiftk      5.00000000E-01  5.00000000E-01  5.00000000E-01
          spgroup         225
           spinat1     0.0000000000E+00  0.0000000000E+00  7.0000000000E+00
                       0.0000000000E+00  0.0000000000E+00  0.0000000000E+00
           spinat2     0.0000000000E+00  0.0000000000E+00  7.0000000000E+00
                       0.0000000000E+00  0.0000000000E+00  0.0000000000E+00
           spinat3     0.0000000000E+00  0.0000000000E+00  7.0000000000E+00
                       0.0000000000E+00  0.0000000000E+00  0.0000000000E+00
           spinat4     0.0000000000E+00  0.0000000000E+00  0.0000000000E+00
                       0.0000000000E+00  0.0000000000E+00  0.0000000000E+00
   spinmagntarget1     7.00000000E+00
   spinmagntarget2     7.00000000E+00
   spinmagntarget3    -9.99900000E+01
   spinmagntarget4     7.00000000E+00
           strten1     1.6446862850E-02  1.6446862850E-02  1.6446862850E-02
                       0.0000000000E+00  0.0000000000E+00  0.0000000000E+00
           strten2     1.6445800694E-02  1.6445800694E-02  1.6445800694E-02
                       0.0000000000E+00  0.0000000000E+00  0.0000000000E+00
           strten3     1.6445549219E-02  1.6445549219E-02  1.6445549219E-02
                       0.0000000000E+00  0.0000000000E+00  0.0000000000E+00
           strten4     1.6445532366E-02  1.6445532366E-02  1.6445532366E-02
                       0.0000000000E+00  0.0000000000E+00  0.0000000000E+00
           symrel      1  0  0   0  1  0   0  0  1      -1  0  0   0 -1  0   0  0 -1
                       0 -1  1   0 -1  0   1 -1  0       0  1 -1   0  1  0  -1  1  0
                      -1  0  0  -1  0  1  -1  1  0       1  0  0   1  0 -1   1 -1  0
                       0  1 -1   1  0 -1   0  0 -1       0 -1  1  -1  0  1   0  0  1
                      -1  0  0  -1  1  0  -1  0  1       1  0  0   1 -1  0   1  0 -1
                       0 -1  1   1 -1  0   0 -1  0       0  1 -1  -1  1  0   0  1  0
                       1  0  0   0  0  1   0  1  0      -1  0  0   0  0 -1   0 -1  0
                       0  1 -1   0  0 -1   1  0 -1       0 -1  1   0  0  1  -1  0  1
                      -1  0  1  -1  1  0  -1  0  0       1  0 -1   1 -1  0   1  0  0
                       0 -1  0   1 -1  0   0 -1  1       0  1  0  -1  1  0   0  1 -1
                       1  0 -1   0  0 -1   0  1 -1      -1  0  1   0  0  1   0 -1  1
                       0  1  0   0  0  1   1  0  0       0 -1  0   0  0 -1  -1  0  0
                       1  0 -1   0  1 -1   0  0 -1      -1  0  1   0 -1  1   0  0  1
                       0 -1  0   0 -1  1   1 -1  0       0  1  0   0  1 -1  -1  1  0
                      -1  0  1  -1  0  0  -1  1  0       1  0 -1   1  0  0   1 -1  0
                       0  1  0   1  0  0   0  0  1       0 -1  0  -1  0  0   0  0 -1
                       0  0 -1   0  1 -1   1  0 -1       0  0  1   0 -1  1  -1  0  1
                       1 -1  0   0 -1  1   0 -1  0      -1  1  0   0  1 -1   0  1  0
                       0  0  1   1  0  0   0  1  0       0  0 -1  -1  0  0   0 -1  0
                      -1  1  0  -1  0  0  -1  0  1       1 -1  0   1  0  0   1  0 -1
                       0  0  1   0  1  0   1  0  0       0  0 -1   0 -1  0  -1  0  0
                       1 -1  0   0 -1  0   0 -1  1      -1  1  0   0  1  0   0  1 -1
                       0  0 -1   1  0 -1   0  1 -1       0  0  1  -1  0  1   0 -1  1
                      -1  1  0  -1  0  1  -1  0  0       1 -1  0   1  0 -1   1  0  0
           tolvrs      1.00000000E-15
           tsmear      1.00000000E-03 Hartree
            typat      1  2
            upawu      2.75619940E-01  0.00000000E+00 Hartree
          usepawu           1
           useylm           1
              wtk        0.75000    0.25000
           xangst      0.0000000000E+00  0.0000000000E+00  0.0000000000E+00
                       2.5929683221E+00  2.5929683221E+00  2.5929683221E+00
            xcart      0.0000000000E+00  0.0000000000E+00  0.0000000000E+00
                       4.9000000000E+00  4.9000000000E+00  4.9000000000E+00
             xred      0.0000000000E+00  0.0000000000E+00  0.0000000000E+00
                       5.0000000000E-01  5.0000000000E-01  5.0000000000E-01
            znucl       63.00000    8.00000

================================================================================


- Timing analysis has been suppressed with timopt=0



================================================================================

 Suggested references for the acknowledgment of ABINIT usage.

 The users of ABINIT have little formal obligations with respect to the ABINIT group
 (those specified in the GNU General Public License, http://www.gnu.org/copyleft/gpl.txt).
 However, it is common practice in the scientific literature,
 to acknowledge the efforts of people that have made the research possible.
 In this spirit, please find below suggested citations of work written by ABINIT developers,
 corresponding to implementations inside of ABINIT that you have used in the present run.
 Note also that it will be of great value to readers of publications presenting these results,
 to read papers enabling them to understand the theoretical formalism and details
 of the ABINIT implementation.
 For information on why they are suggested, see also http://www.abinit.org/about/?text=acknowledgments.

 [1] Gamma and beta cerium: LDA+U calculations of ground-state parameters.
 B. Amadon, F. Jollet and M. Torrent, Phys. Rev. B 77, 155104 (2008).
 Comment : LDA+U calculations, usepawu/=0. Strong suggestion to cite this paper.

 [2] Implementation of the Projector Augmented-Wave Method in the ABINIT code.
 M. Torrent, F. Jollet, F. Bottin, G. Zerah, and X. Gonze Comput. Mat. Science 42, 337, (2008).
 Comment : PAW calculations. Strong suggestion to cite this paper.

 [3] ABINIT : First-principles approach of materials and nanosystem properties.
 X. Gonze, B. Amadon, P.-M. Anglade, J.-M. Beuken, F. Bottin, P. Boulanger, F. Bruneval,
 D. Caliste, R. Caracas, M. Cote, T. Deutsch, L. Genovese, Ph. Ghosez, M. Giantomassi
 S. Goedecker, D.R. Hamann, P. Hermet, F. Jollet, G. Jomard, S. Leroux, M. Mancini, S. Mazevet,
 M.J.T. Oliveira, G. Onida, Y. Pouillon, T. Rangel, G.-M. Rignanese, D. Sangalli, R. Shaltaf,
 M. Torrent, M.J. Verstraete, G. Zerah, J.W. Zwanziger
 Computer Phys. Comm. 180, 2582-2615 (2009).
 Comment : the third generic paper describing the ABINIT project.
 Note that a version of this paper, that is not formatted for Computer Phys. Comm. 
 is available at http://www.abinit.org/about/ABINIT_CPC_v10.pdf .
 The licence allows the authors to put it on the Web.

 [4] A brief introduction to the ABINIT software package.
 X. Gonze, G.-M. Rignanese, M. Verstraete, J.-M. Beuken, Y. Pouillon, R. Caracas, F. Jollet,
 M. Torrent, G. Zerah, M. Mikami, Ph. Ghosez, M. Veithen, J.-Y. Raty, V. Olevano, F. Bruneval,
 L. Reining, R. Godby, G. Onida, D.R. Hamann, and D.C. Allan.
 Z. Kristallogr. 220, 558-562 (2005).
 Comment : the second generic paper describing the ABINIT project. Note that this paper
 should be cited especially if you are using the GW part of ABINIT, as several authors
 of this part are not in the list of authors of the first or third paper.
 The .pdf of the latter paper is available at http://www.abinit.org/about/zfk_0505-06_558-562.pdf.
 Note that it should not redistributed (Copyright by Oldenburg Wissenshaftverlag,
 the licence allows the authors to put it on the Web).


 And optionally :

 [5] First-principles computation of material properties : the ABINIT software project. 
 X. Gonze, J.-M. Beuken, R. Caracas, F. Detraux, M. Fuchs, G.-M. Rignanese, L. Sindic,
 M. Verstraete, G. Zerah, F. Jollet, M. Torrent, A. Roy, M. Mikami, Ph. Ghosez, J.-Y. Raty, D.C. Allan.
 Computational Materials Science 25, 478-492 (2002). http://dx.doi.org/10.1016/S0927-0256(02)00325-7
 Comment : the original paper describing the ABINIT project.
-
- Proc.   0 individual time (sec): cpu=         43.1  wall=         43.2

================================================================================

 Calculation completed.
.Delivered   23 WARNINGs and   0 COMMENTs to log file.
+Overall time at end (sec) : cpu=         43.1  wall=         43.2
