
.Version 7.10.4 of ABINIT 
.(MPI version, prepared for a x86_64_linux_gnu4.7 computer) 

.Copyright (C) 1998-2014 ABINIT group . 
 ABINIT comes with ABSOLUTELY NO WARRANTY.
 It is free software, and you are welcome to redistribute it
 under certain conditions (GNU General Public License,
 see ~abinit/COPYING or http://www.gnu.org/copyleft/gpl.txt).

 ABINIT is a project of the Universite Catholique de Louvain,
 Corning Inc. and other collaborators, see ~abinit/doc/developers/contributors.txt .
 Please read ~abinit/doc/users/acknowledgments.html for suggested
 acknowledgments of the ABINIT effort.
 For more information, see http://www.abinit.org .

.Starting date : Wed 11 Mar 2015.
- ( at 10h31 )
  
- input  file    -> t28.in
- output file    -> t28.out
- root for input  files -> t28i
- root for output files -> t28o


 DATASET    1 : space group Fm -3 m (#225); Bravais cF (face-center cubic)
================================================================================
 Values of the parameters that define the memory need for DATASET  1.
   intxc =         0  ionmov =         0    iscf =        17 xclevel =         1
  lmnmax =        32   lnmax =         8   mband =        20  mffmem =         1
P  mgfft =        24   mkmem =        10 mpssoang=         4     mpw =       470
  mqgrid =      3001   natom =         1    nfft =     13824    nkpt =        10
  nloalg =         4  nspden =         1 nspinor =         1  nsppol =         1
    nsym =        48  n1xccc =         1  ntypat =         1  occopt =         3
 PAW method is used; the additional fine FFT grid is defined by:
   mgfftf=        50    nfftf =    125000
================================================================================
P This job should need less than                      37.770 Mbytes of memory.
  Rough estimation (10% accuracy) of disk space for files :
_ WF disk file :      1.436 Mbytes ; DEN or POT disk file :      0.956 Mbytes.
================================================================================


 DATASET    2 : space group Fm -3 m (#225); Bravais cF (face-center cubic)
================================================================================
 Values of the parameters that define the memory need for DATASET  2.
   intxc =         0  ionmov =         0    iscf =        17 xclevel =         1
  lmnmax =        32   lnmax =         8   mband =        20  mffmem =         1
P  mgfft =        24   mkmem =        10 mpssoang=         4     mpw =       470
  mqgrid =      3001   natom =         1    nfft =     13824    nkpt =        10
  nloalg =         4  nspden =         1 nspinor =         1  nsppol =         1
    nsym =        48  n1xccc =         1  ntypat =         1  occopt =         3
 PAW method is used; the additional fine FFT grid is defined by:
   mgfftf=        50    nfftf =    125000
================================================================================
P This job should need less than                      37.770 Mbytes of memory.
  Rough estimation (10% accuracy) of disk space for files :
_ WF disk file :      1.436 Mbytes ; DEN or POT disk file :      0.956 Mbytes.
================================================================================

--------------------------------------------------------------------------------
------------- Echo of variables that govern the present computation ------------
--------------------------------------------------------------------------------
-
- outvars: echo of selected default values                                      
-   accesswff0 =  0 , fftalg0 =112 , wfoptalg0 = 10
-
- outvars: echo of global parameters not present in the input file              
-  max_nthreads =    0
-
 -outvars: echo values of preprocessed input variables --------
            acell      9.7500000000E+00  9.7500000000E+00  9.7500000000E+00 Bohr
              amu      1.40115000E+02
        dmatpuopt           1
        dmftbandf1          0
        dmftbandf2         20
        dmftbandi1          0
        dmftbandi2          5
        dmft_iter1          0
        dmft_iter2          1
        dmft_nwli1          0
        dmft_nwli2      10000
        dmft_nwlo1          0
        dmft_nwlo2        100
        dmft_rslf1          0
        dmft_rslf2          1
             ecut      1.20000000E+01 Hartree
-          fftalg         112
           getwfk          -1
              ixc           7
           jdtset        1    2
              kpt     -1.25000000E-01 -2.50000000E-01  0.00000000E+00
                      -1.25000000E-01  5.00000000E-01  0.00000000E+00
                      -2.50000000E-01 -3.75000000E-01  0.00000000E+00
                      -1.25000000E-01 -3.75000000E-01  1.25000000E-01
                      -1.25000000E-01  2.50000000E-01  0.00000000E+00
                      -2.50000000E-01  3.75000000E-01  0.00000000E+00
                      -3.75000000E-01  5.00000000E-01  0.00000000E+00
                      -2.50000000E-01  5.00000000E-01  1.25000000E-01
                      -1.25000000E-01  0.00000000E+00  0.00000000E+00
                      -3.75000000E-01  0.00000000E+00  0.00000000E+00
           kptopt           4
         kptrlatt        4   -4    4     -4    4    4     -4   -4    4
          kptrlen      3.90000000E+01
            lpawu           3
P           mkmem          10
            natom           1
            nband          20
           ndtset           2
            ngfft          24      24      24
          ngfftdg          50      50      50
             nkpt          10
            nstep1         30
            nstep2          3
             nsym          48
           ntypat           1
              occ      2.000000  2.000000  2.000000  2.000000  2.000000  2.000000
                       0.000000  0.000000  0.000000  0.000000  0.000000  0.000000
                       0.000000  0.000000  0.000000  0.000000  0.000000  0.000000
                       0.000000  0.000000
                       2.000000  2.000000  2.000000  2.000000  2.000000  2.000000
                       0.000000  0.000000  0.000000  0.000000  0.000000  0.000000
                       0.000000  0.000000  0.000000  0.000000  0.000000  0.000000
                       0.000000  0.000000
                       2.000000  2.000000  2.000000  2.000000  2.000000  2.000000
                       0.000000  0.000000  0.000000  0.000000  0.000000  0.000000
                       0.000000  0.000000  0.000000  0.000000  0.000000  0.000000
                       0.000000  0.000000
                       2.000000  2.000000  2.000000  2.000000  2.000000  2.000000
                       0.000000  0.000000  0.000000  0.000000  0.000000  0.000000
                       0.000000  0.000000  0.000000  0.000000  0.000000  0.000000
                       0.000000  0.000000
                       2.000000  2.000000  2.000000  2.000000  2.000000  2.000000
                       0.000000  0.000000  0.000000  0.000000  0.000000  0.000000
                       0.000000  0.000000  0.000000  0.000000  0.000000  0.000000
                       0.000000  0.000000
                       2.000000  2.000000  2.000000  2.000000  2.000000  2.000000
                       0.000000  0.000000  0.000000  0.000000  0.000000  0.000000
                       0.000000  0.000000  0.000000  0.000000  0.000000  0.000000
                       0.000000  0.000000
                       2.000000  2.000000  2.000000  2.000000  2.000000  2.000000
                       0.000000  0.000000  0.000000  0.000000  0.000000  0.000000
                       0.000000  0.000000  0.000000  0.000000  0.000000  0.000000
                       0.000000  0.000000
                       2.000000  2.000000  2.000000  2.000000  2.000000  2.000000
                       0.000000  0.000000  0.000000  0.000000  0.000000  0.000000
                       0.000000  0.000000  0.000000  0.000000  0.000000  0.000000
                       0.000000  0.000000
                       2.000000  2.000000  2.000000  2.000000  2.000000  2.000000
                       0.000000  0.000000  0.000000  0.000000  0.000000  0.000000
                       0.000000  0.000000  0.000000  0.000000  0.000000  0.000000
                       0.000000  0.000000
                       2.000000  2.000000  2.000000  2.000000  2.000000  2.000000
                       0.000000  0.000000  0.000000  0.000000  0.000000  0.000000
                       0.000000  0.000000  0.000000  0.000000  0.000000  0.000000
                       0.000000  0.000000
           occopt           3
        pawecutdg      6.00000000E+01 Hartree
        pawprtvol           3
           prtvol           4
            rprim      0.0000000000E+00  5.0000000000E-01  5.0000000000E-01
                       5.0000000000E-01  0.0000000000E+00  5.0000000000E-01
                       5.0000000000E-01  5.0000000000E-01  0.0000000000E+00
           shiftk      5.00000000E-01  5.00000000E-01  5.00000000E-01
          spgroup         225
           symrel      1  0  0   0  1  0   0  0  1      -1  0  0   0 -1  0   0  0 -1
                       0 -1  1   0 -1  0   1 -1  0       0  1 -1   0  1  0  -1  1  0
                      -1  0  0  -1  0  1  -1  1  0       1  0  0   1  0 -1   1 -1  0
                       0  1 -1   1  0 -1   0  0 -1       0 -1  1  -1  0  1   0  0  1
                      -1  0  0  -1  1  0  -1  0  1       1  0  0   1 -1  0   1  0 -1
                       0 -1  1   1 -1  0   0 -1  0       0  1 -1  -1  1  0   0  1  0
                       1  0  0   0  0  1   0  1  0      -1  0  0   0  0 -1   0 -1  0
                       0  1 -1   0  0 -1   1  0 -1       0 -1  1   0  0  1  -1  0  1
                      -1  0  1  -1  1  0  -1  0  0       1  0 -1   1 -1  0   1  0  0
                       0 -1  0   1 -1  0   0 -1  1       0  1  0  -1  1  0   0  1 -1
                       1  0 -1   0  0 -1   0  1 -1      -1  0  1   0  0  1   0 -1  1
                       0  1  0   0  0  1   1  0  0       0 -1  0   0  0 -1  -1  0  0
                       1  0 -1   0  1 -1   0  0 -1      -1  0  1   0 -1  1   0  0  1
                       0 -1  0   0 -1  1   1 -1  0       0  1  0   0  1 -1  -1  1  0
                      -1  0  1  -1  0  0  -1  1  0       1  0 -1   1  0  0   1 -1  0
                       0  1  0   1  0  0   0  0  1       0 -1  0  -1  0  0   0  0 -1
                       0  0 -1   0  1 -1   1  0 -1       0  0  1   0 -1  1  -1  0  1
                       1 -1  0   0 -1  1   0 -1  0      -1  1  0   0  1 -1   0  1  0
                       0  0  1   1  0  0   0  1  0       0  0 -1  -1  0  0   0 -1  0
                      -1  1  0  -1  0  0  -1  0  1       1 -1  0   1  0  0   1  0 -1
                       0  0  1   0  1  0   1  0  0       0  0 -1   0 -1  0  -1  0  0
                       1 -1  0   0 -1  0   0 -1  1      -1  1  0   0  1  0   0  1 -1
                       0  0 -1   1  0 -1   0  1 -1       0  0  1  -1  0  1   0 -1  1
                      -1  1  0  -1  0  1  -1  0  0       1 -1  0   1  0 -1   1  0  0
           tolvrs      1.00000000E-10
           tsmear      1.73918086E-03 Hartree
            typat      1
            upawu1     0.00000000E+00 Hartree
            upawu2     2.20495952E-01 Hartree
          usedmft1          0
          usedmft2          1
          usepawu1          1
          usepawu2         10
           useylm           1
              wtk        0.09375    0.09375    0.09375    0.18750    0.09375    0.09375
                         0.09375    0.18750    0.03125    0.03125
            znucl       58.00000

================================================================================

 chkinp: Checking input parameters for consistency, jdtset=   1.

 chkinp: Checking input parameters for consistency, jdtset=   2.

================================================================================
== DATASET  1 ==================================================================
-   nproc =    1

 Exchange-correlation functional for the present dataset will be:
  LDA: Perdew-Wang 92 LSD fit to Ceperley-Alder data - ixc=7
 Citation for XC functional:
  J.P.Perdew and Y.Wang, PRB 45, 13244 (1992)

 Real(R)+Recip(G) space primitive vectors, cartesian coordinates (Bohr,Bohr^-1):
 R(1)=  0.0000000  4.8750000  4.8750000  G(1)= -0.1025641  0.1025641  0.1025641
 R(2)=  4.8750000  0.0000000  4.8750000  G(2)=  0.1025641 -0.1025641  0.1025641
 R(3)=  4.8750000  4.8750000  0.0000000  G(3)=  0.1025641  0.1025641 -0.1025641
 Unit cell volume ucvol=  2.3171484E+02 bohr^3
 Angles (23,13,12)=  6.00000000E+01  6.00000000E+01  6.00000000E+01 degrees

 Coarse grid specifications (used for wave-functions):

 getcut: wavevector=  0.0000  0.0000  0.0000  ngfft=  24  24  24
         ecut(hartree)=     12.000   => boxcut(ratio)=   2.23237

 getcut : COMMENT -
  Note that boxcut > 2.2 ; recall that boxcut=Gcut(box)/Gcut(sphere) = 2
  is sufficient for exact treatment of convolution.
  Such a large boxcut is a waste : you could raise ecut
  e.g. ecut=   14.950407 Hartrees makes boxcut=2


 Fine grid specifications (used for densities):

 getcut: wavevector=  0.0000  0.0000  0.0000  ngfft=  50  50  50
         ecut(hartree)=     60.000   => boxcut(ratio)=   2.08072

--- Pseudopotential description ------------------------------------------------
- pspini: atom type   1  psp file is /home/gonze/ABINIT/ABINITv7.10.4/trunk/7.10.4-private/tests/Psps_for_tests/58ce.paw
- pspatm: opening atomic psp file    /home/gonze/ABINIT/ABINITv7.10.4/trunk/7.10.4-private/tests/Psps_for_tests/58ce.paw
- Paw atomic data for element Ce - Generated by AtomPAW + AtomPAW2Abinit v3.2.1
- 58.00000  12.00000  20090603                znucl, zion, pspdat
    7    7    3    0       511   0.00000      pspcod,pspxc,lmax,lloc,mmax,r2well
 Pseudopotential format is: paw4
 basis_size (lnmax)=  8 (lmn_size= 32), orbitals=   0   0   1   1   2   2   3   3
 Spheres core radius: rc_sph= 2.51255760
 4 radial meshes are used:
  - mesh 1: r(i)=AA*[exp(BB*(i-1))-1], size= 511 , AA= 0.30755E-03 BB= 0.17838E-01
  - mesh 2: r(i)=AA*[exp(BB*(i-1))-1], size= 506 , AA= 0.30755E-03 BB= 0.17838E-01
  - mesh 3: r(i)=AA*[exp(BB*(i-1))-1], size= 534 , AA= 0.30755E-03 BB= 0.17838E-01
  - mesh 4: r(i)=AA*[exp(BB*(i-1))-1], size= 583 , AA= 0.30755E-03 BB= 0.17838E-01
 Shapefunction is SIN type: shapef(r)=[sin(pi*r/rshp)/(pi*r/rshp)]**2
 Radius for shape functions = sphere core radius
 Radial grid used for partial waves is grid 1
 Radial grid used for projectors is grid  2
 Radial grid used for (t)core density is grid 3
 Radial grid used for Vloc is grid 4
 Radial grid used for pseudo valence density is grid 4
 Compensation charge density is taken into account in XC energy/potential
 pspatm: atomic psp has been read  and splines computed

   3.12151005E+02                                ecore*ucvol(ha*bohr**3)
--------------------------------------------------------------------------------

P newkpt: treating     20 bands with npw=     470 for ikpt=   1 by node    0
P newkpt: treating     20 bands with npw=     459 for ikpt=   2 by node    0
P newkpt: treating     20 bands with npw=     456 for ikpt=   3 by node    0
P newkpt: treating     20 bands with npw=     455 for ikpt=   4 by node    0
P newkpt: treating     20 bands with npw=     461 for ikpt=   5 by node    0
P newkpt: treating     20 bands with npw=     452 for ikpt=   6 by node    0
P newkpt: treating     20 bands with npw=     456 for ikpt=   7 by node    0
P newkpt: treating     20 bands with npw=     459 for ikpt=   8 by node    0
P newkpt: treating     20 bands with npw=     465 for ikpt=   9 by node    0
P newkpt: treating     20 bands with npw=     465 for ikpt=  10 by node    0

_setup2: Arith. and geom. avg. npw (full set) are     458.625     458.600


 ******************************************
 LDA+U Method used: FLL
 ******************************************

================================================================================

     iter   Etot(hartree)      deltaE(h)  residm     nres2
 ETOT  1  -39.408326741070    -3.941E+01 2.260E-01 1.256E+01
 ETOT  2  -39.611670868208    -2.033E-01 1.020E-02 1.488E+02
 ETOT  3  -39.530767046353     8.090E-02 2.234E-01 1.462E+01
 ETOT  4  -39.497503272474     3.326E-02 1.530E-02 7.399E+00
 ETOT  5  -39.484794127029     1.271E-02 1.662E-02 1.713E+00
 ETOT  6  -39.484676684498     1.174E-04 1.824E-03 1.560E+00
 ETOT  7  -39.484010818352     6.659E-04 6.580E-04 1.355E+00
 ETOT  8  -39.518771888795    -3.476E-02 3.739E-02 3.016E+01
 ETOT  9  -39.487553372173     3.122E-02 8.131E-03 4.058E+00
 ETOT 10  -39.499061426210    -1.151E-02 1.487E-03 1.290E+01
 ETOT 11  -39.484402326126     1.466E-02 2.178E-02 1.210E+00
 ETOT 12  -39.481907126262     2.495E-03 2.124E-03 2.995E-03
 ETOT 13  -39.481989244363    -8.212E-05 5.126E-05 4.063E-02
 ETOT 14  -39.481930629480     5.861E-05 1.879E-05 7.703E-03
 ETOT 15  -39.481949039920    -1.841E-05 9.023E-06 1.981E-02
 ETOT 16  -39.481951945452    -2.906E-06 8.636E-07 1.952E-02
 ETOT 17  -39.481935078474     1.687E-05 2.796E-06 9.882E-03
 ETOT 18  -39.481923811224     1.127E-05 4.558E-06 6.668E-04
 ETOT 19  -39.481923154628     6.566E-07 9.345E-07 1.774E-05
 ETOT 20  -39.481923195476    -4.085E-08 4.629E-08 2.929E-06
 ETOT 21  -39.481923194678     7.986E-10 2.158E-08 6.192E-07
 ETOT 22  -39.481923194075     6.026E-10 2.436E-09 2.477E-08
 ETOT 23  -39.481923194103    -2.736E-11 1.174E-09 7.627E-09
 ETOT 24  -39.481923194090     1.283E-11 1.064E-09 1.361E-09
 ETOT 25  -39.481923194088     1.613E-12 1.607E-10 1.180E-10
 ETOT 26  -39.481923194088    -5.684E-14 6.642E-11 2.973E-13

 At SCF step   26       nres2   =  2.97E-13 < tolvrs=  1.00E-10 =>converged.

 Cartesian components of stress tensor (hartree/bohr^3)
  sigma(1 1)=  3.34274361E-04  sigma(3 2)=  0.00000000E+00
  sigma(2 2)=  3.34274361E-04  sigma(3 1)=  0.00000000E+00
  sigma(3 3)=  3.34274361E-04  sigma(2 1)=  0.00000000E+00


 PAW TEST:
 ==== Compensation charge inside spheres ============
 The following values must be close to each other ...
 Compensation charge over spherical meshes =     -0.459644015322578
 Compensation charge over fine fft grid    =     -0.459643917953755

 ==== Results concerning PAW augmentation regions ====

 Total pseudopotential strength Dij (hartree):
   2.51780  -0.83706   0.00000   0.00000   0.00000   0.00000   0.00000   0.00000   0.00000   0.00000   0.00000   0.00000 ...
  -0.83706   0.28375   0.00000   0.00000   0.00000   0.00000   0.00000   0.00000   0.00000   0.00000   0.00000   0.00000 ...
   0.00000   0.00000   0.62381   0.00000   0.00000  -0.60678   0.00000   0.00000   0.00000   0.00000   0.00000   0.00000 ...
   0.00000   0.00000   0.00000   0.62381   0.00000   0.00000  -0.60678   0.00000   0.00000   0.00000   0.00000   0.00000 ...
   0.00000   0.00000   0.00000   0.00000   0.62381   0.00000   0.00000  -0.60678   0.00000   0.00000   0.00000   0.00000 ...
   0.00000   0.00000  -0.60678   0.00000   0.00000   0.79986   0.00000   0.00000   0.00000   0.00000   0.00000   0.00000 ...
   0.00000   0.00000   0.00000  -0.60678   0.00000   0.00000   0.79986   0.00000   0.00000   0.00000   0.00000   0.00000 ...
   0.00000   0.00000   0.00000   0.00000  -0.60678   0.00000   0.00000   0.79986   0.00000   0.00000   0.00000   0.00000 ...
   0.00000   0.00000   0.00000   0.00000   0.00000   0.00000   0.00000   0.00000   0.13286   0.00000   0.00000   0.00000 ...
   0.00000   0.00000   0.00000   0.00000   0.00000   0.00000   0.00000   0.00000   0.00000   0.13286   0.00000   0.00000 ...
   0.00000   0.00000   0.00000   0.00000   0.00000   0.00000   0.00000   0.00000   0.00000   0.00000   0.13274   0.00000 ...
   0.00000   0.00000   0.00000   0.00000   0.00000   0.00000   0.00000   0.00000   0.00000   0.00000   0.00000   0.13286 ...
   ...  only 12  components have been written...


 Augmentation waves occupancies Rhoij:
   1.97748  -0.06603   0.00000   0.00000   0.00000   0.00000   0.00000   0.00000   0.00000   0.00000   0.00000   0.00000 ...
  -0.06603   1.08039   0.00000   0.00000   0.00000   0.00000   0.00000   0.00000   0.00000   0.00000   0.00000   0.00000 ...
   0.00000   0.00000   1.97950   0.00000   0.00000  -0.00505   0.00000   0.00000   0.00000   0.00000   0.00000   0.00000 ...
   0.00000   0.00000   0.00000   1.97950   0.00000   0.00000  -0.00505   0.00000   0.00000   0.00000   0.00000   0.00000 ...
   0.00000   0.00000   0.00000   0.00000   1.97950   0.00000   0.00000  -0.00505   0.00000   0.00000   0.00000   0.00000 ...
   0.00000   0.00000  -0.00505   0.00000   0.00000   0.00489   0.00000   0.00000   0.00000   0.00000   0.00000   0.00000 ...
   0.00000   0.00000   0.00000  -0.00505   0.00000   0.00000   0.00489   0.00000   0.00000   0.00000   0.00000   0.00000 ...
   0.00000   0.00000   0.00000   0.00000  -0.00505   0.00000   0.00000   0.00489   0.00000   0.00000   0.00000   0.00000 ...
   0.00000   0.00000   0.00000   0.00000   0.00000   0.00000   0.00000   0.00000   0.39048   0.00000   0.00000   0.00000 ...
   0.00000   0.00000   0.00000   0.00000   0.00000   0.00000   0.00000   0.00000   0.00000   0.39048   0.00000   0.00000 ...
   0.00000   0.00000   0.00000   0.00000   0.00000   0.00000   0.00000   0.00000   0.00000   0.00000   0.32476   0.00000 ...
   0.00000   0.00000   0.00000   0.00000   0.00000   0.00000   0.00000   0.00000   0.00000   0.00000   0.00000   0.39048 ...
   ...  only 12  components have been written...

 "PAW+U" part of augmentation waves occupancies Rhoij:
 Atom #  1 - L=3 ONLY
   0.13656   0.00000   0.07219   0.00000   0.00000   0.00000   0.00000   0.00885   0.00000   0.00455   0.00000   0.00000   0.00000   0.00000
   0.00000   0.32531   0.00000   0.00000   0.00000   0.00000   0.00000   0.00000   0.02166   0.00000   0.00000   0.00000   0.00000   0.00000
   0.07219   0.00000   0.09927   0.00000   0.00000   0.00000   0.00000   0.00455   0.00000   0.00650   0.00000   0.00000   0.00000   0.00000
   0.00000   0.00000   0.00000   0.19248   0.00000   0.00000   0.00000   0.00000   0.00000   0.00000   0.01238   0.00000   0.00000   0.00000
   0.00000   0.00000   0.00000   0.00000   0.09927   0.00000  -0.07219   0.00000   0.00000   0.00000   0.00000   0.00650   0.00000  -0.00455
   0.00000   0.00000   0.00000   0.00000   0.00000   0.04335   0.00000   0.00000   0.00000   0.00000   0.00000   0.00000   0.00297   0.00000
   0.00000   0.00000   0.00000   0.00000  -0.07219   0.00000   0.13656   0.00000   0.00000   0.00000   0.00000  -0.00455   0.00000   0.00885
   0.00885   0.00000   0.00455   0.00000   0.00000   0.00000   0.00000   0.00073   0.00000   0.00030   0.00000   0.00000   0.00000   0.00000
   0.00000   0.02166   0.00000   0.00000   0.00000   0.00000   0.00000   0.00000   0.00166   0.00000   0.00000   0.00000   0.00000   0.00000
   0.00455   0.00000   0.00650   0.00000   0.00000   0.00000   0.00000   0.00030   0.00000   0.00058   0.00000   0.00000   0.00000   0.00000
   0.00000   0.00000   0.00000   0.01238   0.00000   0.00000   0.00000   0.00000   0.00000   0.00000   0.00096   0.00000   0.00000   0.00000
   0.00000   0.00000   0.00000   0.00000   0.00650   0.00000  -0.00455   0.00000   0.00000   0.00000   0.00000   0.00058   0.00000  -0.00030
   0.00000   0.00000   0.00000   0.00000   0.00000   0.00297   0.00000   0.00000   0.00000   0.00000   0.00000   0.00000   0.00035   0.00000
   0.00000   0.00000   0.00000   0.00000  -0.00455   0.00000   0.00885   0.00000   0.00000   0.00000   0.00000  -0.00030   0.00000   0.00073

 ---------- LDA+U DATA --------------------------------------------------- 

 ====== For Atom     1, occupations for correlated orbitals. lpawu =   3


 == Occupation matrix for correlated orbitals:

 Up component only...
     0.06122    0.00000    0.03239    0.00000    0.00000    0.00000    0.00000
     0.00000    0.14569    0.00000    0.00000    0.00000    0.00000    0.00000
     0.03239    0.00000    0.04449    0.00000    0.00000    0.00000    0.00000
     0.00000    0.00000    0.00000    0.08631    0.00000    0.00000    0.00000
     0.00000    0.00000    0.00000    0.00000    0.04449    0.00000   -0.03239
     0.00000    0.00000    0.00000    0.00000    0.00000    0.01940    0.00000
     0.00000    0.00000    0.00000    0.00000   -0.03239    0.00000    0.06122



================================================================================

 ----iterations are completed or convergence reached----

 Mean square residual over all n,k,spin=   3.7080E-13; max=  6.6420E-11
  -0.1250 -0.2500  0.0000    1  6.64200E-11 kpt; spin; max resid(k); each band:
  4.50E-16 3.26E-16 3.66E-16 5.72E-17 1.18E-15 2.14E-14 5.81E-15 7.82E-16
  2.24E-15 2.22E-15 3.27E-15 3.73E-16 1.68E-14 1.40E-14 3.02E-14 2.72E-14
  8.12E-15 3.03E-14 3.81E-14 6.64E-11
  -0.1250  0.5000  0.0000    1  4.09707E-12 kpt; spin; max resid(k); each band:
  4.68E-16 7.85E-16 1.43E-16 9.62E-16 5.45E-15 1.31E-14 1.29E-15 2.71E-15
  1.97E-15 2.06E-15 2.28E-16 4.83E-16 2.80E-14 1.01E-14 2.89E-14 1.21E-16
  6.80E-15 1.02E-14 1.44E-14 4.10E-12
  -0.2500 -0.3750  0.0000    1  3.77261E-14 kpt; spin; max resid(k); each band:
  4.42E-16 6.77E-16 3.09E-16 6.43E-16 1.88E-14 2.48E-14 8.35E-15 1.45E-15
  1.69E-15 2.29E-15 4.39E-16 1.39E-16 1.17E-14 3.41E-14 7.79E-15 1.64E-14
  2.88E-15 5.32E-15 3.77E-14 1.09E-14
  -0.1250 -0.3750  0.1250    1  1.06904E-13 kpt; spin; max resid(k); each band:
  5.15E-16 7.61E-16 6.88E-16 1.69E-16 3.14E-14 3.57E-14 2.41E-14 1.51E-15
  3.39E-15 2.67E-15 3.73E-16 1.45E-15 1.95E-14 1.46E-14 2.87E-14 2.47E-14
  1.07E-15 6.68E-15 1.54E-14 1.07E-13
  -0.1250  0.2500  0.0000    1  1.18557E-12 kpt; spin; max resid(k); each band:
  4.82E-16 7.64E-16 9.40E-17 2.66E-17 1.03E-14 4.32E-14 1.15E-14 2.68E-15
  1.64E-15 6.12E-15 8.46E-16 1.37E-16 2.16E-14 1.51E-14 2.97E-14 2.48E-14
  4.91E-15 2.17E-14 1.52E-13 1.19E-12
  -0.2500  0.3750  0.0000    1  3.15748E-13 kpt; spin; max resid(k); each band:
  4.78E-16 7.54E-16 6.60E-16 1.00E-16 3.91E-14 1.51E-14 5.29E-15 6.84E-16
  3.25E-15 6.42E-15 2.76E-17 3.29E-15 1.04E-14 1.82E-14 3.18E-14 1.10E-14
  1.60E-14 1.79E-15 7.96E-15 3.16E-13
  -0.3750  0.5000  0.0000    1  1.95063E-14 kpt; spin; max resid(k); each band:
  4.74E-16 7.86E-16 7.04E-16 8.33E-16 4.33E-15 1.49E-14 2.56E-15 2.60E-16
  1.77E-15 1.66E-15 1.99E-17 2.62E-16 2.32E-16 6.61E-15 1.32E-14 5.58E-16
  6.47E-15 7.42E-15 1.95E-14 5.57E-15
  -0.2500  0.5000  0.1250    1  4.79464E-14 kpt; spin; max resid(k); each band:
  5.73E-16 8.42E-16 8.03E-16 4.79E-16 3.14E-14 2.43E-14 2.04E-14 2.38E-15
  1.75E-15 1.38E-15 6.52E-17 1.16E-15 5.62E-15 4.79E-14 2.99E-14 7.43E-15
  1.21E-14 5.88E-15 4.25E-15 8.27E-15
  -0.1250  0.0000  0.0000    1  5.54910E-14 kpt; spin; max resid(k); each band:
  4.82E-16 1.99E-16 9.82E-17 1.79E-16 4.40E-16 1.31E-14 2.57E-15 3.65E-16
  4.28E-15 1.60E-15 1.60E-15 1.40E-18 2.22E-14 2.57E-14 2.46E-14 6.45E-15
  1.17E-14 5.55E-14 2.28E-14 2.45E-14
  -0.3750  0.0000  0.0000    1  1.52559E-13 kpt; spin; max resid(k); each band:
  4.84E-16 7.74E-16 3.03E-16 3.57E-16 3.86E-15 5.80E-15 3.14E-15 5.92E-16
  5.18E-15 2.45E-15 2.49E-15 1.22E-18 1.98E-14 2.01E-14 8.63E-15 7.52E-15
  1.38E-14 1.38E-14 6.97E-15 1.53E-13
 reduced coordinates (array xred) for    1 atoms
       0.000000000000      0.000000000000      0.000000000000
 rms dE/dt=  0.0000E+00; max dE/dt=  0.0000E+00; dE/dt below (all hartree)
    1       0.000000000000      0.000000000000      0.000000000000

 cartesian coordinates (angstrom) at end:
    1      0.00000000000000     0.00000000000000     0.00000000000000

 cartesian forces (hartree/bohr) at end:
    1     -0.00000000000000    -0.00000000000000    -0.00000000000000
 frms,max,avg= 0.0000000E+00 0.0000000E+00   0.000E+00  0.000E+00  0.000E+00 h/b

 cartesian forces (eV/Angstrom) at end:
    1     -0.00000000000000    -0.00000000000000    -0.00000000000000
 frms,max,avg= 0.0000000E+00 0.0000000E+00   0.000E+00  0.000E+00  0.000E+00 e/A
 length scales=  9.750000000000  9.750000000000  9.750000000000 bohr
              =  5.159477783752  5.159477783752  5.159477783752 angstroms
 prteigrs : about to open file t28o_DS1_EIG
 Fermi (or HOMO) energy (hartree) =   0.30956   Average Vxc (hartree)=  -0.37095
 Eigenvalues (hartree) for nkpt=  10  k points:
 kpt#   1, nband= 20, wtk=  0.09375, kpt= -0.1250 -0.2500  0.0000 (reduced coord)
  -0.96163  -0.32437  -0.30740  -0.30661   0.24322   0.29946   0.31410   0.32295
   0.32307   0.32638   0.32729   0.33277   0.35136   0.39147   0.40446   0.43865
   0.48611   0.71188   0.77020   0.83677
      occupation numbers for kpt#   1
   2.00000   2.00000   2.00000   2.00000   2.00000   1.99400   0.13702   0.00091
   0.00085   0.00013   0.00007   0.00000   0.00000   0.00000   0.00000   0.00000
   0.00000   0.00000   0.00000   0.00000
 kpt#   2, nband= 20, wtk=  0.09375, kpt= -0.1250  0.5000  0.0000 (reduced coord)
  -0.95738  -0.35134  -0.31343  -0.31013   0.26141   0.30523   0.31955   0.32105
   0.32712   0.33023   0.33204   0.33225   0.35320   0.38361   0.39754   0.53920
   0.55251   0.66353   0.69544   0.81635
      occupation numbers for kpt#   2
   2.00000   2.00000   2.00000   2.00000   2.00000   1.84683   0.00641   0.00270
   0.00008   0.00001   0.00000   0.00000   0.00000   0.00000   0.00000   0.00000
   0.00000   0.00000   0.00000   0.00000
 kpt#   3, nband= 20, wtk=  0.09375, kpt= -0.2500 -0.3750  0.0000 (reduced coord)
  -0.95816  -0.33902  -0.31587  -0.31409   0.26553   0.28524   0.31555   0.32380
   0.32501   0.32556   0.32811   0.32904   0.33819   0.38800   0.44760   0.49590
   0.52715   0.73611   0.79374   0.79739
      occupation numbers for kpt#   3
   2.00000   2.00000   2.00000   2.00000   2.00000   2.00000   0.06217   0.00056
   0.00028   0.00020   0.00005   0.00003   0.00000   0.00000   0.00000   0.00000
   0.00000   0.00000   0.00000   0.00000
 kpt#   4, nband= 20, wtk=  0.18750, kpt= -0.1250 -0.3750  0.1250 (reduced coord)
  -0.95740  -0.34341  -0.32107  -0.31126   0.28310   0.30079   0.31180   0.32216
   0.32469   0.32744   0.33011   0.33314   0.34833   0.36013   0.42152   0.49338
   0.57879   0.69035   0.75127   0.80176
      occupation numbers for kpt#   4
   2.00000   2.00000   2.00000   2.00000   2.00000   1.98718   0.43290   0.00143
   0.00033   0.00007   0.00001   0.00000   0.00000   0.00000   0.00000   0.00000
   0.00000   0.00000   0.00000   0.00000
 kpt#   5, nband= 20, wtk=  0.09375, kpt= -0.1250  0.2500  0.0000 (reduced coord)
  -0.95988  -0.33607  -0.31257  -0.30536   0.26153   0.30809   0.31158   0.32241
   0.32475   0.32525   0.32663   0.33416   0.35827   0.37559   0.39746   0.44958
   0.52451   0.68845   0.79536   0.82894
      occupation numbers for kpt#   5
   2.00000   2.00000   2.00000   2.00000   2.00000   1.39981   0.47679   0.00124
   0.00032   0.00024   0.00011   0.00000   0.00000   0.00000   0.00000   0.00000
   0.00000   0.00000   0.00000   0.00000
 kpt#   6, nband= 20, wtk=  0.09375, kpt= -0.2500  0.3750  0.0000 (reduced coord)
  -0.95636  -0.34436  -0.32825  -0.31213   0.28008   0.30668   0.31865   0.32132
   0.32535   0.32634   0.33232   0.33352   0.34172   0.37365   0.42080   0.50609
   0.58711   0.68326   0.76299   0.80094
      occupation numbers for kpt#   6
   2.00000   2.00000   2.00000   2.00000   2.00000   1.67977   0.01073   0.00232
   0.00023   0.00013   0.00000   0.00000   0.00000   0.00000   0.00000   0.00000
   0.00000   0.00000   0.00000   0.00000
 kpt#   7, nband= 20, wtk=  0.09375, kpt= -0.3750  0.5000  0.0000 (reduced coord)
  -0.95567  -0.34754  -0.32311  -0.31866   0.24925   0.27252   0.32190   0.32223
   0.32367   0.32507   0.33015   0.33044   0.33277   0.43660   0.49794   0.55117
   0.57935   0.65820   0.72105   0.78323
      occupation numbers for kpt#   7
   2.00000   2.00000   2.00000   2.00000   2.00000   2.00000   0.00166   0.00138
   0.00060   0.00027   0.00001   0.00001   0.00000   0.00000   0.00000   0.00000
   0.00000   0.00000   0.00000   0.00000
 kpt#   8, nband= 20, wtk=  0.18750, kpt= -0.2500  0.5000  0.1250 (reduced coord)
  -0.95565  -0.34247  -0.33038  -0.31801   0.27451   0.30236   0.31519   0.32037
   0.32492   0.32501   0.33201   0.33415   0.33670   0.37710   0.44943   0.53467
   0.63495   0.64052   0.74647   0.78422
      occupation numbers for kpt#   8
   2.00000   2.00000   2.00000   2.00000   2.00000   1.96879   0.07583   0.00399
   0.00029   0.00028   0.00000   0.00000   0.00000   0.00000   0.00000   0.00000
   0.00000   0.00000   0.00000   0.00000
 kpt#   9, nband= 20, wtk=  0.03125, kpt= -0.1250  0.0000  0.0000 (reduced coord)
  -0.96405  -0.31017  -0.30252  -0.30252   0.20680   0.30597   0.31873   0.32065
   0.32065   0.33098   0.33098   0.33588   0.36544   0.38119   0.38119   0.45650
   0.45650   0.69377   0.73128   0.81297
      occupation numbers for kpt#   9
   2.00000   2.00000   2.00000   2.00000   2.00000   1.77553   0.01025   0.00340
   0.00340   0.00001   0.00001   0.00000   0.00000   0.00000   0.00000   0.00000
   0.00000   0.00000   0.00000   0.00000
 kpt#  10, nband= 20, wtk=  0.03125, kpt= -0.3750  0.0000  0.0000 (reduced coord)
  -0.95884  -0.34744  -0.30732  -0.30732   0.24853   0.31151   0.32134   0.32134
   0.32370   0.32895   0.32895   0.33624   0.37110   0.37110   0.39267   0.51015
   0.51015   0.64621   0.75304   0.86836
      occupation numbers for kpt#  10
   2.00000   2.00000   2.00000   2.00000   2.00000   0.49161   0.00229   0.00229
   0.00059   0.00003   0.00003   0.00000   0.00000   0.00000   0.00000   0.00000
   0.00000   0.00000   0.00000   0.00000
 Total charge density [el/Bohr^3]
,     Maximum=    3.7342E-01  at reduced coord.    0.9600    0.9600    0.9600
,Next maximum=    3.7342E-01  at reduced coord.    0.1200    0.9600    0.9600
,     Minimum=    1.2049E-02  at reduced coord.    0.5000    0.5000    0.5000
,Next minimum=    1.2053E-02  at reduced coord.    0.5000    0.5000    0.4800
,  Integrated=    1.2000E+01

--------------------------------------------------------------------------------
 Components of total free energy (in Hartree) :

    Kinetic energy  =  9.59515152328713E+00
    Hartree energy  =  5.68277683735764E+00
    XC energy       = -5.07720975812687E+00
    Ewald energy    = -3.38574430088403E+01
    PspCore energy  =  1.34713426304455E+00
    Loc. psp. energy= -2.50960722103887E+01
    Spherical terms =  7.92516783481587E+00
    >>>>> Internal E= -3.94804945188506E+01

    -kT*entropy     = -1.42846303358278E-03
    >>>>>>>>> Etotal= -3.94819229818842E+01

 "Double-counting" decomposition of free energy:
    Band energy     = -2.73076972952872E+00
    Ewald energy    = -3.38574430088403E+01
    PspCore energy  =  1.34713426304455E+00
    Dble-C XC-energy= -4.14174442302606E+00
    Spherical terms = -9.76718327041439E-02
    >>>>> Internal E= -3.94804947310547E+01

    -kT*entropy     = -1.42846303358278E-03
    >>>> Etotal (DC)= -3.94819231940883E+01

  >Total energy in eV           = -1.07435776179101E+03
  >Total DC energy in eV        = -1.07435776756537E+03
--------------------------------------------------------------------------------

 Cartesian components of stress tensor (hartree/bohr^3)
  sigma(1 1)=  3.34274361E-04  sigma(3 2)=  0.00000000E+00
  sigma(2 2)=  3.34274361E-04  sigma(3 1)=  0.00000000E+00
  sigma(3 3)=  3.34274361E-04  sigma(2 1)=  0.00000000E+00

-Cartesian components of stress tensor (GPa)         [Pressure= -9.8347E+00 GPa]
- sigma(1 1)=  9.83468958E+00  sigma(3 2)=  0.00000000E+00
- sigma(2 2)=  9.83468958E+00  sigma(3 1)=  0.00000000E+00
- sigma(3 3)=  9.83468958E+00  sigma(2 1)=  0.00000000E+00

================================================================================
== DATASET  2 ==================================================================
-   nproc =    1

 mkfilename : getwfk/=0, take file _WFK from output of DATASET   1.

 Exchange-correlation functional for the present dataset will be:
  LDA: Perdew-Wang 92 LSD fit to Ceperley-Alder data - ixc=7
 Citation for XC functional:
  J.P.Perdew and Y.Wang, PRB 45, 13244 (1992)

 Real(R)+Recip(G) space primitive vectors, cartesian coordinates (Bohr,Bohr^-1):
 R(1)=  0.0000000  4.8750000  4.8750000  G(1)= -0.1025641  0.1025641  0.1025641
 R(2)=  4.8750000  0.0000000  4.8750000  G(2)=  0.1025641 -0.1025641  0.1025641
 R(3)=  4.8750000  4.8750000  0.0000000  G(3)=  0.1025641  0.1025641 -0.1025641
 Unit cell volume ucvol=  2.3171484E+02 bohr^3
 Angles (23,13,12)=  6.00000000E+01  6.00000000E+01  6.00000000E+01 degrees

 Coarse grid specifications (used for wave-functions):

 getcut: wavevector=  0.0000  0.0000  0.0000  ngfft=  24  24  24
         ecut(hartree)=     12.000   => boxcut(ratio)=   2.23237

 getcut : COMMENT -
  Note that boxcut > 2.2 ; recall that boxcut=Gcut(box)/Gcut(sphere) = 2
  is sufficient for exact treatment of convolution.
  Such a large boxcut is a waste : you could raise ecut
  e.g. ecut=   14.950407 Hartrees makes boxcut=2


 Fine grid specifications (used for densities):

 getcut: wavevector=  0.0000  0.0000  0.0000  ngfft=  50  50  50
         ecut(hartree)=     60.000   => boxcut(ratio)=   2.08072
--------------------------------------------------------------------------------

-inwffil : will read wavefunctions from disk file t28o_DS1_WFK
P newkpt: treating     20 bands with npw=     470 for ikpt=   1 by node    0
P newkpt: treating     20 bands with npw=     459 for ikpt=   2 by node    0
P newkpt: treating     20 bands with npw=     456 for ikpt=   3 by node    0
P newkpt: treating     20 bands with npw=     455 for ikpt=   4 by node    0
P newkpt: treating     20 bands with npw=     461 for ikpt=   5 by node    0
P newkpt: treating     20 bands with npw=     452 for ikpt=   6 by node    0
P newkpt: treating     20 bands with npw=     456 for ikpt=   7 by node    0
P newkpt: treating     20 bands with npw=     459 for ikpt=   8 by node    0
P newkpt: treating     20 bands with npw=     465 for ikpt=   9 by node    0
P newkpt: treating     20 bands with npw=     465 for ikpt=  10 by node    0

_setup2: Arith. and geom. avg. npw (full set) are     458.625     458.600


 ******************************************
 DFT+DMFT Method is used
 ******************************************

 DMFT uses the Continuous Time Quantum Monte Carlo solver

================================================================================

     iter   Etot(hartree)      deltaE(h)  residm     nres2
 (Edmft  1   0.01123290165)

  == The DMFT occupations are  ==

   -------> For Correlated Atom   1

          -- polarization spin component  1
        0.07425  -0.00000   0.03258   0.00000   0.00000  -0.00000  -0.00000
       -0.00000   0.12334  -0.00000  -0.00000  -0.00000  -0.00000  -0.00000
        0.03258   0.00000   0.05743   0.00000  -0.00000  -0.00000   0.00000
        0.00000  -0.00000   0.00000   0.09949   0.00000  -0.00000   0.00000
       -0.00000  -0.00000  -0.00000   0.00000   0.05743   0.00000  -0.03258
       -0.00000   0.00000  -0.00000  -0.00000  -0.00000   0.03220  -0.00000
       -0.00000  -0.00000   0.00000   0.00000  -0.03258  -0.00000   0.07425
 ETOT  1  -39.451573900386    -3.945E+01 6.056E-12 9.401E-02
 (Edmft  2   0.01152007137)

  == The DMFT occupations are  ==

   -------> For Correlated Atom   1

          -- polarization spin component  1
        0.05729   0.00000   0.01711   0.00000   0.00000   0.00000  -0.00000
        0.00000   0.11189   0.00000  -0.00000   0.00000   0.00000  -0.00000
        0.01711  -0.00000   0.04846   0.00000  -0.00000  -0.00000   0.00000
        0.00000  -0.00000   0.00000   0.07054   0.00000   0.00000   0.00000
        0.00000   0.00000  -0.00000  -0.00000   0.04846  -0.00000  -0.01711
       -0.00000   0.00000   0.00000   0.00000   0.00000   0.03521  -0.00000
       -0.00000  -0.00000  -0.00000  -0.00000  -0.01711  -0.00000   0.05729
 ETOT  2  -39.447873561492     3.700E-03 6.433E-07 4.296E-01
 (Edmft  3   0.00955802277)

  == The DMFT occupations are  ==

   -------> For Correlated Atom   1

          -- polarization spin component  1
        0.06746   0.00000   0.00536  -0.00000   0.00000   0.00000  -0.00000
        0.00000   0.11264   0.00000   0.00000   0.00000   0.00000   0.00000
        0.00536   0.00000   0.06469  -0.00000   0.00000  -0.00000   0.00000
        0.00000  -0.00000  -0.00000   0.07161   0.00000   0.00000  -0.00000
       -0.00000   0.00000   0.00000  -0.00000   0.06469   0.00000  -0.00536
       -0.00000   0.00000  -0.00000  -0.00000  -0.00000   0.06053   0.00000
       -0.00000  -0.00000   0.00000  -0.00000  -0.00536  -0.00000   0.06746
 ETOT  3  -39.443878976602     3.995E-03 1.191E-03 3.952E-02

 Cartesian components of stress tensor (hartree/bohr^3)
  sigma(1 1)=  5.32097194E-04  sigma(3 2)=  0.00000000E+00
  sigma(2 2)=  5.32097194E-04  sigma(3 1)=  0.00000000E+00
  sigma(3 3)=  5.32097194E-04  sigma(2 1)=  0.00000000E+00


 scprqt:  WARNING -
  nstep=    3 was not enough SCF cycles to converge;
  density residual=  3.952E-02 exceeds tolvrs=  1.000E-10


 PAW TEST:
 ==== Compensation charge inside spheres ============
 The following values must be close to each other ...
 Compensation charge over spherical meshes =     -0.448029477600668
 Compensation charge over fine fft grid    =     -0.410144771758960

 ==== Results concerning PAW augmentation regions ====

 Total pseudopotential strength Dij (hartree):
   2.51764  -0.83687   0.00000   0.00000   0.00000   0.00000   0.00000   0.00000   0.00000   0.00000   0.00000   0.00000 ...
  -0.83687   0.28366   0.00000   0.00000   0.00000   0.00000   0.00000   0.00000   0.00000   0.00000   0.00000   0.00000 ...
   0.00000   0.00000   0.62476   0.00000   0.00000  -0.60775   0.00000   0.00000   0.00000   0.00000   0.00000   0.00000 ...
   0.00000   0.00000   0.00000   0.62476   0.00000   0.00000  -0.60775   0.00000   0.00000   0.00000   0.00000   0.00000 ...
   0.00000   0.00000   0.00000   0.00000   0.62476   0.00000   0.00000  -0.60775   0.00000   0.00000   0.00000   0.00000 ...
   0.00000   0.00000  -0.60775   0.00000   0.00000   0.80096   0.00000   0.00000   0.00000   0.00000   0.00000   0.00000 ...
   0.00000   0.00000   0.00000  -0.60775   0.00000   0.00000   0.80096   0.00000   0.00000   0.00000   0.00000   0.00000 ...
   0.00000   0.00000   0.00000   0.00000  -0.60775   0.00000   0.00000   0.80096   0.00000   0.00000   0.00000   0.00000 ...
   0.00000   0.00000   0.00000   0.00000   0.00000   0.00000   0.00000   0.00000   0.13322   0.00000   0.00000   0.00000 ...
   0.00000   0.00000   0.00000   0.00000   0.00000   0.00000   0.00000   0.00000   0.00000   0.13322   0.00000   0.00000 ...
   0.00000   0.00000   0.00000   0.00000   0.00000   0.00000   0.00000   0.00000   0.00000   0.00000   0.13318   0.00000 ...
   0.00000   0.00000   0.00000   0.00000   0.00000   0.00000   0.00000   0.00000   0.00000   0.00000   0.00000   0.13322 ...
   ...  only 12  components have been written...


 Augmentation waves occupancies Rhoij:
   1.98445  -0.05001   0.00000   0.00000   0.00000   0.00000   0.00000   0.00000   0.00000   0.00000   0.00000   0.00000 ...
  -0.05001   1.07999   0.00000   0.00000   0.00000   0.00000   0.00000   0.00000   0.00000   0.00000   0.00000   0.00000 ...
   0.00000   0.00000   1.98166   0.00000   0.00000  -0.00249   0.00000   0.00000   0.00000   0.00000   0.00000   0.00000 ...
   0.00000   0.00000   0.00000   1.98166   0.00000   0.00000  -0.00249   0.00000   0.00000   0.00000   0.00000   0.00000 ...
   0.00000   0.00000   0.00000   0.00000   1.98166   0.00000   0.00000  -0.00249   0.00000   0.00000   0.00000   0.00000 ...
   0.00000   0.00000  -0.00249   0.00000   0.00000   0.00519   0.00000   0.00000   0.00000   0.00000   0.00000   0.00000 ...
   0.00000   0.00000   0.00000  -0.00249   0.00000   0.00000   0.00519   0.00000   0.00000   0.00000   0.00000   0.00000 ...
   0.00000   0.00000   0.00000   0.00000  -0.00249   0.00000   0.00000   0.00519   0.00000   0.00000   0.00000   0.00000 ...
   0.00000   0.00000   0.00000   0.00000   0.00000   0.00000   0.00000   0.00000   0.39561   0.00000   0.00000   0.00000 ...
   0.00000   0.00000   0.00000   0.00000   0.00000   0.00000   0.00000   0.00000   0.00000   0.39561   0.00000   0.00000 ...
   0.00000   0.00000   0.00000   0.00000   0.00000   0.00000   0.00000   0.00000   0.00000   0.00000   0.32891   0.00000 ...
   0.00000   0.00000   0.00000   0.00000   0.00000   0.00000   0.00000   0.00000   0.00000   0.00000   0.00000   0.39561 ...
   ...  only 12  components have been written...

 "PAW+U" part of augmentation waves occupancies Rhoij:
 Atom #  1 - L=3 ONLY
   0.13736   0.00000   0.01165   0.00000   0.00000   0.00000   0.00000   0.00261   0.00000   0.00161   0.00000   0.00000   0.00000   0.00000
   0.00000   0.23039   0.00000   0.00000   0.00000   0.00000   0.00000   0.00000   0.00628   0.00000   0.00000   0.00000   0.00000   0.00000
   0.01165   0.00000   0.13134   0.00000   0.00000   0.00000   0.00000   0.00161   0.00000   0.00178   0.00000   0.00000   0.00000   0.00000
   0.00000   0.00000   0.00000   0.14638   0.00000   0.00000   0.00000   0.00000   0.00000   0.00000   0.00385   0.00000   0.00000   0.00000
   0.00000   0.00000   0.00000   0.00000   0.13134   0.00000  -0.01165   0.00000   0.00000   0.00000   0.00000   0.00178   0.00000  -0.00161
   0.00000   0.00000   0.00000   0.00000   0.00000   0.12232   0.00000   0.00000   0.00000   0.00000   0.00000   0.00000   0.00053   0.00000
   0.00000   0.00000   0.00000   0.00000  -0.01165   0.00000   0.13736   0.00000   0.00000   0.00000   0.00000  -0.00161   0.00000   0.00261
   0.00261   0.00000   0.00161   0.00000   0.00000   0.00000   0.00000   0.00081   0.00000   0.00026   0.00000   0.00000   0.00000   0.00000
   0.00000   0.00628   0.00000   0.00000   0.00000   0.00000   0.00000   0.00000   0.00144   0.00000   0.00000   0.00000   0.00000   0.00000
   0.00161   0.00000   0.00178   0.00000   0.00000   0.00000   0.00000   0.00026   0.00000   0.00068   0.00000   0.00000   0.00000   0.00000
   0.00000   0.00000   0.00000   0.00385   0.00000   0.00000   0.00000   0.00000   0.00000   0.00000   0.00102   0.00000   0.00000   0.00000
   0.00000   0.00000   0.00000   0.00000   0.00178   0.00000  -0.00161   0.00000   0.00000   0.00000   0.00000   0.00068   0.00000  -0.00026
   0.00000   0.00000   0.00000   0.00000   0.00000   0.00053   0.00000   0.00000   0.00000   0.00000   0.00000   0.00000   0.00047   0.00000
   0.00000   0.00000   0.00000   0.00000  -0.00161   0.00000   0.00261   0.00000   0.00000   0.00000   0.00000  -0.00026   0.00000   0.00081

 ---------- LDA+U DATA --------------------------------------------------- 

 ====== For Atom     1, occupations for correlated orbitals. lpawu =   3


 == Occupation matrix for correlated orbitals:

 Up component only...
     0.06319    0.00000    0.00501    0.00000    0.00000    0.00000    0.00000
     0.00000    0.10550    0.00000    0.00000    0.00000    0.00000    0.00000
     0.00501    0.00000    0.06060    0.00000    0.00000    0.00000    0.00000
     0.00000    0.00000    0.00000    0.06707    0.00000    0.00000    0.00000
     0.00000    0.00000    0.00000    0.00000    0.06060    0.00000   -0.00501
     0.00000    0.00000    0.00000    0.00000    0.00000    0.05672    0.00000
     0.00000    0.00000    0.00000    0.00000   -0.00501    0.00000    0.06319



================================================================================

 ----iterations are completed or convergence reached----

 Mean square residual over all n,k,spin=   2.5166E-04; max=  1.1913E-03
  -0.1250 -0.2500  0.0000    1  1.19127E-03 kpt; spin; max resid(k); each band:
  2.92E-06 2.87E-06 4.07E-06 6.91E-07 7.94E-06 1.19E-03 3.62E-04 1.69E-05
  1.23E-04 2.54E-05 4.81E-05 6.63E-06 7.09E-04 7.72E-04 5.62E-04 4.83E-04
  1.44E-04 7.69E-04 7.57E-04 6.40E-04
  -0.1250  0.5000  0.0000    1  1.04401E-03 kpt; spin; max resid(k); each band:
  3.43E-06 7.00E-06 1.91E-06 7.09E-06 4.21E-05 1.04E-03 1.99E-05 8.46E-05
  9.15E-05 1.65E-04 1.33E-05 9.79E-07 8.30E-04 7.45E-04 5.18E-04 6.73E-06
  1.24E-04 2.52E-04 8.31E-04 7.40E-04
  -0.2500 -0.3750  0.0000    1  9.00691E-04 kpt; spin; max resid(k); each band:
  2.80E-06 6.33E-06 2.50E-06 6.02E-06 1.95E-04 4.07E-04 5.72E-04 6.00E-05
  1.28E-05 8.07E-05 6.36E-06 3.10E-06 3.55E-05 9.01E-04 4.30E-04 2.93E-04
  3.13E-05 3.52E-04 3.74E-04 3.49E-04
  -0.1250 -0.3750  0.1250    1  1.06991E-03 kpt; spin; max resid(k); each band:
  3.65E-06 7.03E-06 6.29E-06 1.46E-06 3.15E-04 1.07E-03 7.66E-04 2.24E-05
  6.22E-05 8.87E-05 5.49E-06 8.82E-06 3.17E-04 7.80E-04 5.32E-04 2.72E-04
  4.32E-06 3.52E-04 7.02E-04 2.56E-04
  -0.1250  0.2500  0.0000    1  1.05085E-03 kpt; spin; max resid(k); each band:
  3.45E-06 7.61E-06 7.60E-07 5.49E-07 1.05E-04 1.05E-03 6.40E-04 2.87E-05
  9.84E-05 3.24E-05 1.72E-05 1.92E-06 7.77E-04 8.63E-04 6.82E-04 4.62E-04
  8.21E-05 7.81E-04 4.37E-04 5.98E-04
  -0.2500  0.3750  0.0000    1  9.45113E-04 kpt; spin; max resid(k); each band:
  4.24E-06 6.44E-06 6.23E-06 1.77E-06 5.19E-04 9.45E-04 1.03E-04 1.09E-05
  4.62E-04 5.16E-05 3.41E-07 4.44E-06 2.29E-04 8.02E-04 5.55E-04 2.15E-04
  3.77E-04 8.18E-05 4.15E-04 2.73E-04
  -0.3750  0.5000  0.0000    1  4.97521E-04 kpt; spin; max resid(k); each band:
  3.43E-06 6.83E-06 5.56E-06 6.24E-06 3.82E-05 4.56E-05 1.06E-04 3.05E-06
  7.08E-05 3.16E-05 3.85E-07 3.30E-06 2.20E-06 4.98E-04 1.95E-04 2.99E-06
  1.24E-04 4.30E-04 4.48E-04 4.84E-05
  -0.2500  0.5000  0.1250    1  8.55178E-04 kpt; spin; max resid(k); each band:
  4.28E-06 6.57E-06 6.44E-06 3.92E-06 3.31E-04 4.48E-04 4.20E-04 4.72E-05
  3.78E-05 2.97E-05 4.38E-07 1.27E-05 3.60E-05 8.55E-04 4.79E-04 1.29E-04
  2.95E-04 1.82E-04 2.13E-04 2.24E-04
  -0.1250  0.0000  0.0000    1  1.12015E-03 kpt; spin; max resid(k); each band:
  3.24E-06 1.58E-06 1.17E-06 1.46E-06 4.10E-06 7.43E-04 1.11E-04 4.62E-06
  1.58E-04 9.60E-05 9.57E-05 1.77E-08 8.35E-04 5.85E-04 5.81E-04 1.18E-04
  1.18E-04 1.12E-03 7.64E-04 8.31E-04
  -0.3750  0.0000  0.0000    1  1.03585E-03 kpt; spin; max resid(k); each band:
  3.22E-06 7.02E-06 2.80E-06 5.47E-06 2.47E-05 2.86E-04 6.98E-06 1.03E-04
  1.70E-04 7.53E-05 7.53E-05 1.55E-08 5.90E-04 5.91E-04 7.44E-04 1.24E-04
  1.17E-04 1.04E-03 1.41E-04 6.50E-04
 reduced coordinates (array xred) for    1 atoms
       0.000000000000      0.000000000000      0.000000000000
 rms dE/dt=  0.0000E+00; max dE/dt=  0.0000E+00; dE/dt below (all hartree)
    1       0.000000000000      0.000000000000      0.000000000000

 cartesian coordinates (angstrom) at end:
    1      0.00000000000000     0.00000000000000     0.00000000000000

 cartesian forces (hartree/bohr) at end:
    1     -0.00000000000000    -0.00000000000000    -0.00000000000000
 frms,max,avg= 0.0000000E+00 0.0000000E+00   0.000E+00  0.000E+00  0.000E+00 h/b

 cartesian forces (eV/Angstrom) at end:
    1     -0.00000000000000    -0.00000000000000    -0.00000000000000
 frms,max,avg= 0.0000000E+00 0.0000000E+00   0.000E+00  0.000E+00  0.000E+00 e/A
 length scales=  9.750000000000  9.750000000000  9.750000000000 bohr
              =  5.159477783752  5.159477783752  5.159477783752 angstroms
 prteigrs : about to open file t28o_DS2_EIG
 Fermi (or HOMO) energy (hartree) =   0.31395   Average Vxc (hartree)=  -0.37082
 Eigenvalues (hartree) for nkpt=  10  k points:
 kpt#   1, nband= 20, wtk=  0.09375, kpt= -0.1250 -0.2500  0.0000 (reduced coord)
  -0.95849  -0.32199  -0.30488  -0.30408   0.24365   0.30265   0.31979   0.32933
   0.32952   0.33251   0.33338   0.33928   0.35468   0.39327   0.40587   0.44014
   0.48759   0.71272   0.77106   0.83766
      occupation numbers for kpt#   1
   2.00000   2.00000   2.00000   2.00000   1.99816   0.88852   0.14676   0.12428
   0.12336   0.11141   0.11162   0.10305   0.09018   0.00805   0.00461   0.00367
   0.00182   0.00337   0.00355   0.00352
 kpt#   2, nband= 20, wtk=  0.09375, kpt= -0.1250  0.5000  0.0000 (reduced coord)
  -0.95419  -0.34916  -0.31096  -0.30762   0.26190   0.30977   0.32559   0.32731
   0.33284   0.33628   0.33880   0.33891   0.35589   0.38513   0.39871   0.54066
   0.55388   0.66468   0.69648   0.81735
      occupation numbers for kpt#   2
   2.00000   2.00000   2.00000   2.00000   1.99265   0.24761   0.13229   0.12574
   0.17430   0.10120   0.10817   0.11019   0.02468   0.00673   0.00544   0.00137
   0.00193   0.00255   0.00352   0.00356
 kpt#   3, nband= 20, wtk=  0.09375, kpt= -0.2500 -0.3750  0.0000 (reduced coord)
  -0.95498  -0.33675  -0.31342  -0.31161   0.26623   0.28658   0.32073   0.33005
   0.33128   0.33168   0.33472   0.33568   0.34352   0.39015   0.44906   0.49724
   0.52869   0.73710   0.79475   0.79847
      occupation numbers for kpt#   3
   2.00000   2.00000   2.00000   2.00000   1.97845   1.90135   0.14406   0.11859
   0.11666   0.13084   0.11790   0.11227   0.21058   0.01212   0.00332   0.00246
   0.00155   0.00293   0.00320   0.00318
 kpt#   4, nband= 20, wtk=  0.18750, kpt= -0.1250 -0.3750  0.1250 (reduced coord)
  -0.95422  -0.34118  -0.31866  -0.30877   0.28410   0.30399   0.31593   0.32837
   0.33057   0.33347   0.33674   0.33956   0.35252   0.36300   0.42301   0.49480
   0.58021   0.69146   0.75219   0.80292
      occupation numbers for kpt#   4
   2.00000   2.00000   2.00000   2.00000   1.94200   1.01147   0.20927   0.12506
   0.13693   0.13421   0.12150   0.12103   0.10171   0.03661   0.00421   0.00238
   0.00162   0.00278   0.00339   0.00313
 kpt#   5, nband= 20, wtk=  0.09375, kpt= -0.1250  0.2500  0.0000 (reduced coord)
  -0.95672  -0.33378  -0.31009  -0.30281   0.26208   0.31207   0.31678   0.32852
   0.33096   0.33125   0.33305   0.34081   0.36114   0.37755   0.39906   0.45111
   0.52598   0.68941   0.79642   0.82963
      occupation numbers for kpt#   5
   2.00000   2.00000   2.00000   2.00000   1.98780   0.29196   0.15867   0.12142
   0.12607   0.11247   0.11681   0.10254   0.03988   0.01090   0.00617   0.00349
   0.00172   0.00339   0.00328   0.00350
 kpt#   6, nband= 20, wtk=  0.09375, kpt= -0.2500  0.3750  0.0000 (reduced coord)
  -0.95317  -0.34213  -0.32590  -0.30965   0.28135   0.30950   0.32461   0.32748
   0.33090   0.33138   0.33917   0.33984   0.34661   0.37532   0.42235   0.50754
   0.58838   0.68456   0.76411   0.80202
      occupation numbers for kpt#   6
   2.00000   2.00000   2.00000   2.00000   1.91357   0.76418   0.13892   0.12451
   0.16362   0.11262   0.10861   0.13480   0.11956   0.01389   0.00437   0.00215
   0.00270   0.00238   0.00314   0.00316
 kpt#   7, nband= 20, wtk=  0.09375, kpt= -0.3750  0.5000  0.0000 (reduced coord)
  -0.95247  -0.34534  -0.32072  -0.31622   0.24978   0.27312   0.32797   0.32852
   0.32987   0.33140   0.33696   0.33717   0.33890   0.43788   0.49945   0.55267
   0.58066   0.65928   0.72216   0.78460
      occupation numbers for kpt#   7
   2.00000   2.00000   2.00000   2.00000   1.99345   1.98549   0.12611   0.12303
   0.11863   0.12359   0.11211   0.11490   0.17806   0.00373   0.00211   0.00147
   0.00202   0.00283   0.00300   0.00285
 kpt#   8, nband= 20, wtk=  0.18750, kpt= -0.2500  0.5000  0.1250 (reduced coord)
  -0.95245  -0.34022  -0.32804  -0.31557   0.27550   0.30405   0.32042   0.32634
   0.33102   0.33120   0.33850   0.34053   0.34233   0.37919   0.45099   0.53611
   0.63614   0.64177   0.74768   0.78553
      occupation numbers for kpt#   8
   2.00000   2.00000   2.00000   2.00000   1.95420   1.79158   0.14125   0.13253
   0.13876   0.12276   0.14679   0.13301   0.17634   0.01356   0.00365   0.00193
   0.00253   0.00236   0.00283   0.00302
 kpt#   9, nband= 20, wtk=  0.03125, kpt= -0.1250  0.0000  0.0000 (reduced coord)
  -0.96093  -0.30768  -0.29996  -0.29996   0.20714   0.31066   0.32507   0.32706
   0.32706   0.33713   0.33713   0.34256   0.36703   0.38242   0.38242   0.45786
   0.45786   0.69478   0.73204   0.81388
      occupation numbers for kpt#   9
   2.00000   2.00000   2.00000   2.00000   1.99933   0.30165   0.13449   0.12968
   0.12976   0.10132   0.10132   0.09982   0.01380   0.00490   0.00490   0.00165
   0.00166   0.00415   0.00337   0.00358
 kpt#  10, nband= 20, wtk=  0.03125, kpt= -0.3750  0.0000  0.0000 (reduced coord)
  -0.95567  -0.34524  -0.30479  -0.30479   0.24894   0.31744   0.32757   0.32757
   0.32914   0.33531   0.33531   0.34293   0.37233   0.37233   0.39413   0.51161
   0.51161   0.64734   0.75423   0.86937
      occupation numbers for kpt#  10
   2.00000   2.00000   2.00000   2.00000   1.99557   0.17400   0.12518   0.12499
   0.18051   0.10801   0.10801   0.09937   0.00510   0.00510   0.00931   0.00183
   0.00183   0.00395   0.00281   0.00368
 Total charge density [el/Bohr^3]
,     Maximum=    3.7605E-01  at reduced coord.    0.9600    0.9600    0.9600
,Next maximum=    3.7605E-01  at reduced coord.    0.1200    0.9600    0.9600
,     Minimum=    1.1791E-02  at reduced coord.    0.5000    0.5000    0.5000
,Next minimum=    1.1796E-02  at reduced coord.    0.5000    0.5000    0.4800
,  Integrated=    1.2000E+01

--------------------------------------------------------------------------------
 Components of total free energy (in Hartree) :

    Kinetic energy  =  9.57548228922824E+00
    Hartree energy  =  5.69913454877215E+00
    XC energy       = -5.08022399473598E+00
    Ewald energy    = -3.38574430088403E+01
    PspCore energy  =  1.34713426304455E+00
    Loc. psp. energy= -2.51338218730561E+01
    Spherical terms =  7.98326067121499E+00
    >>>>> Internal E= -3.94664771043724E+01

    -kT*entropy     = -1.16318721803780E-03
    >>>>>>>>> Etotal= -3.94676402915905E+01

 "Double-counting" decomposition of free energy:
    Band energy     = -2.67422755492905E+00
    Ewald energy    = -3.38574430088403E+01
    PspCore energy  =  1.34713426304455E+00
    Dble-C XC-energy= -4.15714693790494E+00
    Spherical terms = -1.01032550753887E-01
    >>>>> Internal E= -3.94427157893836E+01

    -kT*entropy     = -1.16318721803780E-03
    >>>> Etotal (DC)= -3.94438789766017E+01

  >Total energy in eV           = -1.07396911002287E+03
  >Total DC energy in eV        = -1.07332253175969E+03
--------------------------------------------------------------------------------

 Cartesian components of stress tensor (hartree/bohr^3)
  sigma(1 1)=  5.32097194E-04  sigma(3 2)=  0.00000000E+00
  sigma(2 2)=  5.32097194E-04  sigma(3 1)=  0.00000000E+00
  sigma(3 3)=  5.32097194E-04  sigma(2 1)=  0.00000000E+00

-Cartesian components of stress tensor (GPa)         [Pressure= -1.5655E+01 GPa]
- sigma(1 1)=  1.56548373E+01  sigma(3 2)=  0.00000000E+00
- sigma(2 2)=  1.56548373E+01  sigma(3 1)=  0.00000000E+00
- sigma(3 3)=  1.56548373E+01  sigma(2 1)=  0.00000000E+00

== END DATASET(S) ==============================================================
================================================================================
  
 -outvars: echo values of variables after computation  --------
            acell      9.7500000000E+00  9.7500000000E+00  9.7500000000E+00 Bohr
              amu      1.40115000E+02
        dmatpuopt           1
        dmftbandf1          0
        dmftbandf2         20
        dmftbandi1          0
        dmftbandi2          5
        dmft_iter1          0
        dmft_iter2          1
        dmft_nwli1          0
        dmft_nwli2      10000
        dmft_nwlo1          0
        dmft_nwlo2        100
        dmft_rslf1          0
        dmft_rslf2          1
             ecut      1.20000000E+01 Hartree
           etotal1    -3.9481923194E+01
           etotal2    -3.9443878977E+01
            fcart1    -0.0000000000E+00 -0.0000000000E+00 -0.0000000000E+00
            fcart2    -0.0000000000E+00 -0.0000000000E+00 -0.0000000000E+00
-          fftalg         112
           getwfk          -1
              ixc           7
           jdtset        1    2
              kpt     -1.25000000E-01 -2.50000000E-01  0.00000000E+00
                      -1.25000000E-01  5.00000000E-01  0.00000000E+00
                      -2.50000000E-01 -3.75000000E-01  0.00000000E+00
                      -1.25000000E-01 -3.75000000E-01  1.25000000E-01
                      -1.25000000E-01  2.50000000E-01  0.00000000E+00
                      -2.50000000E-01  3.75000000E-01  0.00000000E+00
                      -3.75000000E-01  5.00000000E-01  0.00000000E+00
                      -2.50000000E-01  5.00000000E-01  1.25000000E-01
                      -1.25000000E-01  0.00000000E+00  0.00000000E+00
                      -3.75000000E-01  0.00000000E+00  0.00000000E+00
           kptopt           4
         kptrlatt        4   -4    4     -4    4    4     -4   -4    4
          kptrlen      3.90000000E+01
            lpawu           3
P           mkmem          10
            natom           1
            nband          20
           ndtset           2
            ngfft          24      24      24
          ngfftdg          50      50      50
             nkpt          10
            nstep1         30
            nstep2          3
             nsym          48
           ntypat           1
              occ1     2.000000  2.000000  2.000000  2.000000  2.000000  1.994005
                       0.137024  0.000909  0.000847  0.000127  0.000075  0.000003
                       0.000000  0.000000  0.000000  0.000000  0.000000  0.000000
                       0.000000  0.000000
                       2.000000  2.000000  2.000000  2.000000  2.000000  1.846826
                       0.006412  0.002705  0.000082  0.000014  0.000005  0.000004
                       0.000000  0.000000  0.000000  0.000000  0.000000  0.000000
                       0.000000  0.000000
                       2.000000  2.000000  2.000000  2.000000  2.000000  1.999998
                       0.062175  0.000558  0.000278  0.000203  0.000047  0.000027
                       0.000000  0.000000  0.000000  0.000000  0.000000  0.000000
                       0.000000  0.000000
                       2.000000  2.000000  2.000000  2.000000  2.000000  1.987180
                       0.432896  0.001431  0.000333  0.000069  0.000015  0.000003
                       0.000000  0.000000  0.000000  0.000000  0.000000  0.000000
                       0.000000  0.000000
                       2.000000  2.000000  2.000000  2.000000  2.000000  1.399811
                       0.476786  0.001241  0.000323  0.000242  0.000110  0.000001
                       0.000000  0.000000  0.000000  0.000000  0.000000  0.000000
                       0.000000  0.000000
                       2.000000  2.000000  2.000000  2.000000  2.000000  1.679765
                       0.010734  0.002322  0.000228  0.000130  0.000004  0.000002
                       0.000000  0.000000  0.000000  0.000000  0.000000  0.000000
                       0.000000  0.000000
                       2.000000  2.000000  2.000000  2.000000  2.000000  2.000000
                       0.001662  0.001376  0.000600  0.000268  0.000014  0.000012
                       0.000003  0.000000  0.000000  0.000000  0.000000  0.000000
                       0.000000  0.000000
                       2.000000  2.000000  2.000000  2.000000  2.000000  1.968792
                       0.075825  0.003994  0.000293  0.000277  0.000005  0.000001
                       0.000000  0.000000  0.000000  0.000000  0.000000  0.000000
                       0.000000  0.000000
                       2.000000  2.000000  2.000000  2.000000  2.000000  1.775533
                       0.010246  0.003399  0.003399  0.000009  0.000009  0.000001
                       0.000000  0.000000  0.000000  0.000000  0.000000  0.000000
                       0.000000  0.000000
                       2.000000  2.000000  2.000000  2.000000  2.000000  0.491613
                       0.002288  0.002288  0.000589  0.000029  0.000029  0.000000
                       0.000000  0.000000  0.000000  0.000000  0.000000  0.000000
                       0.000000  0.000000
              occ2     2.000000  2.000000  2.000000  2.000000  1.998162  0.888518
                       0.146765  0.124283  0.123363  0.111405  0.111625  0.103053
                       0.090184  0.008049  0.004613  0.003672  0.001822  0.003371
                       0.003552  0.003517
                       2.000000  2.000000  2.000000  2.000000  1.992652  0.247610
                       0.132289  0.125738  0.174298  0.101204  0.108171  0.110194
                       0.024683  0.006735  0.005437  0.001367  0.001931  0.002552
                       0.003518  0.003564
                       2.000000  2.000000  2.000000  2.000000  1.978453  1.901348
                       0.144060  0.118588  0.116660  0.130838  0.117903  0.112270
                       0.210577  0.012120  0.003321  0.002462  0.001552  0.002926
                       0.003201  0.003178
                       2.000000  2.000000  2.000000  2.000000  1.941999  1.011474
                       0.209272  0.125056  0.136933  0.134212  0.121504  0.121030
                       0.101707  0.036613  0.004208  0.002380  0.001621  0.002783
                       0.003393  0.003132
                       2.000000  2.000000  2.000000  2.000000  1.987803  0.291962
                       0.158665  0.121415  0.126068  0.112466  0.116813  0.102545
                       0.039883  0.010898  0.006170  0.003494  0.001719  0.003387
                       0.003283  0.003497
                       2.000000  2.000000  2.000000  2.000000  1.913570  0.764183
                       0.138915  0.124511  0.163616  0.112625  0.108612  0.134798
                       0.119556  0.013887  0.004366  0.002153  0.002699  0.002381
                       0.003143  0.003157
                       2.000000  2.000000  2.000000  2.000000  1.993451  1.985494
                       0.126113  0.123029  0.118632  0.123590  0.112107  0.114899
                       0.178062  0.003730  0.002108  0.001467  0.002024  0.002827
                       0.003003  0.002853
                       2.000000  2.000000  2.000000  2.000000  1.954200  1.791583
                       0.141247  0.132528  0.138758  0.122756  0.146790  0.133011
                       0.176335  0.013557  0.003645  0.001935  0.002528  0.002359
                       0.002833  0.003021
                       2.000000  2.000000  2.000000  2.000000  1.999334  0.301650
                       0.134492  0.129678  0.129760  0.101319  0.101320  0.099822
                       0.013795  0.004898  0.004897  0.001651  0.001656  0.004153
                       0.003373  0.003579
                       2.000000  2.000000  2.000000  2.000000  1.995571  0.174000
                       0.125183  0.124986  0.180512  0.108010  0.108014  0.099373
                       0.005101  0.005101  0.009312  0.001826  0.001831  0.003949
                       0.002808  0.003683
           occopt           3
        pawecutdg      6.00000000E+01 Hartree
        pawprtvol           3
           prtvol           4
            rprim      0.0000000000E+00  5.0000000000E-01  5.0000000000E-01
                       5.0000000000E-01  0.0000000000E+00  5.0000000000E-01
                       5.0000000000E-01  5.0000000000E-01  0.0000000000E+00
           shiftk      5.00000000E-01  5.00000000E-01  5.00000000E-01
          spgroup         225
           strten1     3.3427436093E-04  3.3427436093E-04  3.3427436093E-04
                       0.0000000000E+00  0.0000000000E+00  0.0000000000E+00
           strten2     5.3209719354E-04  5.3209719354E-04  5.3209719354E-04
                       0.0000000000E+00  0.0000000000E+00  0.0000000000E+00
           symrel      1  0  0   0  1  0   0  0  1      -1  0  0   0 -1  0   0  0 -1
                       0 -1  1   0 -1  0   1 -1  0       0  1 -1   0  1  0  -1  1  0
                      -1  0  0  -1  0  1  -1  1  0       1  0  0   1  0 -1   1 -1  0
                       0  1 -1   1  0 -1   0  0 -1       0 -1  1  -1  0  1   0  0  1
                      -1  0  0  -1  1  0  -1  0  1       1  0  0   1 -1  0   1  0 -1
                       0 -1  1   1 -1  0   0 -1  0       0  1 -1  -1  1  0   0  1  0
                       1  0  0   0  0  1   0  1  0      -1  0  0   0  0 -1   0 -1  0
                       0  1 -1   0  0 -1   1  0 -1       0 -1  1   0  0  1  -1  0  1
                      -1  0  1  -1  1  0  -1  0  0       1  0 -1   1 -1  0   1  0  0
                       0 -1  0   1 -1  0   0 -1  1       0  1  0  -1  1  0   0  1 -1
                       1  0 -1   0  0 -1   0  1 -1      -1  0  1   0  0  1   0 -1  1
                       0  1  0   0  0  1   1  0  0       0 -1  0   0  0 -1  -1  0  0
                       1  0 -1   0  1 -1   0  0 -1      -1  0  1   0 -1  1   0  0  1
                       0 -1  0   0 -1  1   1 -1  0       0  1  0   0  1 -1  -1  1  0
                      -1  0  1  -1  0  0  -1  1  0       1  0 -1   1  0  0   1 -1  0
                       0  1  0   1  0  0   0  0  1       0 -1  0  -1  0  0   0  0 -1
                       0  0 -1   0  1 -1   1  0 -1       0  0  1   0 -1  1  -1  0  1
                       1 -1  0   0 -1  1   0 -1  0      -1  1  0   0  1 -1   0  1  0
                       0  0  1   1  0  0   0  1  0       0  0 -1  -1  0  0   0 -1  0
                      -1  1  0  -1  0  0  -1  0  1       1 -1  0   1  0  0   1  0 -1
                       0  0  1   0  1  0   1  0  0       0  0 -1   0 -1  0  -1  0  0
                       1 -1  0   0 -1  0   0 -1  1      -1  1  0   0  1  0   0  1 -1
                       0  0 -1   1  0 -1   0  1 -1       0  0  1  -1  0  1   0 -1  1
                      -1  1  0  -1  0  1  -1  0  0       1 -1  0   1  0 -1   1  0  0
           tolvrs      1.00000000E-10
           tsmear      1.73918086E-03 Hartree
            typat      1
            upawu1     0.00000000E+00 Hartree
            upawu2     2.20495952E-01 Hartree
          usedmft1          0
          usedmft2          1
          usepawu1          1
          usepawu2         10
           useylm           1
              wtk        0.09375    0.09375    0.09375    0.18750    0.09375    0.09375
                         0.09375    0.18750    0.03125    0.03125
            znucl       58.00000

================================================================================


- Timing analysis has been suppressed with timopt=0



================================================================================

 Suggested references for the acknowledgment of ABINIT usage.

 The users of ABINIT have little formal obligations with respect to the ABINIT group
 (those specified in the GNU General Public License, http://www.gnu.org/copyleft/gpl.txt).
 However, it is common practice in the scientific literature,
 to acknowledge the efforts of people that have made the research possible.
 In this spirit, please find below suggested citations of work written by ABINIT developers,
 corresponding to implementations inside of ABINIT that you have used in the present run.
 Note also that it will be of great value to readers of publications presenting these results,
 to read papers enabling them to understand the theoretical formalism and details
 of the ABINIT implementation.
 For information on why they are suggested, see also http://www.abinit.org/about/?text=acknowledgments.

 [1] A self-consistent DFT + DMFT scheme in the projector augmented wave method: 
 applications to cerium, Ce2O3 and Pu2O3 with the Hubbard I solver and comparison to DFT + U,
 B. Amadon,  J. Phys.: Condens. Matter 24 075604 (2012).
 Comment : Describes the self-consistent implementation of DFT+DMFT in PAW

 [2] Plane-wave based electronic strcture calculations for correlated materials.
 using dynamical mean-field theory and projected local orbitals,
 B. Amadon, F. Lechermann, A. Georges, F. Jollet, T.O. Wehling, A.I. Lichenstein,
 Phys. Rev. B 77, 205112 (2008).
 Comment : to be cited in case the computation of overlap operator for Wannier90 interface within PAW is used,
 i.e. prtwant=2 and usepaw=1. The paper describes also the DFT+DMFT implementation on Wannier functions

 [3] Gamma and beta cerium: LDA+U calculations of ground-state parameters.
 B. Amadon, F. Jollet and M. Torrent, Phys. Rev. B 77, 155104 (2008).
 Comment : LDA+U calculations, usepawu/=0. Strong suggestion to cite this paper.

 [4] Implementation of the Projector Augmented-Wave Method in the ABINIT code.
 M. Torrent, F. Jollet, F. Bottin, G. Zerah, and X. Gonze Comput. Mat. Science 42, 337, (2008).
 Comment : PAW calculations. Strong suggestion to cite this paper.

 [5] ABINIT : First-principles approach of materials and nanosystem properties.
 X. Gonze, B. Amadon, P.-M. Anglade, J.-M. Beuken, F. Bottin, P. Boulanger, F. Bruneval,
 D. Caliste, R. Caracas, M. Cote, T. Deutsch, L. Genovese, Ph. Ghosez, M. Giantomassi
 S. Goedecker, D.R. Hamann, P. Hermet, F. Jollet, G. Jomard, S. Leroux, M. Mancini, S. Mazevet,
 M.J.T. Oliveira, G. Onida, Y. Pouillon, T. Rangel, G.-M. Rignanese, D. Sangalli, R. Shaltaf,
 M. Torrent, M.J. Verstraete, G. Zerah, J.W. Zwanziger
 Computer Phys. Comm. 180, 2582-2615 (2009).
 Comment : the third generic paper describing the ABINIT project.
 Note that a version of this paper, that is not formatted for Computer Phys. Comm. 
 is available at http://www.abinit.org/about/ABINIT_CPC_v10.pdf .
 The licence allows the authors to put it on the Web.

 [6] A brief introduction to the ABINIT software package.
 X. Gonze, G.-M. Rignanese, M. Verstraete, J.-M. Beuken, Y. Pouillon, R. Caracas, F. Jollet,
 M. Torrent, G. Zerah, M. Mikami, Ph. Ghosez, M. Veithen, J.-Y. Raty, V. Olevano, F. Bruneval,
 L. Reining, R. Godby, G. Onida, D.R. Hamann, and D.C. Allan.
 Z. Kristallogr. 220, 558-562 (2005).
 Comment : the second generic paper describing the ABINIT project. Note that this paper
 should be cited especially if you are using the GW part of ABINIT, as several authors
 of this part are not in the list of authors of the first or third paper.
 The .pdf of the latter paper is available at http://www.abinit.org/about/zfk_0505-06_558-562.pdf.
 Note that it should not redistributed (Copyright by Oldenburg Wissenshaftverlag,
 the licence allows the authors to put it on the Web).
-
- Proc.   0 individual time (sec): cpu=        108.8  wall=        108.9

================================================================================

 Calculation completed.
.Delivered   19 WARNINGs and   2 COMMENTs to log file.
+Overall time at end (sec) : cpu=        108.8  wall=        108.9
