
.Version 7.9.3 of ABINIT 
.(MPI version, prepared for a x86_64_linux_gnu4.7 computer) 

.Copyright (C) 1998-2014 ABINIT group . 
 ABINIT comes with ABSOLUTELY NO WARRANTY.
 It is free software, and you are welcome to redistribute it
 under certain conditions (GNU General Public License,
 see ~abinit/COPYING or http://www.gnu.org/copyleft/gpl.txt).

 ABINIT is a project of the Universite Catholique de Louvain,
 Corning Inc. and other collaborators, see ~abinit/doc/developers/contributors.txt .
 Please read ~abinit/doc/users/acknowledgments.html for suggested
 acknowledgments of the ABINIT effort.
 For more information, see http://www.abinit.org .

.Starting date : Sat 30 Aug 2014.
- ( at 22h47 )
  
- input  file    -> t63.in
- output file    -> t63.out
- root for input  files -> t63i
- root for output files -> t63o

- inpspheads : Reading pseudopotential header in XML form from /home/gonze/ABINIT/ABINITv7.9.3/trunk/7.9.3-private/tests/Psps_for_tests/Fe-paw-abinit.xml

 DATASET    1 : space group Im -3 m (#229); Bravais cI (body-center cubic)
================================================================================
 Values of the parameters that define the memory need for DATASET  1.
   intxc =         0  ionmov =         0    iscf =        17 xclevel =         2
  lmnmax =        18   lnmax =         6   mband =        14  mffmem =         1
P  mgfft =        12   mkmem =        14 mpssoang=         3     mpw =        91
  mqgrid =      3001   natom =         1    nfft =      1728    nkpt =        14
  nloalg =         4  nspden =         2 nspinor =         1  nsppol =         2
    nsym =        48  n1xccc =         1  ntypat =         2  occopt =         7
 PAW method is used; the additional fine FFT grid is defined by:
   mgfftf=        15    nfftf =      3375
================================================================================
P This job should need less than                       5.834 Mbytes of memory.
  Rough estimation (10% accuracy) of disk space for files :
_ WF disk file :      0.546 Mbytes ; DEN or POT disk file :      0.053 Mbytes.
================================================================================


 DATASET    2 : space group Im -3 m (#229); Bravais cI (body-center cubic)
================================================================================
 Values of the parameters that define the memory need for DATASET  2.
   intxc =         0  ionmov =         0    iscf =        17 xclevel =         2
  lmnmax =        18   lnmax =         6   mband =        14  mffmem =         1
P  mgfft =        12   mkmem =        14 mpssoang=         3     mpw =        91
  mqgrid =      3001   natom =         1    nfft =      1728    nkpt =        14
  nloalg =         4  nspden =         2 nspinor =         1  nsppol =         2
    nsym =        48  n1xccc =         1  ntypat =         2  occopt =         7
 PAW method is used; the additional fine FFT grid is defined by:
   mgfftf=        15    nfftf =      3375
================================================================================
P This job should need less than                       5.834 Mbytes of memory.
  Rough estimation (10% accuracy) of disk space for files :
_ WF disk file :      0.546 Mbytes ; DEN or POT disk file :      0.053 Mbytes.
================================================================================

--------------------------------------------------------------------------------
------------- Echo of variables that govern the present computation ------------
--------------------------------------------------------------------------------
-
- outvars: echo of selected default values                                      
-   accesswff0 =  0 , fftalg0 =112 , wfoptalg0 = 10
-
- outvars: echo of global parameters not present in the input file              
-  max_nthreads =    0
-
 -outvars: echo values of preprocessed input variables --------
            acell      5.4200000000E+00  5.4200000000E+00  5.4200000000E+00 Bohr
              amu      5.58470000E+01  5.58470000E+01
             ecut      8.00000000E+00 Hartree
-          fftalg         112
           getwfk1          0
           getwfk2          1
              ixc          11
           jdtset        1    2
              kpt      8.33333333E-02  8.33333333E-02  8.33333333E-02
                       2.50000000E-01  8.33333333E-02  8.33333333E-02
                       4.16666667E-01  8.33333333E-02  8.33333333E-02
                      -8.33333333E-02  8.33333333E-02  8.33333333E-02
                       2.50000000E-01  2.50000000E-01  8.33333333E-02
                      -2.50000000E-01  2.50000000E-01  8.33333333E-02
                      -4.16666667E-01  4.16666667E-01  8.33333333E-02
                      -2.50000000E-01  4.16666667E-01  8.33333333E-02
                      -4.16666667E-01 -4.16666667E-01  8.33333333E-02
                       2.50000000E-01  2.50000000E-01  2.50000000E-01
                      -2.50000000E-01  2.50000000E-01  2.50000000E-01
                      -4.16666667E-01  4.16666667E-01  2.50000000E-01
                      -4.16666667E-01 -4.16666667E-01  2.50000000E-01
                      -4.16666667E-01  4.16666667E-01  4.16666667E-01
         kptrlatt        6    0    0      0    6    0      0    0    6
          kptrlen      2.81631461E+01
P           mkmem          14
            natom           1
            nband          14
           ndtset           2
            ngfft          12      12      12
          ngfftdg          15      15      15
             nkpt          14
           nspden           2
           nsppol           2
             nsym          48
           ntypat           2
              occ      1.000000  1.000000  1.000000  1.000000  1.000000  1.000000
                       1.000000  1.000000  0.000000  0.000000  0.000000  0.000000
                       0.000000  0.000000
                       1.000000  1.000000  1.000000  1.000000  1.000000  1.000000
                       1.000000  1.000000  0.000000  0.000000  0.000000  0.000000
                       0.000000  0.000000
                       1.000000  1.000000  1.000000  1.000000  1.000000  1.000000
                       1.000000  1.000000  0.000000  0.000000  0.000000  0.000000
                       0.000000  0.000000
                       1.000000  1.000000  1.000000  1.000000  1.000000  1.000000
                       1.000000  1.000000  0.000000  0.000000  0.000000  0.000000
                       0.000000  0.000000
                       1.000000  1.000000  1.000000  1.000000  1.000000  1.000000
                       1.000000  1.000000  0.000000  0.000000  0.000000  0.000000
                       0.000000  0.000000
                       1.000000  1.000000  1.000000  1.000000  1.000000  1.000000
                       1.000000  1.000000  0.000000  0.000000  0.000000  0.000000
                       0.000000  0.000000
                       1.000000  1.000000  1.000000  1.000000  1.000000  1.000000
                       1.000000  1.000000  0.000000  0.000000  0.000000  0.000000
                       0.000000  0.000000
                       1.000000  1.000000  1.000000  1.000000  1.000000  1.000000
                       1.000000  1.000000  0.000000  0.000000  0.000000  0.000000
                       0.000000  0.000000
                       1.000000  1.000000  1.000000  1.000000  1.000000  1.000000
                       1.000000  1.000000  0.000000  0.000000  0.000000  0.000000
                       0.000000  0.000000
                       1.000000  1.000000  1.000000  1.000000  1.000000  1.000000
                       1.000000  1.000000  0.000000  0.000000  0.000000  0.000000
                       0.000000  0.000000
                       1.000000  1.000000  1.000000  1.000000  1.000000  1.000000
                       1.000000  1.000000  0.000000  0.000000  0.000000  0.000000
                       0.000000  0.000000
                       1.000000  1.000000  1.000000  1.000000  1.000000  1.000000
                       1.000000  1.000000  0.000000  0.000000  0.000000  0.000000
                       0.000000  0.000000
                       1.000000  1.000000  1.000000  1.000000  1.000000  1.000000
                       1.000000  1.000000  0.000000  0.000000  0.000000  0.000000
                       0.000000  0.000000
                       1.000000  1.000000  1.000000  1.000000  1.000000  1.000000
                       1.000000  1.000000  0.000000  0.000000  0.000000  0.000000
                       0.000000  0.000000
                       1.000000  1.000000  1.000000  1.000000  1.000000  1.000000
                       1.000000  1.000000  0.000000  0.000000  0.000000  0.000000
                       0.000000  0.000000
                       1.000000  1.000000  1.000000  1.000000  1.000000  1.000000
                       1.000000  1.000000  0.000000  0.000000  0.000000  0.000000
                       0.000000  0.000000
                       1.000000  1.000000  1.000000  1.000000  1.000000  1.000000
                       1.000000  1.000000  0.000000  0.000000  0.000000  0.000000
                       0.000000  0.000000
                       1.000000  1.000000  1.000000  1.000000  1.000000  1.000000
                       1.000000  1.000000  0.000000  0.000000  0.000000  0.000000
                       0.000000  0.000000
                       1.000000  1.000000  1.000000  1.000000  1.000000  1.000000
                       1.000000  1.000000  0.000000  0.000000  0.000000  0.000000
                       0.000000  0.000000
                       1.000000  1.000000  1.000000  1.000000  1.000000  1.000000
                       1.000000  1.000000  0.000000  0.000000  0.000000  0.000000
                       0.000000  0.000000
                       1.000000  1.000000  1.000000  1.000000  1.000000  1.000000
                       1.000000  1.000000  0.000000  0.000000  0.000000  0.000000
                       0.000000  0.000000
                       1.000000  1.000000  1.000000  1.000000  1.000000  1.000000
                       1.000000  1.000000  0.000000  0.000000  0.000000  0.000000
                       0.000000  0.000000
                       1.000000  1.000000  1.000000  1.000000  1.000000  1.000000
                       1.000000  1.000000  0.000000  0.000000  0.000000  0.000000
                       0.000000  0.000000
                       1.000000  1.000000  1.000000  1.000000  1.000000  1.000000
                       1.000000  1.000000  0.000000  0.000000  0.000000  0.000000
                       0.000000  0.000000
                       1.000000  1.000000  1.000000  1.000000  1.000000  1.000000
                       1.000000  1.000000  0.000000  0.000000  0.000000  0.000000
                       0.000000  0.000000
                       1.000000  1.000000  1.000000  1.000000  1.000000  1.000000
                       1.000000  1.000000  0.000000  0.000000  0.000000  0.000000
                       0.000000  0.000000
                       1.000000  1.000000  1.000000  1.000000  1.000000  1.000000
                       1.000000  1.000000  0.000000  0.000000  0.000000  0.000000
                       0.000000  0.000000
                       1.000000  1.000000  1.000000  1.000000  1.000000  1.000000
                       1.000000  1.000000  0.000000  0.000000  0.000000  0.000000
                       0.000000  0.000000
           occopt           7
        pawecutdg      1.00000000E+01 Hartree
           prtden           0
           prteig           0
            prtwf1          1
            prtwf2          0
            rprim     -5.0000000000E-01  5.0000000000E-01  5.0000000000E-01
                       5.0000000000E-01 -5.0000000000E-01  5.0000000000E-01
                       5.0000000000E-01  5.0000000000E-01 -5.0000000000E-01
           shiftk      5.00000000E-01  5.00000000E-01  5.00000000E-01
          spgroup         229
           spinat      0.0000000000E+00  0.0000000000E+00  4.0000000000E+00
           symrel      1  0  0   0  1  0   0  0  1      -1  0  0   0 -1  0   0  0 -1
                      -1 -1 -1   0  0  1   0  1  0       1  1  1   0  0 -1   0 -1  0
                       0  1  0   1  0  0  -1 -1 -1       0 -1  0  -1  0  0   1  1  1
                       0  0  1  -1 -1 -1   1  0  0       0  0 -1   1  1  1  -1  0  0
                       0  1  0   1  0  0   0  0  1       0 -1  0  -1  0  0   0  0 -1
                      -1 -1 -1   0  0  1   1  0  0       1  1  1   0  0 -1  -1  0  0
                       1  0  0   0  1  0  -1 -1 -1      -1  0  0   0 -1  0   1  1  1
                       0  0  1  -1 -1 -1   0  1  0       0  0 -1   1  1  1   0 -1  0
                      -1 -1 -1   1  0  0   0  0  1       1  1  1  -1  0  0   0  0 -1
                       0  1  0   0  0  1   1  0  0       0 -1  0   0  0 -1  -1  0  0
                       1  0  0  -1 -1 -1   0  1  0      -1  0  0   1  1  1   0 -1  0
                       0  0  1   0  1  0  -1 -1 -1       0  0 -1   0 -1  0   1  1  1
                       1  0  0  -1 -1 -1   0  0  1      -1  0  0   1  1  1   0  0 -1
                       0  1  0   0  0  1  -1 -1 -1       0 -1  0   0  0 -1   1  1  1
                      -1 -1 -1   1  0  0   0  1  0       1  1  1  -1  0  0   0 -1  0
                       0  0  1   0  1  0   1  0  0       0  0 -1   0 -1  0  -1  0  0
                       0  1  0  -1 -1 -1   0  0  1       0 -1  0   1  1  1   0  0 -1
                       1  0  0   0  0  1  -1 -1 -1      -1  0  0   0  0 -1   1  1  1
                      -1 -1 -1   0  1  0   1  0  0       1  1  1   0 -1  0  -1  0  0
                       0  0  1   1  0  0   0  1  0       0  0 -1  -1  0  0   0 -1  0
                      -1 -1 -1   0  1  0   0  0  1       1  1  1   0 -1  0   0  0 -1
                       1  0  0   0  0  1   0  1  0      -1  0  0   0  0 -1   0 -1  0
                       0  1  0  -1 -1 -1   1  0  0       0 -1  0   1  1  1  -1  0  0
                       0  0  1   1  0  0  -1 -1 -1       0  0 -1  -1  0  0   1  1  1
           toldfe      1.00000000E-10 Hartree
           tsmear      8.00000000E-03 Hartree
            typat1     1
            typat2     2
           useylm           1
              wtk        0.03704    0.11111    0.05556    0.02778    0.11111    0.11111
                         0.11111    0.11111    0.11111    0.00926    0.02778    0.11111
                         0.03704    0.02778
            znucl       26.00000   26.00000

================================================================================

 chkinp: Checking input parameters for consistency, jdtset=   1.

 chkinp: Checking input parameters for consistency, jdtset=   2.

================================================================================
== DATASET  1 ==================================================================
-   nproc =    1

 Exchange-correlation functional for the present dataset will be:
  GGA: Perdew-Burke-Ernzerhof functional - ixc=11
 Citation for XC functional:
  J.P.Perdew, K.Burke, M.Ernzerhof, PRL 77, 3865 (1996)

 Real(R)+Recip(G) space primitive vectors, cartesian coordinates (Bohr,Bohr^-1):
 R(1)= -2.7100000  2.7100000  2.7100000  G(1)=  0.0000000  0.1845018  0.1845018
 R(2)=  2.7100000 -2.7100000  2.7100000  G(2)=  0.1845018  0.0000000  0.1845018
 R(3)=  2.7100000  2.7100000 -2.7100000  G(3)=  0.1845018  0.1845018  0.0000000
 Unit cell volume ucvol=  7.9610044E+01 bohr^3
 Angles (23,13,12)=  1.09471221E+02  1.09471221E+02  1.09471221E+02 degrees

 Coarse grid specifications (used for wave-functions):

 getcut: wavevector=  0.0000  0.0000  0.0000  ngfft=  12  12  12
         ecut(hartree)=      8.000   => boxcut(ratio)=   2.00790

 Fine grid specifications (used for densities):

 getcut: wavevector=  0.0000  0.0000  0.0000  ngfft=  15  15  15
         ecut(hartree)=     10.000   => boxcut(ratio)=   2.10590

--- Pseudopotential description ------------------------------------------------
- pspini: atom type   1  psp file is /home/gonze/ABINIT/ABINITv7.9.3/trunk/7.9.3-private/tests/Psps_for_tests/26fe.num.paw
- pspatm: opening atomic psp file    /home/gonze/ABINIT/ABINITv7.9.3/trunk/7.9.3-private/tests/Psps_for_tests/26fe.num.paw
- iron - PAW data extracted from US-psp (D.Vanderbilt) - generated by USpp2Abinit v2.2.1
- 26.00000  16.00000  20070813                znucl, zion, pspdat
    7   11    2    0       594   0.00000      pspcod,pspxc,lmax,lloc,mmax,r2well
 Pseudopotential format is: paw3
 basis_size (lnmax)=  6 (lmn_size= 18), orbitals=   0   0   1   1   2   2
 Spheres core radius: rc_sph= 2.02984247
 3 radial meshes are used:
  - mesh 1: r(i)=AA*[exp(BB*(i-1))-1], size= 594 , AA= 0.95337E-04 BB= 0.16949E-01
  - mesh 2: r(i)=AA*[exp(BB*(i-1))-1], size= 590 , AA= 0.95337E-04 BB= 0.16949E-01
  - mesh 3: r(i)=AA*[exp(BB*(i-1))-1], size= 683 , AA= 0.95337E-04 BB= 0.16949E-01
 Shapefunction is NUMERIC type: directly read from atomic data file
 Radius for shape functions = sphere core radius
 Radial grid used for partial waves is grid 1
 Radial grid used for projectors is grid  2
 Radial grid used for (t)core density is grid 1
 Radial grid used for Vloc is grid 3
 Radial grid used for shape functions is grid 1
 Compensation charge density is taken into account in XC energy/potential
 pspatm: atomic psp has been read  and splines computed

- pspini: atom type   2  psp file is /home/gonze/ABINIT/ABINITv7.9.3/trunk/7.9.3-private/tests/Psps_for_tests/Fe-paw-abinit.xml
- pspatm: opening atomic psp file    /home/gonze/ABINIT/ABINITv7.9.3/trunk/7.9.3-private/tests/Psps_for_tests/Fe-paw-abinit.xml
- pspatm : Reading pseudopotential header in XML form from /home/gonze/ABINIT/ABINITv7.9.3/trunk/7.9.3-private/tests/Psps_for_tests/Fe-paw-abinit.xml
 Pseudopotential format is: paw10
 basis_size (lnmax)=  6 (lmn_size= 18), orbitals=   0   0   1   1   2   2
 Spheres core radius: rc_sph= 2.02984247
 3 radial meshes are used:
  - mesh 1: r(i)=AA*[exp(BB*(i-1))-1], size= 594 , AA= 0.95337E-04 BB= 0.16949E-01
  - mesh 2: r(i)=AA*[exp(BB*(i-1))-1], size= 590 , AA= 0.95337E-04 BB= 0.16949E-01
  - mesh 3: r(i)=AA*[exp(BB*(i-1))-1], size= 683 , AA= 0.95337E-04 BB= 0.16949E-01
 Shapefunction is NUMERIC type: directly read from atomic data file
 Radius for shape functions =  2.02984247
 mmax=  594
 Radial grid used for partial waves is grid 1
 Radial grid used for projectors is grid 2
 Radial grid used for (t)core density is grid 1
 Radial grid used for Vloc is grid 3
 Radial grid used for shape functions is grid 1
 Compensation charge density is taken into account in XC energy/potential
 pspatm: atomic psp has been read  and splines computed

   5.80402498E+02                                ecore*ucvol(ha*bohr**3)
--------------------------------------------------------------------------------

P newkpt: treating     14 bands with npw=      83 for ikpt=   1 by node    0
P newkpt: treating     14 bands with npw=      83 for ikpt=   2 by node    0
P newkpt: treating     14 bands with npw=      84 for ikpt=   3 by node    0
P newkpt: treating     14 bands with npw=      83 for ikpt=   4 by node    0
P newkpt: treating     14 bands with npw=      85 for ikpt=   5 by node    0
P newkpt: treating     14 bands with npw=      86 for ikpt=   6 by node    0
P newkpt: treating     14 bands with npw=      86 for ikpt=   7 by node    0
P newkpt: treating     14 bands with npw=      89 for ikpt=   8 by node    0
P newkpt: treating     14 bands with npw=      84 for ikpt=   9 by node    0
P newkpt: treating     14 bands with npw=      80 for ikpt=  10 by node    0
P newkpt: treating     14 bands with npw=      87 for ikpt=  11 by node    0
P newkpt: treating     14 bands with npw=      91 for ikpt=  12 by node    0
P newkpt: treating     14 bands with npw=      89 for ikpt=  13 by node    0
P newkpt: treating     14 bands with npw=      88 for ikpt=  14 by node    0
P newkpt: treating     14 bands with npw=      83 for ikpt=   1 by node    0
P newkpt: treating     14 bands with npw=      83 for ikpt=   2 by node    0
P newkpt: treating     14 bands with npw=      84 for ikpt=   3 by node    0
P newkpt: treating     14 bands with npw=      83 for ikpt=   4 by node    0
P newkpt: treating     14 bands with npw=      85 for ikpt=   5 by node    0
P newkpt: treating     14 bands with npw=      86 for ikpt=   6 by node    0
P newkpt: treating     14 bands with npw=      86 for ikpt=   7 by node    0
P newkpt: treating     14 bands with npw=      89 for ikpt=   8 by node    0
P newkpt: treating     14 bands with npw=      84 for ikpt=   9 by node    0
P newkpt: treating     14 bands with npw=      80 for ikpt=  10 by node    0
P newkpt: treating     14 bands with npw=      87 for ikpt=  11 by node    0
P newkpt: treating     14 bands with npw=      91 for ikpt=  12 by node    0
P newkpt: treating     14 bands with npw=      89 for ikpt=  13 by node    0
P newkpt: treating     14 bands with npw=      88 for ikpt=  14 by node    0

_setup2: Arith. and geom. avg. npw (full set) are      86.056      86.016

================================================================================

     iter   Etot(hartree)     deltaE(h) residm    nres2    magn
 ETOT  1  -125.89063633086    -1.26E+02 1.36E+01 1.49E+02 1.511
 ETOT  2  -124.97911025645     9.12E-01 3.17E-02 6.50E+00 1.488
 ETOT  3  -124.61996878538     3.59E-01 3.34E-01 3.12E+01 2.130
 ETOT  4  -124.39139827476     2.29E-01 2.59E-02 7.64E+00 2.351
 ETOT  5  -124.38119225330     1.02E-02 4.77E-04 5.78E+00 2.352
 ETOT  6  -124.32879962676     5.24E-02 1.47E-02 3.93E-02 2.298
 ETOT  7  -124.32907635302    -2.77E-04 3.51E-04 1.11E-02 2.295
 ETOT  8  -124.32917416250    -9.78E-05 9.06E-05 4.38E-03 2.353
 ETOT  9  -124.32924142787    -6.73E-05 1.92E-05 8.60E-03 2.348
 ETOT 10  -124.32923139726     1.00E-05 5.19E-06 3.34E-03 2.356
 ETOT 11  -124.32920277546     2.86E-05 8.51E-06 6.73E-06 2.357
 ETOT 12  -124.32920304233    -2.67E-07 3.83E-07 2.38E-05 2.357
 ETOT 13  -124.32920283536     2.07E-07 1.02E-07 1.67E-06 2.357
 ETOT 14  -124.32920282962     5.73E-09 7.16E-09 2.65E-07 2.357
 ETOT 15  -124.32920282727     2.35E-09 7.50E-09 1.16E-08 2.357
 ETOT 16  -124.32920282727     2.19E-12 4.40E-10 4.15E-10 2.357
 ETOT 17  -124.32920282726     9.88E-12 1.61E-10 7.61E-11 2.357

 At SCF step   17, etot is converged : 
  for the second time, diff in etot=  9.877E-12 < toldfe=  1.000E-10

 Cartesian components of stress tensor (hartree/bohr^3)
  sigma(1 1)=  7.55574305E-03  sigma(3 2)=  0.00000000E+00
  sigma(2 2)=  7.55574305E-03  sigma(3 1)=  0.00000000E+00
  sigma(3 3)=  7.55574305E-03  sigma(2 1)=  0.00000000E+00


 PAW TEST:
 ==== Compensation charge inside spheres ============
 The following values must be close to each other ...
 Compensation charge over spherical meshes =      9.576955286332534
 Compensation charge over fine fft grid    =      9.576888175913981

 ==== Results concerning PAW augmentation regions ====

 Total pseudopotential strength Dij (hartree):
 Atom #  1 - Spin component 1
  -2.53831   0.26334   0.00000   0.00000   0.00000   0.00000   0.00000   0.00000   0.00000   0.00000   0.00000   0.00000 ...
   0.26334   0.06298   0.00000   0.00000   0.00000   0.00000   0.00000   0.00000   0.00000   0.00000   0.00000   0.00000 ...
   0.00000   0.00000  -1.81710   0.00000   0.00000   0.07938   0.00000   0.00000   0.00000   0.00000   0.00000   0.00000 ...
   0.00000   0.00000   0.00000  -1.81710   0.00000   0.00000   0.07938   0.00000   0.00000   0.00000   0.00000   0.00000 ...
   0.00000   0.00000   0.00000   0.00000  -1.81710   0.00000   0.00000   0.07938   0.00000   0.00000   0.00000   0.00000 ...
   0.00000   0.00000   0.07938   0.00000   0.00000   0.01691   0.00000   0.00000   0.00000   0.00000   0.00000   0.00000 ...
   0.00000   0.00000   0.00000   0.07938   0.00000   0.00000   0.01691   0.00000   0.00000   0.00000   0.00000   0.00000 ...
   0.00000   0.00000   0.00000   0.00000   0.07938   0.00000   0.00000   0.01691   0.00000   0.00000   0.00000   0.00000 ...
   0.00000   0.00000   0.00000   0.00000   0.00000   0.00000   0.00000   0.00000  -0.22332   0.00000   0.00000   0.00000 ...
   0.00000   0.00000   0.00000   0.00000   0.00000   0.00000   0.00000   0.00000   0.00000  -0.22332   0.00000   0.00000 ...
   0.00000   0.00000   0.00000   0.00000   0.00000   0.00000   0.00000   0.00000   0.00000   0.00000  -0.22691   0.00000 ...
   0.00000   0.00000   0.00000   0.00000   0.00000   0.00000   0.00000   0.00000   0.00000   0.00000   0.00000  -0.22332 ...
   ...  only 12  components have been written...
 Atom #  1 - Spin component 2
  -2.47606   0.24867   0.00000   0.00000   0.00000   0.00000   0.00000   0.00000   0.00000   0.00000   0.00000   0.00000 ...
   0.24867   0.06380   0.00000   0.00000   0.00000   0.00000   0.00000   0.00000   0.00000   0.00000   0.00000   0.00000 ...
   0.00000   0.00000  -1.73723   0.00000   0.00000   0.06972   0.00000   0.00000   0.00000   0.00000   0.00000   0.00000 ...
   0.00000   0.00000   0.00000  -1.73723   0.00000   0.00000   0.06972   0.00000   0.00000   0.00000   0.00000   0.00000 ...
   0.00000   0.00000   0.00000   0.00000  -1.73723   0.00000   0.00000   0.06972   0.00000   0.00000   0.00000   0.00000 ...
   0.00000   0.00000   0.06972   0.00000   0.00000   0.01755   0.00000   0.00000   0.00000   0.00000   0.00000   0.00000 ...
   0.00000   0.00000   0.00000   0.06972   0.00000   0.00000   0.01755   0.00000   0.00000   0.00000   0.00000   0.00000 ...
   0.00000   0.00000   0.00000   0.00000   0.06972   0.00000   0.00000   0.01755   0.00000   0.00000   0.00000   0.00000 ...
   0.00000   0.00000   0.00000   0.00000   0.00000   0.00000   0.00000   0.00000  -0.16397   0.00000   0.00000   0.00000 ...
   0.00000   0.00000   0.00000   0.00000   0.00000   0.00000   0.00000   0.00000   0.00000  -0.16397   0.00000   0.00000 ...
   0.00000   0.00000   0.00000   0.00000   0.00000   0.00000   0.00000   0.00000   0.00000   0.00000  -0.16068   0.00000 ...
   0.00000   0.00000   0.00000   0.00000   0.00000   0.00000   0.00000   0.00000   0.00000   0.00000   0.00000  -0.16397 ...
   ...  only 12  components have been written...


 Augmentation waves occupancies Rhoij:
 Atom #  1 - Spin component 1
   0.99921  -0.02033   0.00000   0.00000   0.00000   0.00000   0.00000   0.00000   0.00000   0.00000   0.00000   0.00000 ...
  -0.02033   0.65063   0.00000   0.00000   0.00000   0.00000   0.00000   0.00000   0.00000   0.00000   0.00000   0.00000 ...
   0.00000   0.00000   1.00562   0.00000   0.00000   0.02173   0.00000   0.00000   0.00000   0.00000   0.00000   0.00000 ...
   0.00000   0.00000   0.00000   1.00562   0.00000   0.00000   0.02173   0.00000   0.00000   0.00000   0.00000   0.00000 ...
   0.00000   0.00000   0.00000   0.00000   1.00562   0.00000   0.00000   0.02173   0.00000   0.00000   0.00000   0.00000 ...
   0.00000   0.00000   0.02173   0.00000   0.00000   0.71749   0.00000   0.00000   0.00000   0.00000   0.00000   0.00000 ...
   0.00000   0.00000   0.00000   0.02173   0.00000   0.00000   0.71749   0.00000   0.00000   0.00000   0.00000   0.00000 ...
   0.00000   0.00000   0.00000   0.00000   0.02173   0.00000   0.00000   0.71749   0.00000   0.00000   0.00000   0.00000 ...
   0.00000   0.00000   0.00000   0.00000   0.00000   0.00000   0.00000   0.00000   1.00191   0.00000   0.00000   0.00000 ...
   0.00000   0.00000   0.00000   0.00000   0.00000   0.00000   0.00000   0.00000   0.00000   1.00191   0.00000   0.00000 ...
   0.00000   0.00000   0.00000   0.00000   0.00000   0.00000   0.00000   0.00000   0.00000   0.00000   0.99312   0.00000 ...
   0.00000   0.00000   0.00000   0.00000   0.00000   0.00000   0.00000   0.00000   0.00000   0.00000   0.00000   1.00191 ...
   ...  only 12  components have been written...
 Atom #  1 - Spin component 2
   0.99974  -0.01372   0.00000   0.00000   0.00000   0.00000   0.00000   0.00000   0.00000   0.00000   0.00000   0.00000 ...
  -0.01372   0.68331   0.00000   0.00000   0.00000   0.00000   0.00000   0.00000   0.00000   0.00000   0.00000   0.00000 ...
   0.00000   0.00000   1.00683   0.00000   0.00000   0.04380   0.00000   0.00000   0.00000   0.00000   0.00000   0.00000 ...
   0.00000   0.00000   0.00000   1.00683   0.00000   0.00000   0.04380   0.00000   0.00000   0.00000   0.00000   0.00000 ...
   0.00000   0.00000   0.00000   0.00000   1.00683   0.00000   0.00000   0.04380   0.00000   0.00000   0.00000   0.00000 ...
   0.00000   0.00000   0.04380   0.00000   0.00000   0.96388   0.00000   0.00000   0.00000   0.00000   0.00000   0.00000 ...
   0.00000   0.00000   0.00000   0.04380   0.00000   0.00000   0.96388   0.00000   0.00000   0.00000   0.00000   0.00000 ...
   0.00000   0.00000   0.00000   0.00000   0.04380   0.00000   0.00000   0.96388   0.00000   0.00000   0.00000   0.00000 ...
   0.00000   0.00000   0.00000   0.00000   0.00000   0.00000   0.00000   0.00000   0.60508   0.00000   0.00000   0.00000 ...
   0.00000   0.00000   0.00000   0.00000   0.00000   0.00000   0.00000   0.00000   0.00000   0.60508   0.00000   0.00000 ...
   0.00000   0.00000   0.00000   0.00000   0.00000   0.00000   0.00000   0.00000   0.00000   0.00000   0.41048   0.00000 ...
   0.00000   0.00000   0.00000   0.00000   0.00000   0.00000   0.00000   0.00000   0.00000   0.00000   0.00000   0.60508 ...
   ...  only 12  components have been written...


================================================================================

 ----iterations are completed or convergence reached----

 Mean square residual over all n,k,spin=   7.6051E-13; max=  1.6143E-10
   0.0833  0.0833  0.0833    1  1.10593E-13 kpt; spin; max resid(k); each band:
  3.71E-15 5.50E-15 1.31E-15 1.31E-15 1.87E-14 2.34E-14 2.34E-14 9.06E-15
  9.06E-15 1.17E-14 1.11E-13 1.11E-13 3.93E-14 1.53E-18
   0.2500  0.0833  0.0833    1  1.22095E-13 kpt; spin; max resid(k); each band:
  3.95E-15 7.49E-15 3.63E-15 2.41E-15 1.17E-13 4.69E-14 1.06E-13 1.99E-15
  4.00E-15 5.01E-14 1.22E-13 1.03E-13 3.76E-14 5.54E-14
   0.4167  0.0833  0.0833    1  1.30830E-13 kpt; spin; max resid(k); each band:
  3.72E-15 7.63E-15 4.78E-15 2.82E-15 1.10E-13 6.45E-14 1.01E-13 1.24E-15
  1.44E-17 1.31E-13 9.71E-14 1.22E-13 3.32E-14 1.05E-13
  -0.0833  0.0833  0.0833    1  8.41351E-14 kpt; spin; max resid(k); each band:
  3.59E-15 3.17E-15 3.69E-16 3.69E-16 1.10E-14 1.10E-14 1.10E-14 6.42E-17
  2.01E-14 1.17E-14 8.41E-14 3.40E-14 3.40E-14 7.39E-14
   0.2500  0.2500  0.0833    1  1.40808E-13 kpt; spin; max resid(k); each band:
  3.80E-15 6.92E-15 5.07E-15 3.53E-15 8.56E-14 8.81E-14 9.99E-14 6.69E-15
  7.48E-16 1.20E-13 1.41E-13 5.54E-14 5.24E-14 6.78E-14
  -0.2500  0.2500  0.0833    1  1.61431E-10 kpt; spin; max resid(k); each band:
  3.64E-15 5.62E-15 2.79E-15 3.40E-15 5.93E-14 2.02E-14 7.08E-14 2.53E-14
  4.83E-15 7.68E-15 1.12E-13 7.11E-14 8.45E-14 1.61E-10
  -0.4167  0.4167  0.0833    1  1.22021E-13 kpt; spin; max resid(k); each band:
  3.45E-15 7.53E-15 5.38E-15 2.16E-15 1.12E-13 5.61E-14 7.04E-14 1.20E-14
  1.45E-15 1.10E-13 1.22E-13 5.21E-14 4.84E-14 9.58E-14
  -0.2500  0.4167  0.0833    1  1.47513E-13 kpt; spin; max resid(k); each band:
  3.46E-15 7.25E-15 4.45E-15 3.72E-15 1.09E-13 8.63E-14 4.21E-14 2.43E-14
  2.75E-15 7.79E-14 1.48E-13 6.46E-14 4.30E-14 8.30E-14
  -0.4167 -0.4167  0.0833    1  1.58714E-13 kpt; spin; max resid(k); each band:
  3.40E-15 6.82E-15 5.36E-15 3.76E-15 1.13E-13 4.27E-14 7.70E-14 1.78E-14
  5.07E-15 1.21E-13 9.77E-14 7.83E-14 4.27E-14 1.59E-13
   0.2500  0.2500  0.2500    1  4.51302E-13 kpt; spin; max resid(k); each band:
  3.93E-15 5.34E-15 5.34E-15 5.34E-15 8.92E-14 8.92E-14 8.91E-14 8.46E-18
  8.45E-18 1.23E-13 1.23E-13 1.23E-13 9.75E-15 4.51E-13
  -0.2500  0.2500  0.2500    1  1.97522E-13 kpt; spin; max resid(k); each band:
  3.50E-15 5.32E-15 3.96E-15 3.96E-15 9.37E-14 9.75E-14 2.80E-14 2.80E-14
  6.19E-17 4.25E-14 8.15E-14 8.15E-14 1.98E-13 1.95E-14
  -0.4167  0.4167  0.2500    1  1.56146E-13 kpt; spin; max resid(k); each band:
  3.06E-15 6.52E-15 4.99E-15 3.55E-15 1.27E-13 1.37E-13 1.78E-14 2.20E-14
  8.23E-16 1.07E-13 1.13E-13 5.95E-14 1.56E-13 9.77E-14
  -0.4167 -0.4167  0.2500    1  1.51858E-13 kpt; spin; max resid(k); each band:
  2.39E-15 6.32E-15 6.32E-15 1.79E-15 1.52E-13 1.52E-13 1.98E-14 6.75E-15
  6.76E-15 1.04E-13 1.04E-13 6.60E-14 1.32E-13 1.39E-13
  -0.4167  0.4167  0.4167    1  2.38027E-13 kpt; spin; max resid(k); each band:
  2.09E-15 5.79E-15 5.79E-15 4.93E-15 1.73E-13 1.42E-13 6.39E-15 6.39E-15
  1.09E-17 9.05E-14 4.14E-14 4.14E-14 2.38E-13 1.59E-13
   0.0833  0.0833  0.0833    2  1.10560E-13 kpt; spin; max resid(k); each band:
  5.78E-15 8.69E-15 1.65E-15 1.65E-15 2.54E-14 3.88E-14 3.88E-14 2.63E-14
  8.13E-15 8.13E-15 1.11E-13 1.11E-13 8.35E-14 7.30E-17
   0.2500  0.0833  0.0833    2  1.44066E-13 kpt; spin; max resid(k); each band:
  5.68E-15 1.12E-14 5.55E-15 2.71E-15 1.20E-13 8.66E-14 1.06E-13 1.31E-15
  3.22E-15 2.89E-14 1.44E-13 1.10E-13 8.47E-14 8.08E-14
   0.4167  0.0833  0.0833    2  1.50214E-13 kpt; spin; max resid(k); each band:
  5.41E-15 1.10E-14 7.94E-15 2.94E-15 1.50E-13 1.29E-13 1.36E-13 2.13E-15
  1.22E-16 9.49E-14 1.47E-13 1.30E-13 6.95E-14 1.24E-13
  -0.0833  0.0833  0.0833    2  6.72494E-14 kpt; spin; max resid(k); each band:
  5.49E-15 3.65E-15 4.24E-16 4.24E-16 1.76E-14 2.27E-14 2.27E-14 6.79E-16
  1.86E-14 7.82E-15 6.53E-14 6.14E-14 6.14E-14 6.72E-14
   0.2500  0.2500  0.0833    2  1.47003E-13 kpt; spin; max resid(k); each band:
  5.67E-15 1.04E-14 7.39E-15 4.44E-15 1.47E-13 1.28E-13 1.21E-13 9.99E-15
  9.54E-16 1.04E-13 1.43E-13 1.28E-13 1.07E-13 5.59E-14
  -0.2500  0.2500  0.0833    2  1.14230E-10 kpt; spin; max resid(k); each band:
  5.11E-15 8.32E-15 4.67E-15 3.96E-15 4.61E-14 9.59E-14 5.01E-14 3.47E-14
  1.61E-14 3.31E-15 1.60E-13 6.28E-14 1.48E-13 1.14E-10
  -0.4167  0.4167  0.0833    2  1.67768E-13 kpt; spin; max resid(k); each band:
  4.72E-15 1.12E-14 1.05E-14 2.35E-15 1.51E-13 1.24E-13 1.35E-13 1.40E-14
  4.80E-15 3.85E-14 1.51E-13 4.21E-14 1.20E-13 1.68E-13
  -0.2500  0.4167  0.0833    2  1.55423E-13 kpt; spin; max resid(k); each band:
  4.87E-15 1.17E-14 7.52E-15 4.95E-15 1.19E-13 1.20E-13 4.74E-14 4.33E-14
  7.54E-15 4.17E-14 1.55E-13 1.09E-13 4.47E-14 1.14E-13
  -0.4167 -0.4167  0.0833    2  1.70977E-13 kpt; spin; max resid(k); each band:
  4.91E-15 1.05E-14 9.17E-15 5.56E-15 1.29E-13 1.27E-13 8.53E-14 3.44E-14
  6.01E-15 1.29E-13 1.54E-13 1.41E-13 5.78E-14 1.71E-13
   0.2500  0.2500  0.2500    2  1.45321E-13 kpt; spin; max resid(k); each band:
  5.86E-15 6.96E-15 6.95E-15 6.95E-15 1.29E-13 1.28E-13 1.28E-13 6.41E-17
  6.41E-17 1.45E-13 1.45E-13 1.45E-13 1.60E-14 6.77E-17
  -0.2500  0.2500  0.2500    2  2.12111E-13 kpt; spin; max resid(k); each band:
  4.82E-15 6.64E-15 7.16E-15 7.16E-15 8.70E-14 9.65E-14 6.89E-14 6.89E-14
  2.04E-18 2.98E-14 2.12E-13 2.12E-13 1.70E-13 2.81E-14
  -0.4167  0.4167  0.2500    2  1.85926E-13 kpt; spin; max resid(k); each band:
  4.19E-15 1.13E-14 9.33E-15 5.59E-15 1.34E-13 1.34E-13 4.71E-14 5.71E-14
  2.72E-15 1.62E-13 1.86E-13 1.41E-13 1.45E-13 1.27E-13
  -0.4167 -0.4167  0.2500    2  1.86159E-13 kpt; spin; max resid(k); each band:
  3.24E-15 1.15E-14 1.15E-14 3.89E-15 1.41E-13 1.41E-13 5.12E-14 1.96E-14
  1.96E-14 1.80E-13 1.80E-13 1.44E-13 1.86E-13 1.65E-13
  -0.4167  0.4167  0.4167    2  1.90237E-13 kpt; spin; max resid(k); each band:
  2.31E-15 1.13E-14 1.13E-14 9.42E-15 1.53E-13 1.46E-13 1.95E-14 1.95E-14
  1.68E-16 1.66E-13 1.11E-13 9.80E-14 1.90E-13 1.59E-13
 reduced coordinates (array xred) for    1 atoms
       0.000000000000      0.000000000000      0.000000000000
 rms dE/dt=  0.0000E+00; max dE/dt=  0.0000E+00; dE/dt below (all hartree)
    1       0.000000000000      0.000000000000      0.000000000000

 cartesian coordinates (angstrom) at end:
    1      0.00000000000000     0.00000000000000     0.00000000000000

 cartesian forces (hartree/bohr) at end:
    1     -0.00000000000000    -0.00000000000000    -0.00000000000000
 frms,max,avg= 0.0000000E+00 0.0000000E+00   0.000E+00  0.000E+00  0.000E+00 h/b

 cartesian forces (eV/Angstrom) at end:
    1     -0.00000000000000    -0.00000000000000    -0.00000000000000
 frms,max,avg= 0.0000000E+00 0.0000000E+00   0.000E+00  0.000E+00  0.000E+00 e/A
 length scales=  5.420000000000  5.420000000000  5.420000000000 bohr
              =  2.868140470558  2.868140470558  2.868140470558 angstroms
 Fermi (or HOMO) energy (hartree) =   0.25886   Average Vxc (hartree)=  -0.50478
 Magnetization (Bohr magneton)=  2.35681416E+00
 Total spin up =  9.17840708E+00   Total spin down =  6.82159292E+00
 Eigenvalues (hartree) for nkpt=  14  k points, SPIN UP:
 kpt#   1, nband= 14, wtk=  0.03704, kpt=  0.0833  0.0833  0.0833 (reduced coord)
  -3.00045  -1.74104  -1.73910  -1.73910   0.01976   0.16452   0.16452   0.21085
   0.21085   0.21253   0.96804   0.96804   1.09186   1.21489
      occupation numbers for kpt#   1
   1.00000   1.00000   1.00000   1.00000   1.00000   1.00000   1.00000   1.00000
   1.00000   1.00000   0.00000   0.00000   0.00000   0.00000
 kpt#   2, nband= 14, wtk=  0.11111, kpt=  0.2500  0.0833  0.0833 (reduced coord)
  -2.99936  -1.74824  -1.74051  -1.73744   0.09216   0.14783   0.16535   0.21636
   0.22591   0.26947   0.70089   0.87014   0.92418   1.23856
      occupation numbers for kpt#   2
   1.00000   1.00000   1.00000   1.00000   1.00000   1.00000   1.00000   1.00000
   1.00000   0.03035   0.00000   0.00000   0.00000   0.00000
 kpt#   3, nband= 14, wtk=  0.05556, kpt=  0.4167  0.0833  0.0833 (reduced coord)
  -2.99898  -1.75029  -1.74383  -1.73814   0.10040   0.13601   0.20464   0.22103
   0.22847   0.35391   0.51934   0.83081   0.87273   1.22638
      occupation numbers for kpt#   3
   1.00000   1.00000   1.00000   1.00000   1.00000   1.00000   1.00000   1.00000
   1.00000   0.00000   0.00000   0.00000   0.00000   0.00000
 kpt#   4, nband= 14, wtk=  0.02778, kpt= -0.0833  0.0833  0.0833 (reduced coord)
  -3.00118  -1.73968  -1.73954  -1.73954  -0.01792   0.17569   0.17569   0.17975
   0.20359   0.21534   1.06876   1.13419   1.13419   1.22658
      occupation numbers for kpt#   4
   1.00000   1.00000   1.00000   1.00000   1.00000   1.00000   1.00000   1.00000
   1.00000   1.00000   0.00000   0.00000   0.00000   0.00000
 kpt#   5, nband= 14, wtk=  0.11111, kpt=  0.2500  0.2500  0.0833 (reduced coord)
  -2.99900  -1.74977  -1.74508  -1.73887   0.12557   0.13720   0.15798   0.22036
   0.22836   0.39747   0.60752   0.64426   0.83063   1.35368
      occupation numbers for kpt#   5
   1.00000   1.00000   1.00000   1.00000   1.00000   1.00000   1.00000   1.00000
   1.00000   0.00000   0.00000   0.00000   0.00000   0.00000
 kpt#   6, nband= 14, wtk=  0.11111, kpt= -0.2500  0.2500  0.0833 (reduced coord)
  -3.00008  -1.74595  -1.74097  -1.73816   0.05042   0.16277   0.16479   0.19951
   0.21110   0.22974   0.83328   1.00499   1.03655   1.22357
      occupation numbers for kpt#   6
   1.00000   1.00000   1.00000   1.00000   1.00000   1.00000   1.00000   1.00000
   1.00000   1.00000   0.00000   0.00000   0.00000   0.00000
 kpt#   7, nband= 14, wtk=  0.11111, kpt= -0.4167  0.4167  0.0833 (reduced coord)
  -2.99905  -1.75116  -1.74385  -1.73703   0.09120   0.14829   0.19138   0.21552
   0.24763   0.28137   0.57534   0.92559   0.94228   1.18744
      occupation numbers for kpt#   7
   1.00000   1.00000   1.00000   1.00000   1.00000   1.00000   1.00000   1.00000
   0.97649   0.00003   0.00000   0.00000   0.00000   0.00000
 kpt#   8, nband= 14, wtk=  0.11111, kpt= -0.2500  0.4167  0.0833 (reduced coord)
  -2.99924  -1.75009  -1.74491  -1.73996   0.10772   0.13994   0.16855   0.19971
   0.22876   0.29069   0.71654   0.74243   1.08190   1.09322
      occupation numbers for kpt#   8
   1.00000   1.00000   1.00000   1.00000   1.00000   1.00000   1.00000   1.00000
   1.00000   0.00000   0.00000   0.00000   0.00000   0.00000
 kpt#   9, nband= 14, wtk=  0.11111, kpt= -0.4167 -0.4167  0.0833 (reduced coord)
  -2.99849  -1.74876  -1.74535  -1.73873   0.11908   0.15317   0.16063   0.21164
   0.23913   0.41924   0.52847   0.68961   1.03650   1.15768
      occupation numbers for kpt#   9
   1.00000   1.00000   1.00000   1.00000   1.00000   1.00000   1.00000   1.00000
   0.99976   0.00000   0.00000   0.00000   0.00000   0.00000
 kpt#  10, nband= 14, wtk=  0.00926, kpt=  0.2500  0.2500  0.2500 (reduced coord)
  -2.99880  -1.74370  -1.74370  -1.74370   0.14196   0.14196   0.14196   0.23205
   0.23205   0.56857   0.56857   0.56857   0.64028   1.65944
      occupation numbers for kpt#  10
   1.00000   1.00000   1.00000   1.00000   1.00000   1.00000   1.00000   1.00000
   1.00000   0.00000   0.00000   0.00000   0.00000   0.00000
 kpt#  11, nband= 14, wtk=  0.02778, kpt= -0.2500  0.2500  0.2500 (reduced coord)
  -2.99920  -1.74539  -1.74308  -1.74308   0.09770   0.15186   0.18434   0.18434
   0.21335   0.26595   0.87636   0.87636   0.89175   0.97450
      occupation numbers for kpt#  11
   1.00000   1.00000   1.00000   1.00000   1.00000   1.00000   1.00000   1.00000
   1.00000   0.10530   0.00000   0.00000   0.00000   0.00000
 kpt#  12, nband= 14, wtk=  0.11111, kpt= -0.4167  0.4167  0.2500 (reduced coord)
  -2.99843  -1.75041  -1.74604  -1.74422   0.11300   0.12861   0.18529   0.19993
   0.24546   0.37933   0.61945   0.77230   0.88054   1.04405
      occupation numbers for kpt#  12
   1.00000   1.00000   1.00000   1.00000   1.00000   1.00000   1.00000   1.00000
   0.99108   0.00000   0.00000   0.00000   0.00000   0.00000
 kpt#  13, nband= 14, wtk=  0.03704, kpt= -0.4167 -0.4167  0.2500 (reduced coord)
  -2.99788  -1.74787  -1.74787  -1.74464   0.11490   0.11490   0.18661   0.23833
   0.23833   0.54710   0.54710   0.60249   0.98046   0.98046
      occupation numbers for kpt#  13
   1.00000   1.00000   1.00000   1.00000   1.00000   1.00000   1.00000   0.99986
   0.99986   0.00000   0.00000   0.00000   0.00000   0.00000
 kpt#  14, nband= 14, wtk=  0.02778, kpt= -0.4167  0.4167  0.4167 (reduced coord)
  -2.99736  -1.74781  -1.74781  -1.74480   0.09681   0.10299   0.23980   0.23980
   0.24456   0.51090   0.65560   0.65560   0.82942   0.88560
      occupation numbers for kpt#  14
   1.00000   1.00000   1.00000   1.00000   1.00000   1.00000   0.99962   0.99962
   0.99427   0.00000   0.00000   0.00000   0.00000   0.00000
 Eigenvalues (hartree) for nkpt=  14  k points, SPIN DOWN:
 kpt#   1, nband= 14, wtk=  0.03704, kpt=  0.0833  0.0833  0.0833 (reduced coord)
  -2.89656  -1.63974  -1.63724  -1.63724   0.02480   0.24185   0.24185   0.29634
   0.30847   0.30847   0.97650   0.97650   1.11992   1.20396
      occupation numbers for kpt#   1
   1.00000   1.00000   1.00000   1.00000   1.00000   0.99869   0.99869   0.00000
   0.00000   0.00000   0.00000   0.00000   0.00000   0.00000
 kpt#   2, nband= 14, wtk=  0.11111, kpt=  0.2500  0.0833  0.0833 (reduced coord)
  -2.89539  -1.64745  -1.63897  -1.63568   0.11537   0.22029   0.22509   0.31251
   0.32537   0.34956   0.72909   0.88140   0.94823   1.23706
      occupation numbers for kpt#   2
   1.00000   1.00000   1.00000   1.00000   1.00000   1.00000   1.00000   0.00000
   0.00000   0.00000   0.00000   0.00000   0.00000   0.00000
 kpt#   3, nband= 14, wtk=  0.05556, kpt=  0.4167  0.0833  0.0833 (reduced coord)
  -2.89496  -1.64976  -1.64236  -1.63640   0.15259   0.20699   0.25044   0.31735
   0.32914   0.40259   0.56934   0.84164   0.89466   1.23005
      occupation numbers for kpt#   3
   1.00000   1.00000   1.00000   1.00000   1.00000   1.00000   0.93167   0.00000
   0.00000   0.00000   0.00000   0.00000   0.00000   0.00000
 kpt#   4, nband= 14, wtk=  0.02778, kpt= -0.0833  0.0833  0.0833 (reduced coord)
  -2.89733  -1.63789  -1.63766  -1.63766  -0.01372   0.25619   0.25619   0.26179
   0.29974   0.31485   1.06497   1.13321   1.13321   1.23603
      occupation numbers for kpt#   4
   1.00000   1.00000   1.00000   1.00000   1.00000   0.68200   0.68200   0.30261
   0.00000   0.00000   0.00000   0.00000   0.00000   0.00000
 kpt#   5, nband= 14, wtk=  0.11111, kpt=  0.2500  0.2500  0.0833 (reduced coord)
  -2.89497  -1.64895  -1.64378  -1.63727   0.18009   0.20031   0.21394   0.31802
   0.32784   0.45025   0.63871   0.67318   0.85025   1.35130
      occupation numbers for kpt#   5
   1.00000   1.00000   1.00000   1.00000   1.00000   1.00000   1.00000   0.00000
   0.00000   0.00000   0.00000   0.00000   0.00000   0.00000
 kpt#   6, nband= 14, wtk=  0.11111, kpt= -0.2500  0.2500  0.0833 (reduced coord)
  -2.89615  -1.64470  -1.63928  -1.63638   0.05899   0.23907   0.23982   0.29040
   0.29736   0.32821   0.85382   1.00808   1.05499   1.23521
      occupation numbers for kpt#   6
   1.00000   1.00000   1.00000   1.00000   1.00000   0.99977   0.99962   0.00000
   0.00000   0.00000   0.00000   0.00000   0.00000   0.00000
 kpt#   7, nband= 14, wtk=  0.11111, kpt= -0.4167  0.4167  0.0833 (reduced coord)
  -2.89503  -1.65055  -1.64230  -1.63528   0.13634   0.22216   0.24616   0.30519
   0.34063   0.34723   0.61678   0.92738   0.96320   1.20269
      occupation numbers for kpt#   7
   1.00000   1.00000   1.00000   1.00000   1.00000   1.00000   0.98763   0.00000
   0.00000   0.00000   0.00000   0.00000   0.00000   0.00000
 kpt#   8, nband= 14, wtk=  0.11111, kpt= -0.2500  0.4167  0.0833 (reduced coord)
  -2.89522  -1.64919  -1.64345  -1.63825   0.13779   0.21104   0.23834   0.28881
   0.32295   0.36456   0.74381   0.76686   1.09458   1.10041
      occupation numbers for kpt#   8
   1.00000   1.00000   1.00000   1.00000   1.00000   1.00000   0.99986   0.00000
   0.00000   0.00000   0.00000   0.00000   0.00000   0.00000
 kpt#   9, nband= 14, wtk=  0.11111, kpt= -0.4167 -0.4167  0.0833 (reduced coord)
  -2.89444  -1.64813  -1.64416  -1.63705   0.17649   0.21842   0.22421   0.30230
   0.33106   0.46180   0.57323   0.71492   1.04634   1.17051
      occupation numbers for kpt#   9
   1.00000   1.00000   1.00000   1.00000   1.00000   1.00000   1.00000   0.00000
   0.00000   0.00000   0.00000   0.00000   0.00000   0.00000
 kpt#  10, nband= 14, wtk=  0.00926, kpt=  0.2500  0.2500  0.2500 (reduced coord)
  -2.89478  -1.64256  -1.64256  -1.64256   0.20139   0.20139   0.20139   0.33280
   0.33280   0.60111   0.60111   0.60111   0.66874   1.64967
      occupation numbers for kpt#  10
   1.00000   1.00000   1.00000   1.00000   1.00000   1.00000   1.00000   0.00000
   0.00000   0.00000   0.00000   0.00000   0.00000   0.00000
 kpt#  11, nband= 14, wtk=  0.02778, kpt= -0.2500  0.2500  0.2500 (reduced coord)
  -2.89520  -1.64428  -1.64158  -1.64158   0.11691   0.23211   0.26335   0.26335
   0.29999   0.35015   0.89848   0.89848   0.90701   0.98726
      occupation numbers for kpt#  11
   1.00000   1.00000   1.00000   1.00000   1.00000   1.00000   0.21378   0.21378
   0.00000   0.00000   0.00000   0.00000   0.00000   0.00000
 kpt#  12, nband= 14, wtk=  0.11111, kpt= -0.4167  0.4167  0.2500 (reduced coord)
  -2.89434  -1.64957  -1.64472  -1.64277   0.16866   0.19424   0.26417   0.28259
   0.33762   0.42505   0.65082   0.79240   0.89858   1.05594
      occupation numbers for kpt#  12
   1.00000   1.00000   1.00000   1.00000   1.00000   1.00000   0.17429   0.00001
   0.00000   0.00000   0.00000   0.00000   0.00000   0.00000
 kpt#  13, nband= 14, wtk=  0.03704, kpt= -0.4167 -0.4167  0.2500 (reduced coord)
  -2.89375  -1.64695  -1.64695  -1.64321   0.17973   0.17973   0.26297   0.32736
   0.32736   0.57679   0.57679   0.62967   0.99353   0.99353
      occupation numbers for kpt#  13
   1.00000   1.00000   1.00000   1.00000   1.00000   1.00000   0.23398   0.00000
   0.00000   0.00000   0.00000   0.00000   0.00000   0.00000
 kpt#  14, nband= 14, wtk=  0.02778, kpt= -0.4167  0.4167  0.4167 (reduced coord)
  -2.89322  -1.64674  -1.64674  -1.64392   0.16413   0.16560   0.32746   0.32746
   0.33661   0.53405   0.66945   0.66945   0.85816   0.90880
      occupation numbers for kpt#  14
   1.00000   1.00000   1.00000   1.00000   1.00000   1.00000   0.00000   0.00000
   0.00000   0.00000   0.00000   0.00000   0.00000   0.00000
 Total charge density [el/Bohr^3]
,     Maximum=    2.6947E+00  at reduced coord.    0.0000    0.0000    0.0000
,Next maximum=    2.4758E+00  at reduced coord.    0.9333    0.9333    0.9333
,     Minimum=    3.2487E-02  at reduced coord.    0.5333    0.4667    0.0000
,Next minimum=    3.2487E-02  at reduced coord.    0.4667    0.5333    0.0000
,  Integrated=    1.6000E+01
 Spin up density      [el/Bohr^3]
,     Maximum=    1.5737E+00  at reduced coord.    0.0000    0.0000    0.0000
,Next maximum=    1.4433E+00  at reduced coord.    0.9333    0.9333    0.9333
,     Minimum=    1.4584E-02  at reduced coord.    0.5333    0.4667    0.0000
,Next minimum=    1.4584E-02  at reduced coord.    0.4667    0.5333    0.0000
,  Integrated=    9.1784E+00
 Spin down density    [el/Bohr^3]
,     Maximum=    1.1210E+00  at reduced coord.    0.0000    0.0000    0.0000
,Next maximum=    1.0325E+00  at reduced coord.    0.9333    0.9333    0.9333
,     Minimum=    1.7785E-02  at reduced coord.    0.4667    0.4667    0.0000
,Next minimum=    1.7785E-02  at reduced coord.    0.5333    0.5333    0.0000
,  Integrated=    6.8216E+00
 Magnetization (spin up - spin down) [el/Bohr^3]
,     Maximum=    4.5268E-01  at reduced coord.    0.0000    0.0000    0.0000
,Next maximum=    4.1079E-01  at reduced coord.    0.9333    0.9333    0.9333
,     Minimum=   -4.4655E-03  at reduced coord.    0.7333    0.4667    0.2000
,Next minimum=   -4.4655E-03  at reduced coord.    0.4667    0.7333    0.2000
,  Integrated=    2.3568E+00
 Relative magnetization (=zeta, between -1 and 1)
,     Maximum=    2.3704E-01  at reduced coord.    0.6667    0.6667    0.9333
,Next maximum=    2.3704E-01  at reduced coord.    0.2667    0.2667    0.9333
,     Minimum=   -1.2381E-01  at reduced coord.    0.7333    0.4667    0.2000
,Next minimum=   -1.2381E-01  at reduced coord.    0.4667    0.7333    0.2000

--------------------------------------------------------------------------------
 Components of total free energy (in Hartree) :

    Kinetic energy  =  9.43397171630430E+00
    Hartree energy  =  2.34259387994880E+01
    XC energy       = -1.17481902835579E+01
    Ewald energy    = -8.59449965935601E+01
    PspCore energy  =  7.29056874017291E+00
    Loc. psp. energy= -5.93677602139467E+01
    Spherical terms = -7.41806262020018E+00
    >>>>> Internal E= -1.24328530455300E+02

    -kT*entropy     = -6.75223240372038E-04
    >>>>>>>>> Etotal= -1.24329205678540E+02

 "Double-counting" decomposition of free energy:
    Band energy     = -1.46182694124546E+01
    Ewald energy    = -8.59449965935601E+01
    PspCore energy  =  7.29056874017291E+00
    Dble-C XC-energy= -1.98362420985531E+01
    Spherical terms = -1.12195882396236E+01
    >>>>> Internal E= -1.24328527604019E+02

    -kT*entropy     = -6.75223240372038E-04
    >>>> Etotal (DC)= -1.24329202827259E+02

  >Total energy in eV           = -3.38316974072765E+03
  >Total DC energy in eV        = -3.38316966314034E+03
--------------------------------------------------------------------------------

 Cartesian components of stress tensor (hartree/bohr^3)
  sigma(1 1)=  7.55574305E-03  sigma(3 2)=  0.00000000E+00
  sigma(2 2)=  7.55574305E-03  sigma(3 1)=  0.00000000E+00
  sigma(3 3)=  7.55574305E-03  sigma(2 1)=  0.00000000E+00

-Cartesian components of stress tensor (GPa)         [Pressure= -2.2230E+02 GPa]
- sigma(1 1)=  2.22297598E+02  sigma(3 2)=  0.00000000E+00
- sigma(2 2)=  2.22297598E+02  sigma(3 1)=  0.00000000E+00
- sigma(3 3)=  2.22297598E+02  sigma(2 1)=  0.00000000E+00

================================================================================
== DATASET  2 ==================================================================
-   nproc =    1

 mkfilename : getwfk/=0, take file _WFK from output of DATASET   1.

 Exchange-correlation functional for the present dataset will be:
  GGA: Perdew-Burke-Ernzerhof functional - ixc=11
 Citation for XC functional:
  J.P.Perdew, K.Burke, M.Ernzerhof, PRL 77, 3865 (1996)

 Real(R)+Recip(G) space primitive vectors, cartesian coordinates (Bohr,Bohr^-1):
 R(1)= -2.7100000  2.7100000  2.7100000  G(1)=  0.0000000  0.1845018  0.1845018
 R(2)=  2.7100000 -2.7100000  2.7100000  G(2)=  0.1845018  0.0000000  0.1845018
 R(3)=  2.7100000  2.7100000 -2.7100000  G(3)=  0.1845018  0.1845018  0.0000000
 Unit cell volume ucvol=  7.9610044E+01 bohr^3
 Angles (23,13,12)=  1.09471221E+02  1.09471221E+02  1.09471221E+02 degrees

 Coarse grid specifications (used for wave-functions):

 getcut: wavevector=  0.0000  0.0000  0.0000  ngfft=  12  12  12
         ecut(hartree)=      8.000   => boxcut(ratio)=   2.00790

 Fine grid specifications (used for densities):

 getcut: wavevector=  0.0000  0.0000  0.0000  ngfft=  15  15  15
         ecut(hartree)=     10.000   => boxcut(ratio)=   2.10590
--------------------------------------------------------------------------------

-inwffil : will read wavefunctions from disk file t63o_DS1_WFK
P newkpt: treating     14 bands with npw=      83 for ikpt=   1 by node    0
P newkpt: treating     14 bands with npw=      83 for ikpt=   2 by node    0
P newkpt: treating     14 bands with npw=      84 for ikpt=   3 by node    0
P newkpt: treating     14 bands with npw=      83 for ikpt=   4 by node    0
P newkpt: treating     14 bands with npw=      85 for ikpt=   5 by node    0
P newkpt: treating     14 bands with npw=      86 for ikpt=   6 by node    0
P newkpt: treating     14 bands with npw=      86 for ikpt=   7 by node    0
P newkpt: treating     14 bands with npw=      89 for ikpt=   8 by node    0
P newkpt: treating     14 bands with npw=      84 for ikpt=   9 by node    0
P newkpt: treating     14 bands with npw=      80 for ikpt=  10 by node    0
P newkpt: treating     14 bands with npw=      87 for ikpt=  11 by node    0
P newkpt: treating     14 bands with npw=      91 for ikpt=  12 by node    0
P newkpt: treating     14 bands with npw=      89 for ikpt=  13 by node    0
P newkpt: treating     14 bands with npw=      88 for ikpt=  14 by node    0
P newkpt: treating     14 bands with npw=      83 for ikpt=   1 by node    0
P newkpt: treating     14 bands with npw=      83 for ikpt=   2 by node    0
P newkpt: treating     14 bands with npw=      84 for ikpt=   3 by node    0
P newkpt: treating     14 bands with npw=      83 for ikpt=   4 by node    0
P newkpt: treating     14 bands with npw=      85 for ikpt=   5 by node    0
P newkpt: treating     14 bands with npw=      86 for ikpt=   6 by node    0
P newkpt: treating     14 bands with npw=      86 for ikpt=   7 by node    0
P newkpt: treating     14 bands with npw=      89 for ikpt=   8 by node    0
P newkpt: treating     14 bands with npw=      84 for ikpt=   9 by node    0
P newkpt: treating     14 bands with npw=      80 for ikpt=  10 by node    0
P newkpt: treating     14 bands with npw=      87 for ikpt=  11 by node    0
P newkpt: treating     14 bands with npw=      91 for ikpt=  12 by node    0
P newkpt: treating     14 bands with npw=      89 for ikpt=  13 by node    0
P newkpt: treating     14 bands with npw=      88 for ikpt=  14 by node    0

_setup2: Arith. and geom. avg. npw (full set) are      86.056      86.016

================================================================================

     iter   Etot(hartree)     deltaE(h) residm    nres2    magn
 ETOT  1  -124.32920282727    -1.24E+02 9.83E-12 3.97E-10 2.357
 ETOT  2  -124.32920282727    -1.72E-12 4.01E-13 5.65E-10 2.357
 ETOT  3  -124.32920282726     9.56E-12 2.30E-12 4.29E-13 2.357

 At SCF step    3, etot is converged : 
  for the second time, diff in etot=  9.564E-12 < toldfe=  1.000E-10

 Cartesian components of stress tensor (hartree/bohr^3)
  sigma(1 1)=  7.55585298E-03  sigma(3 2)=  0.00000000E+00
  sigma(2 2)=  7.55585298E-03  sigma(3 1)=  0.00000000E+00
  sigma(3 3)=  7.55585298E-03  sigma(2 1)=  0.00000000E+00


 PAW TEST:
 ==== Compensation charge inside spheres ============
 The following values must be close to each other ...
 Compensation charge over spherical meshes =      9.576955176692906
 Compensation charge over fine fft grid    =      9.576890259618750

 ==== Results concerning PAW augmentation regions ====

 Total pseudopotential strength Dij (hartree):
 Atom #  1 - Spin component 1
  -2.53831   0.26334   0.00000   0.00000   0.00000   0.00000   0.00000   0.00000   0.00000   0.00000   0.00000   0.00000 ...
   0.26334   0.06298   0.00000   0.00000   0.00000   0.00000   0.00000   0.00000   0.00000   0.00000   0.00000   0.00000 ...
   0.00000   0.00000  -1.81710   0.00000   0.00000   0.07938   0.00000   0.00000   0.00000   0.00000   0.00000   0.00000 ...
   0.00000   0.00000   0.00000  -1.81710   0.00000   0.00000   0.07938   0.00000   0.00000   0.00000   0.00000   0.00000 ...
   0.00000   0.00000   0.00000   0.00000  -1.81710   0.00000   0.00000   0.07938   0.00000   0.00000   0.00000   0.00000 ...
   0.00000   0.00000   0.07938   0.00000   0.00000   0.01691   0.00000   0.00000   0.00000   0.00000   0.00000   0.00000 ...
   0.00000   0.00000   0.00000   0.07938   0.00000   0.00000   0.01691   0.00000   0.00000   0.00000   0.00000   0.00000 ...
   0.00000   0.00000   0.00000   0.00000   0.07938   0.00000   0.00000   0.01691   0.00000   0.00000   0.00000   0.00000 ...
   0.00000   0.00000   0.00000   0.00000   0.00000   0.00000   0.00000   0.00000  -0.22332   0.00000   0.00000   0.00000 ...
   0.00000   0.00000   0.00000   0.00000   0.00000   0.00000   0.00000   0.00000   0.00000  -0.22332   0.00000   0.00000 ...
   0.00000   0.00000   0.00000   0.00000   0.00000   0.00000   0.00000   0.00000   0.00000   0.00000  -0.22691   0.00000 ...
   0.00000   0.00000   0.00000   0.00000   0.00000   0.00000   0.00000   0.00000   0.00000   0.00000   0.00000  -0.22332 ...
   ...  only 12  components have been written...
 Atom #  1 - Spin component 2
  -2.47606   0.24867   0.00000   0.00000   0.00000   0.00000   0.00000   0.00000   0.00000   0.00000   0.00000   0.00000 ...
   0.24867   0.06380   0.00000   0.00000   0.00000   0.00000   0.00000   0.00000   0.00000   0.00000   0.00000   0.00000 ...
   0.00000   0.00000  -1.73723   0.00000   0.00000   0.06972   0.00000   0.00000   0.00000   0.00000   0.00000   0.00000 ...
   0.00000   0.00000   0.00000  -1.73723   0.00000   0.00000   0.06972   0.00000   0.00000   0.00000   0.00000   0.00000 ...
   0.00000   0.00000   0.00000   0.00000  -1.73723   0.00000   0.00000   0.06972   0.00000   0.00000   0.00000   0.00000 ...
   0.00000   0.00000   0.06972   0.00000   0.00000   0.01755   0.00000   0.00000   0.00000   0.00000   0.00000   0.00000 ...
   0.00000   0.00000   0.00000   0.06972   0.00000   0.00000   0.01755   0.00000   0.00000   0.00000   0.00000   0.00000 ...
   0.00000   0.00000   0.00000   0.00000   0.06972   0.00000   0.00000   0.01755   0.00000   0.00000   0.00000   0.00000 ...
   0.00000   0.00000   0.00000   0.00000   0.00000   0.00000   0.00000   0.00000  -0.16397   0.00000   0.00000   0.00000 ...
   0.00000   0.00000   0.00000   0.00000   0.00000   0.00000   0.00000   0.00000   0.00000  -0.16397   0.00000   0.00000 ...
   0.00000   0.00000   0.00000   0.00000   0.00000   0.00000   0.00000   0.00000   0.00000   0.00000  -0.16068   0.00000 ...
   0.00000   0.00000   0.00000   0.00000   0.00000   0.00000   0.00000   0.00000   0.00000   0.00000   0.00000  -0.16397 ...
   ...  only 12  components have been written...


 Augmentation waves occupancies Rhoij:
 Atom #  1 - Spin component 1
   0.99921  -0.02033   0.00000   0.00000   0.00000   0.00000   0.00000   0.00000   0.00000   0.00000   0.00000   0.00000 ...
  -0.02033   0.65063   0.00000   0.00000   0.00000   0.00000   0.00000   0.00000   0.00000   0.00000   0.00000   0.00000 ...
   0.00000   0.00000   1.00562   0.00000   0.00000   0.02173   0.00000   0.00000   0.00000   0.00000   0.00000   0.00000 ...
   0.00000   0.00000   0.00000   1.00562   0.00000   0.00000   0.02173   0.00000   0.00000   0.00000   0.00000   0.00000 ...
   0.00000   0.00000   0.00000   0.00000   1.00562   0.00000   0.00000   0.02173   0.00000   0.00000   0.00000   0.00000 ...
   0.00000   0.00000   0.02173   0.00000   0.00000   0.71749   0.00000   0.00000   0.00000   0.00000   0.00000   0.00000 ...
   0.00000   0.00000   0.00000   0.02173   0.00000   0.00000   0.71749   0.00000   0.00000   0.00000   0.00000   0.00000 ...
   0.00000   0.00000   0.00000   0.00000   0.02173   0.00000   0.00000   0.71749   0.00000   0.00000   0.00000   0.00000 ...
   0.00000   0.00000   0.00000   0.00000   0.00000   0.00000   0.00000   0.00000   1.00191   0.00000   0.00000   0.00000 ...
   0.00000   0.00000   0.00000   0.00000   0.00000   0.00000   0.00000   0.00000   0.00000   1.00191   0.00000   0.00000 ...
   0.00000   0.00000   0.00000   0.00000   0.00000   0.00000   0.00000   0.00000   0.00000   0.00000   0.99312   0.00000 ...
   0.00000   0.00000   0.00000   0.00000   0.00000   0.00000   0.00000   0.00000   0.00000   0.00000   0.00000   1.00191 ...
   ...  only 12  components have been written...
 Atom #  1 - Spin component 2
   0.99974  -0.01372   0.00000   0.00000   0.00000   0.00000   0.00000   0.00000   0.00000   0.00000   0.00000   0.00000 ...
  -0.01372   0.68331   0.00000   0.00000   0.00000   0.00000   0.00000   0.00000   0.00000   0.00000   0.00000   0.00000 ...
   0.00000   0.00000   1.00683   0.00000   0.00000   0.04379   0.00000   0.00000   0.00000   0.00000   0.00000   0.00000 ...
   0.00000   0.00000   0.00000   1.00683   0.00000   0.00000   0.04379   0.00000   0.00000   0.00000   0.00000   0.00000 ...
   0.00000   0.00000   0.00000   0.00000   1.00683   0.00000   0.00000   0.04379   0.00000   0.00000   0.00000   0.00000 ...
   0.00000   0.00000   0.04379   0.00000   0.00000   0.96388   0.00000   0.00000   0.00000   0.00000   0.00000   0.00000 ...
   0.00000   0.00000   0.00000   0.04379   0.00000   0.00000   0.96388   0.00000   0.00000   0.00000   0.00000   0.00000 ...
   0.00000   0.00000   0.00000   0.00000   0.04379   0.00000   0.00000   0.96388   0.00000   0.00000   0.00000   0.00000 ...
   0.00000   0.00000   0.00000   0.00000   0.00000   0.00000   0.00000   0.00000   0.60508   0.00000   0.00000   0.00000 ...
   0.00000   0.00000   0.00000   0.00000   0.00000   0.00000   0.00000   0.00000   0.00000   0.60508   0.00000   0.00000 ...
   0.00000   0.00000   0.00000   0.00000   0.00000   0.00000   0.00000   0.00000   0.00000   0.00000   0.41048   0.00000 ...
   0.00000   0.00000   0.00000   0.00000   0.00000   0.00000   0.00000   0.00000   0.00000   0.00000   0.00000   0.60508 ...
   ...  only 12  components have been written...


================================================================================

 ----iterations are completed or convergence reached----

 Mean square residual over all n,k,spin=   7.0292E-13; max=  2.2995E-12
   0.0833  0.0833  0.0833    1  1.21394E-12 kpt; spin; max resid(k); each band:
  1.42E-13 2.05E-13 4.82E-14 4.82E-14 4.70E-13 3.30E-13 3.30E-13 6.98E-14
  6.98E-14 1.79E-13 1.19E-12 1.19E-12 1.21E-12 1.53E-16
   0.2500  0.0833  0.0833    1  1.71525E-12 kpt; spin; max resid(k); each band:
  1.62E-13 2.22E-13 1.47E-13 8.07E-14 1.40E-12 7.06E-13 1.09E-12 1.47E-14
  3.43E-14 4.68E-13 1.72E-12 1.41E-12 1.32E-12 7.40E-13
   0.4167  0.0833  0.0833    1  1.82235E-12 kpt; spin; max resid(k); each band:
  1.63E-13 2.06E-13 2.02E-13 8.73E-14 1.07E-12 1.03E-12 1.07E-12 1.59E-14
  5.97E-16 1.82E-12 1.39E-12 1.69E-12 1.19E-12 1.28E-12
  -0.0833  0.0833  0.0833    1  9.00627E-13 kpt; spin; max resid(k); each band:
  1.22E-13 1.22E-13 1.66E-14 1.66E-14 3.59E-13 1.85E-13 1.85E-13 6.54E-16
  2.24E-13 9.60E-14 8.49E-13 5.76E-13 5.76E-13 9.01E-13
   0.2500  0.2500  0.0833    1  1.95593E-12 kpt; spin; max resid(k); each band:
  1.69E-13 2.06E-13 1.70E-13 1.19E-13 8.64E-13 8.98E-13 9.91E-13 1.13E-13
  1.00E-14 1.56E-12 1.96E-12 1.17E-12 1.21E-12 5.49E-13
  -0.2500  0.2500  0.0833    1  1.92683E-12 kpt; spin; max resid(k); each band:
  1.32E-13 1.84E-13 1.32E-13 1.27E-13 8.53E-13 3.18E-13 7.83E-13 3.61E-13
  9.61E-14 5.50E-14 1.93E-12 8.85E-13 1.50E-12 1.08E-12
  -0.4167  0.4167  0.0833    1  1.63976E-12 kpt; spin; max resid(k); each band:
  1.46E-13 2.12E-13 2.47E-13 6.99E-14 1.11E-12 9.73E-13 5.94E-13 1.23E-13
  2.57E-14 1.32E-12 1.64E-12 6.43E-13 1.56E-12 1.60E-12
  -0.2500  0.4167  0.0833    1  2.14932E-12 kpt; spin; max resid(k); each band:
  1.49E-13 2.34E-13 1.84E-13 1.44E-13 1.08E-12 9.12E-13 3.82E-13 3.95E-13
  4.72E-14 8.18E-13 2.15E-12 1.31E-12 9.16E-13 1.42E-12
  -0.4167 -0.4167  0.0833    1  1.64012E-12 kpt; spin; max resid(k); each band:
  1.54E-13 2.08E-13 2.08E-13 1.55E-13 1.17E-12 5.66E-13 6.55E-13 2.87E-13
  5.47E-14 1.64E-12 1.51E-12 1.49E-12 9.58E-13 1.47E-12
   0.2500  0.2500  0.2500    1  1.76139E-12 kpt; spin; max resid(k); each band:
  1.74E-13 1.55E-13 1.55E-13 1.55E-13 8.90E-13 8.90E-13 8.90E-13 2.53E-16
  2.53E-16 1.76E-12 1.76E-12 1.76E-12 4.41E-13 6.71E-16
  -0.2500  0.2500  0.2500    1  2.07790E-12 kpt; spin; max resid(k); each band:
  1.42E-13 1.45E-13 1.71E-13 1.71E-13 1.19E-12 1.07E-12 4.48E-13 4.48E-13
  1.66E-15 4.90E-13 1.79E-12 1.79E-12 2.08E-12 5.12E-13
  -0.4167  0.4167  0.2500    1  1.83776E-12 kpt; spin; max resid(k); each band:
  1.37E-13 2.14E-13 2.13E-13 1.39E-13 1.27E-12 1.34E-12 2.47E-13 3.22E-13
  1.45E-14 1.68E-12 1.84E-12 1.66E-12 1.74E-12 1.34E-12
  -0.4167 -0.4167  0.2500    1  1.99448E-12 kpt; spin; max resid(k); each band:
  1.00E-13 2.26E-13 2.26E-13 7.28E-14 1.45E-12 1.45E-12 2.49E-13 1.02E-13
  1.02E-13 1.99E-12 1.99E-12 1.26E-12 1.73E-12 1.73E-12
  -0.4167  0.4167  0.4167    1  2.29945E-12 kpt; spin; max resid(k); each band:
  8.50E-14 2.28E-13 2.28E-13 1.68E-13 1.74E-12 1.29E-12 8.64E-14 8.64E-14
  7.11E-16 1.60E-12 1.45E-12 1.45E-12 2.30E-12 1.62E-12
   0.0833  0.0833  0.0833    2  1.27766E-12 kpt; spin; max resid(k); each band:
  1.43E-13 2.10E-13 4.45E-14 4.45E-14 4.67E-13 3.63E-13 3.63E-13 1.97E-13
  8.96E-14 8.96E-14 1.24E-12 1.24E-12 1.28E-12 7.56E-17
   0.2500  0.0833  0.0833    2  1.68474E-12 kpt; spin; max resid(k); each band:
  1.62E-13 2.28E-13 1.48E-13 7.82E-14 1.11E-12 7.90E-13 1.07E-12 2.03E-14
  4.02E-14 2.07E-13 1.68E-12 1.43E-12 1.40E-12 7.66E-13
   0.4167  0.0833  0.0833    2  1.76919E-12 kpt; spin; max resid(k); each band:
  1.62E-13 2.10E-13 2.06E-13 8.38E-14 1.19E-12 1.18E-12 1.77E-12 1.86E-14
  5.99E-16 8.87E-13 1.18E-12 1.77E-12 1.24E-12 1.39E-12
  -0.0833  0.0833  0.0833    2  9.71753E-13 kpt; spin; max resid(k); each band:
  1.21E-13 1.12E-13 1.14E-14 1.14E-14 3.69E-13 1.78E-13 1.78E-13 1.69E-15
  2.61E-13 1.18E-13 9.09E-13 5.12E-13 5.12E-13 9.72E-13
   0.2500  0.2500  0.0833    2  1.77417E-12 kpt; spin; max resid(k); each band:
  1.68E-13 2.10E-13 1.70E-13 1.18E-13 1.25E-12 1.15E-12 1.04E-12 1.16E-13
  7.47E-15 9.76E-13 1.77E-12 1.21E-12 1.20E-12 5.72E-13
  -0.2500  0.2500  0.0833    2  1.96899E-12 kpt; spin; max resid(k); each band:
  1.28E-13 1.77E-13 1.21E-13 1.21E-13 6.76E-13 8.40E-13 3.87E-13 4.24E-13
  9.65E-14 3.42E-14 1.97E-12 9.58E-13 1.53E-12 1.37E-12
  -0.4167  0.4167  0.0833    2  1.64709E-12 kpt; spin; max resid(k); each band:
  1.45E-13 2.18E-13 2.55E-13 6.84E-14 1.21E-12 1.11E-12 1.30E-12 1.23E-13
  3.08E-14 2.87E-13 1.44E-12 6.69E-13 1.65E-12 1.65E-12
  -0.2500  0.4167  0.0833    2  2.05090E-12 kpt; spin; max resid(k); each band:
  1.47E-13 2.41E-13 1.83E-13 1.42E-13 1.06E-12 1.11E-12 3.69E-13 4.81E-13
  4.76E-14 3.25E-13 2.05E-12 1.32E-12 9.34E-13 1.50E-12
  -0.4167 -0.4167  0.0833    2  1.53248E-12 kpt; spin; max resid(k); each band:
  1.51E-13 2.15E-13 2.13E-13 1.55E-13 1.33E-12 1.03E-12 6.86E-13 3.56E-13
  4.46E-14 1.15E-12 1.33E-12 1.51E-12 1.01E-12 1.53E-12
   0.2500  0.2500  0.2500    2  1.54435E-12 kpt; spin; max resid(k); each band:
  1.71E-13 1.54E-13 1.54E-13 1.54E-13 1.14E-12 1.14E-12 1.14E-12 1.16E-16
  1.16E-16 1.54E-12 1.54E-12 1.54E-12 4.48E-13 1.85E-18
  -0.2500  0.2500  0.2500    2  2.07933E-12 kpt; spin; max resid(k); each band:
  1.36E-13 1.44E-13 1.68E-13 1.68E-13 9.50E-13 1.32E-12 5.67E-13 5.67E-13
  2.93E-15 2.04E-13 1.87E-12 1.87E-12 2.08E-12 5.15E-13
  -0.4167  0.4167  0.2500    2  1.82131E-12 kpt; spin; max resid(k); each band:
  1.27E-13 2.21E-13 2.16E-13 1.38E-13 1.40E-12 1.68E-12 3.13E-13 4.45E-13
  1.75E-14 1.37E-12 1.82E-12 1.73E-12 1.81E-12 1.44E-12
  -0.4167 -0.4167  0.2500    2  1.94844E-12 kpt; spin; max resid(k); each band:
  9.48E-14 2.31E-13 2.31E-13 7.51E-14 1.69E-12 1.69E-12 3.61E-13 1.52E-13
  1.52E-13 1.95E-12 1.95E-12 1.35E-12 1.82E-12 1.82E-12
  -0.4167  0.4167  0.4167    2  2.06970E-12 kpt; spin; max resid(k); each band:
  7.54E-14 2.31E-13 2.31E-13 1.76E-13 2.01E-12 1.50E-12 1.31E-13 1.31E-13
  7.99E-16 1.69E-12 1.59E-12 1.59E-12 2.07E-12 1.63E-12
 reduced coordinates (array xred) for    1 atoms
       0.000000000000      0.000000000000      0.000000000000
 rms dE/dt=  0.0000E+00; max dE/dt=  0.0000E+00; dE/dt below (all hartree)
    1       0.000000000000      0.000000000000      0.000000000000

 cartesian coordinates (angstrom) at end:
    1      0.00000000000000     0.00000000000000     0.00000000000000

 cartesian forces (hartree/bohr) at end:
    1     -0.00000000000000    -0.00000000000000    -0.00000000000000
 frms,max,avg= 0.0000000E+00 0.0000000E+00   0.000E+00  0.000E+00  0.000E+00 h/b

 cartesian forces (eV/Angstrom) at end:
    1     -0.00000000000000    -0.00000000000000    -0.00000000000000
 frms,max,avg= 0.0000000E+00 0.0000000E+00   0.000E+00  0.000E+00  0.000E+00 e/A
 length scales=  5.420000000000  5.420000000000  5.420000000000 bohr
              =  2.868140470558  2.868140470558  2.868140470558 angstroms
 Fermi (or HOMO) energy (hartree) =   0.25886   Average Vxc (hartree)=  -0.50478
 Magnetization (Bohr magneton)=  2.35681439E+00
 Total spin up =  9.17840719E+00   Total spin down =  6.82159281E+00
 Eigenvalues (hartree) for nkpt=  14  k points, SPIN UP:
 kpt#   1, nband= 14, wtk=  0.03704, kpt=  0.0833  0.0833  0.0833 (reduced coord)
  -3.00045  -1.74105  -1.73910  -1.73910   0.01976   0.16452   0.16452   0.21085
   0.21085   0.21253   0.96804   0.96804   1.09186   1.21489
      occupation numbers for kpt#   1
   1.00000   1.00000   1.00000   1.00000   1.00000   1.00000   1.00000   1.00000
   1.00000   1.00000   0.00000   0.00000   0.00000   0.00000
 kpt#   2, nband= 14, wtk=  0.11111, kpt=  0.2500  0.0833  0.0833 (reduced coord)
  -2.99936  -1.74824  -1.74051  -1.73744   0.09216   0.14783   0.16535   0.21636
   0.22591   0.26947   0.70089   0.87014   0.92418   1.23856
      occupation numbers for kpt#   2
   1.00000   1.00000   1.00000   1.00000   1.00000   1.00000   1.00000   1.00000
   1.00000   0.03035   0.00000   0.00000   0.00000   0.00000
 kpt#   3, nband= 14, wtk=  0.05556, kpt=  0.4167  0.0833  0.0833 (reduced coord)
  -2.99898  -1.75029  -1.74383  -1.73814   0.10040   0.13601   0.20464   0.22103
   0.22847   0.35391   0.51934   0.83081   0.87273   1.22638
      occupation numbers for kpt#   3
   1.00000   1.00000   1.00000   1.00000   1.00000   1.00000   1.00000   1.00000
   1.00000   0.00000   0.00000   0.00000   0.00000   0.00000
 kpt#   4, nband= 14, wtk=  0.02778, kpt= -0.0833  0.0833  0.0833 (reduced coord)
  -3.00118  -1.73968  -1.73954  -1.73954  -0.01792   0.17569   0.17569   0.17975
   0.20359   0.21534   1.06876   1.13419   1.13419   1.22658
      occupation numbers for kpt#   4
   1.00000   1.00000   1.00000   1.00000   1.00000   1.00000   1.00000   1.00000
   1.00000   1.00000   0.00000   0.00000   0.00000   0.00000
 kpt#   5, nband= 14, wtk=  0.11111, kpt=  0.2500  0.2500  0.0833 (reduced coord)
  -2.99900  -1.74977  -1.74508  -1.73887   0.12557   0.13720   0.15798   0.22036
   0.22836   0.39747   0.60752   0.64426   0.83063   1.35368
      occupation numbers for kpt#   5
   1.00000   1.00000   1.00000   1.00000   1.00000   1.00000   1.00000   1.00000
   1.00000   0.00000   0.00000   0.00000   0.00000   0.00000
 kpt#   6, nband= 14, wtk=  0.11111, kpt= -0.2500  0.2500  0.0833 (reduced coord)
  -3.00008  -1.74595  -1.74097  -1.73816   0.05042   0.16277   0.16479   0.19951
   0.21110   0.22974   0.83328   1.00499   1.03655   1.22357
      occupation numbers for kpt#   6
   1.00000   1.00000   1.00000   1.00000   1.00000   1.00000   1.00000   1.00000
   1.00000   1.00000   0.00000   0.00000   0.00000   0.00000
 kpt#   7, nband= 14, wtk=  0.11111, kpt= -0.4167  0.4167  0.0833 (reduced coord)
  -2.99905  -1.75116  -1.74385  -1.73703   0.09120   0.14829   0.19138   0.21552
   0.24763   0.28137   0.57534   0.92559   0.94228   1.18744
      occupation numbers for kpt#   7
   1.00000   1.00000   1.00000   1.00000   1.00000   1.00000   1.00000   1.00000
   0.97649   0.00003   0.00000   0.00000   0.00000   0.00000
 kpt#   8, nband= 14, wtk=  0.11111, kpt= -0.2500  0.4167  0.0833 (reduced coord)
  -2.99924  -1.75009  -1.74491  -1.73996   0.10772   0.13994   0.16855   0.19971
   0.22876   0.29069   0.71654   0.74243   1.08190   1.09322
      occupation numbers for kpt#   8
   1.00000   1.00000   1.00000   1.00000   1.00000   1.00000   1.00000   1.00000
   1.00000   0.00000   0.00000   0.00000   0.00000   0.00000
 kpt#   9, nband= 14, wtk=  0.11111, kpt= -0.4167 -0.4167  0.0833 (reduced coord)
  -2.99849  -1.74876  -1.74535  -1.73873   0.11908   0.15317   0.16063   0.21164
   0.23913   0.41924   0.52847   0.68961   1.03650   1.15768
      occupation numbers for kpt#   9
   1.00000   1.00000   1.00000   1.00000   1.00000   1.00000   1.00000   1.00000
   0.99976   0.00000   0.00000   0.00000   0.00000   0.00000
 kpt#  10, nband= 14, wtk=  0.00926, kpt=  0.2500  0.2500  0.2500 (reduced coord)
  -2.99880  -1.74370  -1.74370  -1.74370   0.14196   0.14196   0.14196   0.23205
   0.23205   0.56857   0.56857   0.56857   0.64028   1.65944
      occupation numbers for kpt#  10
   1.00000   1.00000   1.00000   1.00000   1.00000   1.00000   1.00000   1.00000
   1.00000   0.00000   0.00000   0.00000   0.00000   0.00000
 kpt#  11, nband= 14, wtk=  0.02778, kpt= -0.2500  0.2500  0.2500 (reduced coord)
  -2.99920  -1.74539  -1.74308  -1.74308   0.09770   0.15186   0.18434   0.18434
   0.21335   0.26595   0.87636   0.87636   0.89175   0.97450
      occupation numbers for kpt#  11
   1.00000   1.00000   1.00000   1.00000   1.00000   1.00000   1.00000   1.00000
   1.00000   0.10530   0.00000   0.00000   0.00000   0.00000
 kpt#  12, nband= 14, wtk=  0.11111, kpt= -0.4167  0.4167  0.2500 (reduced coord)
  -2.99843  -1.75041  -1.74604  -1.74422   0.11300   0.12861   0.18529   0.19993
   0.24546   0.37933   0.61945   0.77230   0.88054   1.04405
      occupation numbers for kpt#  12
   1.00000   1.00000   1.00000   1.00000   1.00000   1.00000   1.00000   1.00000
   0.99108   0.00000   0.00000   0.00000   0.00000   0.00000
 kpt#  13, nband= 14, wtk=  0.03704, kpt= -0.4167 -0.4167  0.2500 (reduced coord)
  -2.99788  -1.74787  -1.74787  -1.74464   0.11490   0.11490   0.18661   0.23833
   0.23833   0.54710   0.54710   0.60249   0.98046   0.98046
      occupation numbers for kpt#  13
   1.00000   1.00000   1.00000   1.00000   1.00000   1.00000   1.00000   0.99986
   0.99986   0.00000   0.00000   0.00000   0.00000   0.00000
 kpt#  14, nband= 14, wtk=  0.02778, kpt= -0.4167  0.4167  0.4167 (reduced coord)
  -2.99736  -1.74781  -1.74781  -1.74480   0.09681   0.10299   0.23980   0.23980
   0.24456   0.51090   0.65560   0.65560   0.82942   0.88560
      occupation numbers for kpt#  14
   1.00000   1.00000   1.00000   1.00000   1.00000   1.00000   0.99962   0.99962
   0.99427   0.00000   0.00000   0.00000   0.00000   0.00000
 Eigenvalues (hartree) for nkpt=  14  k points, SPIN DOWN:
 kpt#   1, nband= 14, wtk=  0.03704, kpt=  0.0833  0.0833  0.0833 (reduced coord)
  -2.89656  -1.63974  -1.63724  -1.63724   0.02480   0.24185   0.24185   0.29634
   0.30847   0.30847   0.97650   0.97650   1.11992   1.20396
      occupation numbers for kpt#   1
   1.00000   1.00000   1.00000   1.00000   1.00000   0.99869   0.99869   0.00000
   0.00000   0.00000   0.00000   0.00000   0.00000   0.00000
 kpt#   2, nband= 14, wtk=  0.11111, kpt=  0.2500  0.0833  0.0833 (reduced coord)
  -2.89540  -1.64745  -1.63897  -1.63568   0.11537   0.22029   0.22509   0.31250
   0.32537   0.34956   0.72909   0.88140   0.94823   1.23706
      occupation numbers for kpt#   2
   1.00000   1.00000   1.00000   1.00000   1.00000   1.00000   1.00000   0.00000
   0.00000   0.00000   0.00000   0.00000   0.00000   0.00000
 kpt#   3, nband= 14, wtk=  0.05556, kpt=  0.4167  0.0833  0.0833 (reduced coord)
  -2.89496  -1.64976  -1.64236  -1.63640   0.15259   0.20699   0.25044   0.31735
   0.32914   0.40259   0.56934   0.84164   0.89466   1.23005
      occupation numbers for kpt#   3
   1.00000   1.00000   1.00000   1.00000   1.00000   1.00000   0.93167   0.00000
   0.00000   0.00000   0.00000   0.00000   0.00000   0.00000
 kpt#   4, nband= 14, wtk=  0.02778, kpt= -0.0833  0.0833  0.0833 (reduced coord)
  -2.89733  -1.63789  -1.63766  -1.63766  -0.01372   0.25619   0.25619   0.26179
   0.29974   0.31484   1.06497   1.13321   1.13321   1.23603
      occupation numbers for kpt#   4
   1.00000   1.00000   1.00000   1.00000   1.00000   0.68201   0.68201   0.30261
   0.00000   0.00000   0.00000   0.00000   0.00000   0.00000
 kpt#   5, nband= 14, wtk=  0.11111, kpt=  0.2500  0.2500  0.0833 (reduced coord)
  -2.89497  -1.64895  -1.64378  -1.63727   0.18009   0.20031   0.21394   0.31802
   0.32784   0.45025   0.63871   0.67318   0.85025   1.35130
      occupation numbers for kpt#   5
   1.00000   1.00000   1.00000   1.00000   1.00000   1.00000   1.00000   0.00000
   0.00000   0.00000   0.00000   0.00000   0.00000   0.00000
 kpt#   6, nband= 14, wtk=  0.11111, kpt= -0.2500  0.2500  0.0833 (reduced coord)
  -2.89615  -1.64470  -1.63928  -1.63638   0.05899   0.23907   0.23982   0.29040
   0.29736   0.32821   0.85382   1.00808   1.05499   1.23521
      occupation numbers for kpt#   6
   1.00000   1.00000   1.00000   1.00000   1.00000   0.99977   0.99962   0.00000
   0.00000   0.00000   0.00000   0.00000   0.00000   0.00000
 kpt#   7, nband= 14, wtk=  0.11111, kpt= -0.4167  0.4167  0.0833 (reduced coord)
  -2.89503  -1.65055  -1.64230  -1.63528   0.13634   0.22216   0.24616   0.30519
   0.34063   0.34723   0.61678   0.92738   0.96320   1.20269
      occupation numbers for kpt#   7
   1.00000   1.00000   1.00000   1.00000   1.00000   1.00000   0.98763   0.00000
   0.00000   0.00000   0.00000   0.00000   0.00000   0.00000
 kpt#   8, nband= 14, wtk=  0.11111, kpt= -0.2500  0.4167  0.0833 (reduced coord)
  -2.89522  -1.64919  -1.64345  -1.63825   0.13779   0.21104   0.23834   0.28881
   0.32295   0.36456   0.74381   0.76686   1.09458   1.10041
      occupation numbers for kpt#   8
   1.00000   1.00000   1.00000   1.00000   1.00000   1.00000   0.99986   0.00000
   0.00000   0.00000   0.00000   0.00000   0.00000   0.00000
 kpt#   9, nband= 14, wtk=  0.11111, kpt= -0.4167 -0.4167  0.0833 (reduced coord)
  -2.89444  -1.64813  -1.64416  -1.63705   0.17649   0.21842   0.22421   0.30229
   0.33106   0.46180   0.57323   0.71492   1.04634   1.17051
      occupation numbers for kpt#   9
   1.00000   1.00000   1.00000   1.00000   1.00000   1.00000   1.00000   0.00000
   0.00000   0.00000   0.00000   0.00000   0.00000   0.00000
 kpt#  10, nband= 14, wtk=  0.00926, kpt=  0.2500  0.2500  0.2500 (reduced coord)
  -2.89478  -1.64256  -1.64256  -1.64256   0.20139   0.20139   0.20139   0.33280
   0.33280   0.60111   0.60111   0.60111   0.66874   1.64967
      occupation numbers for kpt#  10
   1.00000   1.00000   1.00000   1.00000   1.00000   1.00000   1.00000   0.00000
   0.00000   0.00000   0.00000   0.00000   0.00000   0.00000
 kpt#  11, nband= 14, wtk=  0.02778, kpt= -0.2500  0.2500  0.2500 (reduced coord)
  -2.89520  -1.64428  -1.64158  -1.64158   0.11691   0.23211   0.26335   0.26335
   0.29999   0.35015   0.89848   0.89848   0.90701   0.98726
      occupation numbers for kpt#  11
   1.00000   1.00000   1.00000   1.00000   1.00000   1.00000   0.21378   0.21378
[...]
                      -2.50000000E-01  2.50000000E-01  8.33333333E-02
                      -4.16666667E-01  4.16666667E-01  8.33333333E-02
                      -2.50000000E-01  4.16666667E-01  8.33333333E-02
                      -4.16666667E-01 -4.16666667E-01  8.33333333E-02
                       2.50000000E-01  2.50000000E-01  2.50000000E-01
                      -2.50000000E-01  2.50000000E-01  2.50000000E-01
                      -4.16666667E-01  4.16666667E-01  2.50000000E-01
                      -4.16666667E-01 -4.16666667E-01  2.50000000E-01
                      -4.16666667E-01  4.16666667E-01  4.16666667E-01
         kptrlatt        6    0    0      0    6    0      0    0    6
          kptrlen      2.81631461E+01
P           mkmem          14
            natom           1
            nband          14
           ndtset           2
            ngfft          12      12      12
          ngfftdg          15      15      15
             nkpt          14
           nspden           2
           nsppol           2
             nsym          48
           ntypat           2
              occ1     1.000000  1.000000  1.000000  1.000000  1.000000  1.000000
                       1.000000  1.000000  1.000000  1.000000  0.000000  0.000000
                       0.000000  0.000000
                       1.000000  1.000000  1.000000  1.000000  1.000000  1.000000
                       1.000000  1.000000  1.000000  0.030353  0.000000  0.000000
                       0.000000  0.000000
                       1.000000  1.000000  1.000000  1.000000  1.000000  1.000000
                       1.000000  1.000000  1.000000  0.000000  0.000000  0.000000
                       0.000000  0.000000
                       1.000000  1.000000  1.000000  1.000000  1.000000  1.000000
                       1.000000  1.000000  1.000000  1.000000  0.000000  0.000000
                       0.000000  0.000000
                       1.000000  1.000000  1.000000  1.000000  1.000000  1.000000
                       1.000000  1.000000  1.000000  0.000000  0.000000  0.000000
                       0.000000  0.000000
                       1.000000  1.000000  1.000000  1.000000  1.000000  1.000000
                       1.000000  1.000000  1.000000  1.000000  0.000000  0.000000
                       0.000000  0.000000
                       1.000000  1.000000  1.000000  1.000000  1.000000  1.000000
                       1.000000  1.000000  0.976494  0.000035  0.000000  0.000000
                       0.000000  0.000000
                       1.000000  1.000000  1.000000  1.000000  1.000000  1.000000
                       1.000000  1.000000  1.000000  0.000000  0.000000  0.000000
                       0.000000  0.000000
                       1.000000  1.000000  1.000000  1.000000  1.000000  1.000000
                       1.000000  1.000000  0.999756  0.000000  0.000000  0.000000
                       0.000000  0.000000
                       1.000000  1.000000  1.000000  1.000000  1.000000  1.000000
                       1.000000  0.999999  0.999999  0.000000  0.000000  0.000000
                       0.000000  0.000000
                       1.000000  1.000000  1.000000  1.000000  1.000000  1.000000
                       1.000000  1.000000  1.000000  0.105298  0.000000  0.000000
                       0.000000  0.000000
                       1.000000  1.000000  1.000000  1.000000  1.000000  1.000000
                       1.000000  1.000000  0.991083  0.000000  0.000000  0.000000
                       0.000000  0.000000
                       1.000000  1.000000  1.000000  1.000000  1.000000  1.000000
                       1.000000  0.999858  0.999858  0.000000  0.000000  0.000000
                       0.000000  0.000000
                       1.000000  1.000000  1.000000  1.000000  1.000000  1.000000
                       0.999625  0.999625  0.994268  0.000000  0.000000  0.000000
                       0.000000  0.000000
                       1.000000  1.000000  1.000000  1.000000  1.000000  0.998686
                       0.998686  0.000000  0.000000  0.000000  0.000000  0.000000
                       0.000000  0.000000
                       1.000000  1.000000  1.000000  1.000000  1.000000  1.000000
                       1.000000  0.000000  0.000000  0.000000  0.000000  0.000000
                       0.000000  0.000000
                       1.000000  1.000000  1.000000  1.000000  1.000000  1.000000
                       0.931674  0.000000  0.000000  0.000000  0.000000  0.000000
                       0.000000  0.000000
                       1.000000  1.000000  1.000000  1.000000  1.000000  0.682004
                       0.682004  0.302613  0.000000  0.000000  0.000000  0.000000
                       0.000000  0.000000
                       1.000000  1.000000  1.000000  1.000000  1.000000  1.000000
                       1.000000  0.000000  0.000000  0.000000  0.000000  0.000000
                       0.000000  0.000000
                       1.000000  1.000000  1.000000  1.000000  1.000000  0.999767
                       0.999619  0.000000  0.000000  0.000000  0.000000  0.000000
                       0.000000  0.000000
                       1.000000  1.000000  1.000000  1.000000  1.000000  1.000000
                       0.987628  0.000000  0.000000  0.000000  0.000000  0.000000
                       0.000000  0.000000
                       1.000000  1.000000  1.000000  1.000000  1.000000  1.000000
                       0.999858  0.000000  0.000000  0.000000  0.000000  0.000000
                       0.000000  0.000000
                       1.000000  1.000000  1.000000  1.000000  1.000000  1.000000
                       1.000000  0.000000  0.000000  0.000000  0.000000  0.000000
                       0.000000  0.000000
                       1.000000  1.000000  1.000000  1.000000  1.000000  1.000000
                       1.000000  0.000000  0.000000  0.000000  0.000000  0.000000
                       0.000000  0.000000
                       1.000000  1.000000  1.000000  1.000000  1.000000  0.999999
                       0.213782  0.213782  0.000000  0.000000  0.000000  0.000000
                       0.000000  0.000000
                       1.000000  1.000000  1.000000  1.000000  1.000000  1.000000
                       0.174285  0.000014  0.000000  0.000000  0.000000  0.000000
                       0.000000  0.000000
                       1.000000  1.000000  1.000000  1.000000  1.000000  1.000000
                       0.233979  0.000000  0.000000  0.000000  0.000000  0.000000
                       0.000000  0.000000
                       1.000000  1.000000  1.000000  1.000000  1.000000  1.000000
                       0.000000  0.000000  0.000000  0.000000  0.000000  0.000000
                       0.000000  0.000000
              occ2     1.000000  1.000000  1.000000  1.000000  1.000000  1.000000
                       1.000000  1.000000  1.000000  1.000000  0.000000  0.000000
                       0.000000  0.000000
                       1.000000  1.000000  1.000000  1.000000  1.000000  1.000000
                       1.000000  1.000000  1.000000  0.030353  0.000000  0.000000
                       0.000000  0.000000
                       1.000000  1.000000  1.000000  1.000000  1.000000  1.000000
                       1.000000  1.000000  1.000000  0.000000  0.000000  0.000000
                       0.000000  0.000000
                       1.000000  1.000000  1.000000  1.000000  1.000000  1.000000
                       1.000000  1.000000  1.000000  1.000000  0.000000  0.000000
                       0.000000  0.000000
                       1.000000  1.000000  1.000000  1.000000  1.000000  1.000000
                       1.000000  1.000000  1.000000  0.000000  0.000000  0.000000
                       0.000000  0.000000
                       1.000000  1.000000  1.000000  1.000000  1.000000  1.000000
                       1.000000  1.000000  1.000000  1.000000  0.000000  0.000000
                       0.000000  0.000000
                       1.000000  1.000000  1.000000  1.000000  1.000000  1.000000
                       1.000000  1.000000  0.976495  0.000035  0.000000  0.000000
                       0.000000  0.000000
                       1.000000  1.000000  1.000000  1.000000  1.000000  1.000000
                       1.000000  1.000000  1.000000  0.000000  0.000000  0.000000
                       0.000000  0.000000
                       1.000000  1.000000  1.000000  1.000000  1.000000  1.000000
                       1.000000  1.000000  0.999756  0.000000  0.000000  0.000000
                       0.000000  0.000000
                       1.000000  1.000000  1.000000  1.000000  1.000000  1.000000
                       1.000000  0.999999  0.999999  0.000000  0.000000  0.000000
                       0.000000  0.000000
                       1.000000  1.000000  1.000000  1.000000  1.000000  1.000000
                       1.000000  1.000000  1.000000  0.105298  0.000000  0.000000
                       0.000000  0.000000
                       1.000000  1.000000  1.000000  1.000000  1.000000  1.000000
                       1.000000  1.000000  0.991083  0.000000  0.000000  0.000000
                       0.000000  0.000000
                       1.000000  1.000000  1.000000  1.000000  1.000000  1.000000
                       1.000000  0.999858  0.999858  0.000000  0.000000  0.000000
                       0.000000  0.000000
                       1.000000  1.000000  1.000000  1.000000  1.000000  1.000000
                       0.999625  0.999625  0.994269  0.000000  0.000000  0.000000
                       0.000000  0.000000
                       1.000000  1.000000  1.000000  1.000000  1.000000  0.998686
                       0.998686  0.000000  0.000000  0.000000  0.000000  0.000000
                       0.000000  0.000000
                       1.000000  1.000000  1.000000  1.000000  1.000000  1.000000
                       1.000000  0.000000  0.000000  0.000000  0.000000  0.000000
                       0.000000  0.000000
                       1.000000  1.000000  1.000000  1.000000  1.000000  1.000000
                       0.931670  0.000000  0.000000  0.000000  0.000000  0.000000
                       0.000000  0.000000
                       1.000000  1.000000  1.000000  1.000000  1.000000  0.682005
                       0.682005  0.302614  0.000000  0.000000  0.000000  0.000000
                       0.000000  0.000000
                       1.000000  1.000000  1.000000  1.000000  1.000000  1.000000
                       1.000000  0.000000  0.000000  0.000000  0.000000  0.000000
                       0.000000  0.000000
                       1.000000  1.000000  1.000000  1.000000  1.000000  0.999767
                       0.999619  0.000000  0.000000  0.000000  0.000000  0.000000
                       0.000000  0.000000
                       1.000000  1.000000  1.000000  1.000000  1.000000  1.000000
                       0.987627  0.000000  0.000000  0.000000  0.000000  0.000000
                       0.000000  0.000000
                       1.000000  1.000000  1.000000  1.000000  1.000000  1.000000
                       0.999858  0.000000  0.000000  0.000000  0.000000  0.000000
                       0.000000  0.000000
                       1.000000  1.000000  1.000000  1.000000  1.000000  1.000000
                       1.000000  0.000000  0.000000  0.000000  0.000000  0.000000
                       0.000000  0.000000
                       1.000000  1.000000  1.000000  1.000000  1.000000  1.000000
                       1.000000  0.000000  0.000000  0.000000  0.000000  0.000000
                       0.000000  0.000000
                       1.000000  1.000000  1.000000  1.000000  1.000000  0.999999
                       0.213782  0.213782  0.000000  0.000000  0.000000  0.000000
                       0.000000  0.000000
                       1.000000  1.000000  1.000000  1.000000  1.000000  1.000000
                       0.174286  0.000014  0.000000  0.000000  0.000000  0.000000
                       0.000000  0.000000
                       1.000000  1.000000  1.000000  1.000000  1.000000  1.000000
                       0.233979  0.000000  0.000000  0.000000  0.000000  0.000000
                       0.000000  0.000000
                       1.000000  1.000000  1.000000  1.000000  1.000000  1.000000
                       0.000000  0.000000  0.000000  0.000000  0.000000  0.000000
                       0.000000  0.000000
           occopt           7
        pawecutdg      1.00000000E+01 Hartree
           prtden           0
           prteig           0
            prtwf1          1
            prtwf2          0
            rprim     -5.0000000000E-01  5.0000000000E-01  5.0000000000E-01
                       5.0000000000E-01 -5.0000000000E-01  5.0000000000E-01
                       5.0000000000E-01  5.0000000000E-01 -5.0000000000E-01
           shiftk      5.00000000E-01  5.00000000E-01  5.00000000E-01
          spgroup         229
           spinat      0.0000000000E+00  0.0000000000E+00  4.0000000000E+00
           strten1     7.5557430517E-03  7.5557430517E-03  7.5557430517E-03
                       0.0000000000E+00  0.0000000000E+00  0.0000000000E+00
           strten2     7.5558529812E-03  7.5558529812E-03  7.5558529812E-03
                       0.0000000000E+00  0.0000000000E+00  0.0000000000E+00
           symrel      1  0  0   0  1  0   0  0  1      -1  0  0   0 -1  0   0  0 -1
                      -1 -1 -1   0  0  1   0  1  0       1  1  1   0  0 -1   0 -1  0
                       0  1  0   1  0  0  -1 -1 -1       0 -1  0  -1  0  0   1  1  1
                       0  0  1  -1 -1 -1   1  0  0       0  0 -1   1  1  1  -1  0  0
                       0  1  0   1  0  0   0  0  1       0 -1  0  -1  0  0   0  0 -1
                      -1 -1 -1   0  0  1   1  0  0       1  1  1   0  0 -1  -1  0  0
                       1  0  0   0  1  0  -1 -1 -1      -1  0  0   0 -1  0   1  1  1
                       0  0  1  -1 -1 -1   0  1  0       0  0 -1   1  1  1   0 -1  0
                      -1 -1 -1   1  0  0   0  0  1       1  1  1  -1  0  0   0  0 -1
                       0  1  0   0  0  1   1  0  0       0 -1  0   0  0 -1  -1  0  0
                       1  0  0  -1 -1 -1   0  1  0      -1  0  0   1  1  1   0 -1  0
                       0  0  1   0  1  0  -1 -1 -1       0  0 -1   0 -1  0   1  1  1
                       1  0  0  -1 -1 -1   0  0  1      -1  0  0   1  1  1   0  0 -1
                       0  1  0   0  0  1  -1 -1 -1       0 -1  0   0  0 -1   1  1  1
                      -1 -1 -1   1  0  0   0  1  0       1  1  1  -1  0  0   0 -1  0
                       0  0  1   0  1  0   1  0  0       0  0 -1   0 -1  0  -1  0  0
                       0  1  0  -1 -1 -1   0  0  1       0 -1  0   1  1  1   0  0 -1
                       1  0  0   0  0  1  -1 -1 -1      -1  0  0   0  0 -1   1  1  1
                      -1 -1 -1   0  1  0   1  0  0       1  1  1   0 -1  0  -1  0  0
                       0  0  1   1  0  0   0  1  0       0  0 -1  -1  0  0   0 -1  0
                      -1 -1 -1   0  1  0   0  0  1       1  1  1   0 -1  0   0  0 -1
                       1  0  0   0  0  1   0  1  0      -1  0  0   0  0 -1   0 -1  0
                       0  1  0  -1 -1 -1   1  0  0       0 -1  0   1  1  1  -1  0  0
                       0  0  1   1  0  0  -1 -1 -1       0  0 -1  -1  0  0   1  1  1
           toldfe      1.00000000E-10 Hartree
           tsmear      8.00000000E-03 Hartree
            typat1     1
            typat2     2
           useylm           1
              wtk        0.03704    0.11111    0.05556    0.02778    0.11111    0.11111
                         0.11111    0.11111    0.11111    0.00926    0.02778    0.11111
                         0.03704    0.02778
            znucl       26.00000   26.00000

================================================================================


- Timing analysis has been suppressed with timopt=0



================================================================================

 Suggested references for the acknowledgment of ABINIT usage.

 The users of ABINIT have little formal obligations with respect to the ABINIT group
 (those specified in the GNU General Public License, http://www.gnu.org/copyleft/gpl.txt).
 However, it is common practice in the scientific literature,
 to acknowledge the efforts of people that have made the research possible.
 In this spirit, please find below suggested citations of work written by ABINIT developers,
 corresponding to implementations inside of ABINIT that you have used in the present run.
 Note also that it will be of great value to readers of publications presenting these results,
 to read papers enabling them to understand the theoretical formalism and details
 of the ABINIT implementation.
 For information on why they are suggested, see also http://www.abinit.org/about/?text=acknowledgments.

 [1] Implementation of the Projector Augmented-Wave Method in the ABINIT code.
 M. Torrent, F. Jollet, F. Bottin, G. Zerah, and X. Gonze Comput. Mat. Science 42, 337, (2008).
 Comment : PAW calculations. Strong suggestion to cite this paper.

 [2] ABINIT : First-principles approach of materials and nanosystem properties.
 X. Gonze, B. Amadon, P.-M. Anglade, J.-M. Beuken, F. Bottin, P. Boulanger, F. Bruneval,
 D. Caliste, R. Caracas, M. Cote, T. Deutsch, L. Genovese, Ph. Ghosez, M. Giantomassi
 S. Goedecker, D.R. Hamann, P. Hermet, F. Jollet, G. Jomard, S. Leroux, M. Mancini, S. Mazevet,
 M.J.T. Oliveira, G. Onida, Y. Pouillon, T. Rangel, G.-M. Rignanese, D. Sangalli, R. Shaltaf,
 M. Torrent, M.J. Verstraete, G. Zerah, J.W. Zwanziger
 Computer Phys. Comm. 180, 2582-2615 (2009).
 Comment : the third generic paper describing the ABINIT project.
 Note that a version of this paper, that is not formatted for Computer Phys. Comm. 
 is available at http://www.abinit.org/about/ABINIT_CPC_v10.pdf .
 The licence allows the authors to put it on the Web.

 [3] A brief introduction to the ABINIT software package.
 X. Gonze, G.-M. Rignanese, M. Verstraete, J.-M. Beuken, Y. Pouillon, R. Caracas, F. Jollet,
 M. Torrent, G. Zerah, M. Mikami, Ph. Ghosez, M. Veithen, J.-Y. Raty, V. Olevano, F. Bruneval,
 L. Reining, R. Godby, G. Onida, D.R. Hamann, and D.C. Allan.
 Z. Kristallogr. 220, 558-562 (2005).
 Comment : the second generic paper describing the ABINIT project. Note that this paper
 should be cited especially if you are using the GW part of ABINIT, as several authors
 of this part are not in the list of authors of the first or third paper.
 The .pdf of the latter paper is available at http://www.abinit.org/about/zfk_0505-06_558-562.pdf.
 Note that it should not redistributed (Copyright by Oldenburg Wissenshaftverlag,
 the licence allows the authors to put it on the Web).


 And optionally :

 [4] First-principles computation of material properties : the ABINIT software project. 
 X. Gonze, J.-M. Beuken, R. Caracas, F. Detraux, M. Fuchs, G.-M. Rignanese, L. Sindic,
 M. Verstraete, G. Zerah, F. Jollet, M. Torrent, A. Roy, M. Mikami, Ph. Ghosez, J.-Y. Raty, D.C. Allan.
 Computational Materials Science 25, 478-492 (2002). http://dx.doi.org/10.1016/S0927-0256(02)00325-7
 Comment : the original paper describing the ABINIT project.

 [5] Fast radix 2, 3, 4 and 5 kernels for Fast Fourier Transformations
 on computers with overlapping multiply-add instructions.
 S. Goedecker, SIAM J. on Scientific Computing 18, 1605 (1997).
-
- Proc.   0 individual time (sec): cpu=          7.1  wall=          7.5

================================================================================

 Calculation completed.
.Delivered    7 WARNINGs and   0 COMMENTs to log file.
+Overall time at end (sec) : cpu=          7.1  wall=          7.5
