
.Version 7.9.3 of ABINIT 
.(MPI version, prepared for a x86_64_linux_gnu4.7 computer) 

.Copyright (C) 1998-2014 ABINIT group . 
 ABINIT comes with ABSOLUTELY NO WARRANTY.
 It is free software, and you are welcome to redistribute it
 under certain conditions (GNU General Public License,
 see ~abinit/COPYING or http://www.gnu.org/copyleft/gpl.txt).

 ABINIT is a project of the Universite Catholique de Louvain,
 Corning Inc. and other collaborators, see ~abinit/doc/developers/contributors.txt .
 Please read ~abinit/doc/users/acknowledgments.html for suggested
 acknowledgments of the ABINIT effort.
 For more information, see http://www.abinit.org .

.Starting date : Sat 30 Aug 2014.
- ( at 22h20 )
  
- input  file    -> t08.in
- output file    -> t08.out
- root for input  files -> t08i
- root for output files -> t08o


 Symmetries : space group Pm -3 m (#221); Bravais cP (primitive cubic)
================================================================================
 Values of the parameters that define the memory need of the present run
   intxc =         0  ionmov =         0    iscf =         3 xclevel =         2
  lmnmax =         2   lnmax =         2   mband =         4  mffmem =         1
P  mgfft =        75   mkmem =         1 mpssoang=         2     mpw =     13265
  mqgrid =      3699   natom =         1    nfft =    421875    nkpt =         1
  nloalg =         4  nspden =         1 nspinor =         1  nsppol =         1
    nsym =        48  n1xccc =         0  ntypat =         1  occopt =         0
================================================================================
P This job should need less than                      91.549 Mbytes of memory.
  Rough estimation (10% accuracy) of disk space for files :
_ WF disk file :      0.812 Mbytes ; DEN or POT disk file :      3.221 Mbytes.
================================================================================

--------------------------------------------------------------------------------
------------- Echo of variables that govern the present computation ------------
--------------------------------------------------------------------------------
-
- outvars: echo of selected default values                                      
-   accesswff0 =  0 , fftalg0 =112 , wfoptalg0 =  0
-
- outvars: echo of global parameters not present in the input file              
-  max_nthreads =    0
-
 -outvars: echo values of preprocessed input variables --------
            acell      1.5000000000E+01  1.5000000000E+01  1.5000000000E+01 Bohr
              amu      1.20110000E+01
           diemac      1.00000000E+00
           diemix      5.00000000E-01
             ecut      3.00000000E+01 Hartree
-          fftalg         112
             iscf           3
           istwfk        2
              ixc      -12207
           kptopt           0
P           mkmem           1
            natom           1
            nband           4
            ngfft          75      75      75
             nkpt           1
            nstep          14
             nsym          48
           ntypat           1
              occ      2.000000  0.666667  0.666667  0.666667
           occopt           0
          spgroup         221
           symrel      1  0  0   0  1  0   0  0  1      -1  0  0   0 -1  0   0  0 -1
                      -1  0  0   0  1  0   0  0 -1       1  0  0   0 -1  0   0  0  1
                      -1  0  0   0 -1  0   0  0  1       1  0  0   0  1  0   0  0 -1
                       1  0  0   0 -1  0   0  0 -1      -1  0  0   0  1  0   0  0  1
                       0  1  0   1  0  0   0  0  1       0 -1  0  -1  0  0   0  0 -1
                       0 -1  0   1  0  0   0  0 -1       0  1  0  -1  0  0   0  0  1
                       0 -1  0  -1  0  0   0  0  1       0  1  0   1  0  0   0  0 -1
                       0  1  0  -1  0  0   0  0 -1       0 -1  0   1  0  0   0  0  1
                       0  0  1   1  0  0   0  1  0       0  0 -1  -1  0  0   0 -1  0
                       0  0 -1   1  0  0   0 -1  0       0  0  1  -1  0  0   0  1  0
                       0  0 -1  -1  0  0   0  1  0       0  0  1   1  0  0   0 -1  0
                       0  0  1  -1  0  0   0 -1  0       0  0 -1   1  0  0   0  1  0
                       1  0  0   0  0  1   0  1  0      -1  0  0   0  0 -1   0 -1  0
                      -1  0  0   0  0  1   0 -1  0       1  0  0   0  0 -1   0  1  0
                      -1  0  0   0  0 -1   0  1  0       1  0  0   0  0  1   0 -1  0
                       1  0  0   0  0 -1   0 -1  0      -1  0  0   0  0  1   0  1  0
                       0  1  0   0  0  1   1  0  0       0 -1  0   0  0 -1  -1  0  0
                       0 -1  0   0  0  1  -1  0  0       0  1  0   0  0 -1   1  0  0
                       0 -1  0   0  0 -1   1  0  0       0  1  0   0  0  1  -1  0  0
                       0  1  0   0  0 -1  -1  0  0       0 -1  0   0  0  1   1  0  0
                       0  0  1   0  1  0   1  0  0       0  0 -1   0 -1  0  -1  0  0
                       0  0 -1   0  1  0  -1  0  0       0  0  1   0 -1  0   1  0  0
                       0  0 -1   0 -1  0   1  0  0       0  0  1   0  1  0  -1  0  0
                       0  0  1   0 -1  0  -1  0  0       0  0 -1   0  1  0   1  0  0
           tolwfr      1.00000000E-16
            typat      1
          usekden           1
            znucl        6.00000

================================================================================

 chkinp: Checking input parameters for consistency.

================================================================================
== DATASET  1 ==================================================================
-   nproc =    1

 Real(R)+Recip(G) space primitive vectors, cartesian coordinates (Bohr,Bohr^-1):
 R(1)= 15.0000000  0.0000000  0.0000000  G(1)=  0.0666667  0.0000000  0.0000000
 R(2)=  0.0000000 15.0000000  0.0000000  G(2)=  0.0000000  0.0666667  0.0000000
 R(3)=  0.0000000  0.0000000 15.0000000  G(3)=  0.0000000  0.0000000  0.0666667
 Unit cell volume ucvol=  3.3750000E+03 bohr^3
 Angles (23,13,12)=  9.00000000E+01  9.00000000E+01  9.00000000E+01 degrees

 getcut: wavevector=  0.0000  0.0000  0.0000  ngfft=  75  75  75
         ecut(hartree)=     30.000   => boxcut(ratio)=   2.00085

--- Pseudopotential description ------------------------------------------------
- pspini: atom type   1  psp file is /home/gonze/ABINIT/ABINITv7.9.3/trunk/7.9.3-private/tests/Psps_for_tests/6-C.fhi
- pspatm: opening atomic psp file    /home/gonze/ABINIT/ABINITv7.9.3/trunk/7.9.3-private/tests/Psps_for_tests/6-C.fhi
-    C  APE 1.0 : Troullier-Martins scheme, , llocal= 1
-  6.00000   4.00000  20100127                znucl, zion, pspdat
    6    0    1    1       400   0.00000      pspcod,pspxc,lmax,lloc,mmax,r2well
    0.00000000000000    0.00000000000000    0.00000000000000   rchrg,fchrg,qchrg
  1.038086          amesh (Hamman grid)
 pspatm: epsatm=    0.13429536
         --- l  ekb(1:nproj) -->
             0    5.611174
 pspatm: atomic psp has been read  and splines computed

   5.37181436E-01                                ecore*ucvol(ha*bohr**3)
--------------------------------------------------------------------------------

P newkpt: treating      4 bands with npw=   13265 for ikpt=   1 by node    0

_setup2: Arith. and geom. avg. npw (full set) are   26529.000   26529.000

================================================================================

     iter   Etot(hartree)      deltaE(h)  residm     vres2
 ETOT  1  -4.2400416678443    -4.240E+00 5.604E-02 3.528E+03
 ETOT  2  -4.1951302415843     4.491E-02 2.689E-05 3.772E+04
 ETOT  3  -4.2000761096562    -4.946E-03 6.620E-07 4.748E+04
 ETOT  4  -4.2240242942408    -2.395E-02 1.511E-05 2.292E+04
 ETOT  5  -4.2274545906995    -3.430E-03 1.055E-05 1.921E+04
 ETOT  6  -4.2264487509918     1.006E-03 1.695E-07 1.342E+04
 ETOT  7  -4.2256180881369     8.307E-04 6.842E-07 2.155E+03
 ETOT  8  -4.2252430257900     3.751E-04 2.253E-07 8.099E+02
 ETOT  9  -4.2250214931674     2.215E-04 6.341E-08 2.991E+02
 ETOT 10  -4.2249654256153     5.607E-05 5.065E-09 1.673E+02
 ETOT 11  -4.2248763423098     8.908E-05 4.468E-09 1.166E+01
 ETOT 12  -4.2248884861771    -1.214E-05 7.692E-11 2.746E+00
 ETOT 13  -4.2248944512344    -5.965E-06 1.425E-11 1.106E+00
 ETOT 14  -4.2248964634403    -2.012E-06 5.634E-12 2.281E-01

 Cartesian components of stress tensor (hartree/bohr^3)
  sigma(1 1)=  3.76251988E-04  sigma(3 2)=  0.00000000E+00
  sigma(2 2)=  3.76251988E-04  sigma(3 1)=  0.00000000E+00
  sigma(3 3)=  3.76251988E-04  sigma(2 1)=  0.00000000E+00


 scprqt:  WARNING -
  nstep=   14 was not enough SCF cycles to converge;
  maximum residual=  5.634E-12 exceeds tolwfr=  1.000E-16

================================================================================

 ----iterations are completed or convergence reached----

 Mean square residual over all n,k,spin=   1.5948E-12; max=  5.6344E-12
   0.0000  0.0000  0.0000    1  5.63436E-12 kpt; spin; max resid(k); each band:
  5.63E-12 2.49E-13 2.49E-13 2.47E-13
 reduced coordinates (array xred) for    1 atoms
       0.000000000000      0.000000000000      0.000000000000
 rms dE/dt=  0.0000E+00; max dE/dt=  0.0000E+00; dE/dt below (all hartree)
    1       0.000000000000      0.000000000000      0.000000000000

 cartesian coordinates (angstrom) at end:
    1      0.00000000000000     0.00000000000000     0.00000000000000

 cartesian forces (hartree/bohr) at end:
    1     -0.00000000000000    -0.00000000000000    -0.00000000000000
 frms,max,avg= 0.0000000E+00 0.0000000E+00   0.000E+00  0.000E+00  0.000E+00 h/b

 cartesian forces (eV/Angstrom) at end:
    1     -0.00000000000000    -0.00000000000000    -0.00000000000000
 frms,max,avg= 0.0000000E+00 0.0000000E+00   0.000E+00  0.000E+00  0.000E+00 e/A
 length scales= 15.000000000000 15.000000000000 15.000000000000 bohr
              =  7.937658128850  7.937658128850  7.937658128850 angstroms
 prteigrs : about to open file t08o_EIG
 Fermi (or HOMO) energy (hartree) =  -0.19774   Average Vxc (hartree)=   0.22941
 Eigenvalues (hartree) for nkpt=   1  k points:
 kpt#   1, nband=  4, wtk=  1.00000, kpt=  0.0000  0.0000  0.0000 (reduced coord)
  -0.50945  -0.19774  -0.19774  -0.19774
 Total charge density [el/Bohr^3]
,     Maximum=    2.1484E-01  at reduced coord.    0.0000    0.9600    0.9867
,Next maximum=    2.1484E-01  at reduced coord.    0.0000    0.0400    0.9867
,     Minimum=    2.1277E-11  at reduced coord.    0.4800    0.4800    0.0000
,Next minimum=    2.1277E-11  at reduced coord.    0.5200    0.4800    0.0000
,  Integrated=    4.0000E+00

--------------------------------------------------------------------------------
 Components of total free energy (in Hartree) :

    Kinetic energy  =  3.10973014740547E+00
    Hartree energy  =  2.87533429061409E+00
    XC energy       = -1.93257590379781E-01
    Ewald energy    = -1.51322532238966E+00
    PspCore energy  =  1.59164869860312E-04
    Loc. psp. energy= -9.40482369030514E+00
    NL   psp  energy=  9.01186536744836E-01
    >>>>>>>>> Etotal= -4.22489646344033E+00

 Other information on the energy :
    Total energy(eV)= -1.14965279435431E+02 ; Band energy (Ha)=  -1.4143760606E+00
--------------------------------------------------------------------------------

 Cartesian components of stress tensor (hartree/bohr^3)
  sigma(1 1)=  3.76251988E-04  sigma(3 2)=  0.00000000E+00
  sigma(2 2)=  3.76251988E-04  sigma(3 1)=  0.00000000E+00
  sigma(3 3)=  3.76251988E-04  sigma(2 1)=  0.00000000E+00

-Cartesian components of stress tensor (GPa)         [Pressure= -1.1070E+01 GPa]
- sigma(1 1)=  1.10697138E+01  sigma(3 2)=  0.00000000E+00
- sigma(2 2)=  1.10697138E+01  sigma(3 1)=  0.00000000E+00
- sigma(3 3)=  1.10697138E+01  sigma(2 1)=  0.00000000E+00

== END DATASET(S) ==============================================================
================================================================================
  
 -outvars: echo values of variables after computation  --------
            acell      1.5000000000E+01  1.5000000000E+01  1.5000000000E+01 Bohr
              amu      1.20110000E+01
           diemac      1.00000000E+00
           diemix      5.00000000E-01
             ecut      3.00000000E+01 Hartree
           etotal     -4.2248964634E+00
            fcart     -0.0000000000E+00 -0.0000000000E+00 -0.0000000000E+00
-          fftalg         112
             iscf           3
           istwfk        2
              ixc      -12207
           kptopt           0
P           mkmem           1
            natom           1
            nband           4
            ngfft          75      75      75
             nkpt           1
            nstep          14
             nsym          48
           ntypat           1
              occ      2.000000  0.666667  0.666667  0.666667
           occopt           0
          spgroup         221
           strten      3.7625198763E-04  3.7625198763E-04  3.7625198763E-04
                       0.0000000000E+00  0.0000000000E+00  0.0000000000E+00
           symrel      1  0  0   0  1  0   0  0  1      -1  0  0   0 -1  0   0  0 -1
                      -1  0  0   0  1  0   0  0 -1       1  0  0   0 -1  0   0  0  1
                      -1  0  0   0 -1  0   0  0  1       1  0  0   0  1  0   0  0 -1
                       1  0  0   0 -1  0   0  0 -1      -1  0  0   0  1  0   0  0  1
                       0  1  0   1  0  0   0  0  1       0 -1  0  -1  0  0   0  0 -1
                       0 -1  0   1  0  0   0  0 -1       0  1  0  -1  0  0   0  0  1
                       0 -1  0  -1  0  0   0  0  1       0  1  0   1  0  0   0  0 -1
                       0  1  0  -1  0  0   0  0 -1       0 -1  0   1  0  0   0  0  1
                       0  0  1   1  0  0   0  1  0       0  0 -1  -1  0  0   0 -1  0
                       0  0 -1   1  0  0   0 -1  0       0  0  1  -1  0  0   0  1  0
                       0  0 -1  -1  0  0   0  1  0       0  0  1   1  0  0   0 -1  0
                       0  0  1  -1  0  0   0 -1  0       0  0 -1   1  0  0   0  1  0
                       1  0  0   0  0  1   0  1  0      -1  0  0   0  0 -1   0 -1  0
                      -1  0  0   0  0  1   0 -1  0       1  0  0   0  0 -1   0  1  0
                      -1  0  0   0  0 -1   0  1  0       1  0  0   0  0  1   0 -1  0
                       1  0  0   0  0 -1   0 -1  0      -1  0  0   0  0  1   0  1  0
                       0  1  0   0  0  1   1  0  0       0 -1  0   0  0 -1  -1  0  0
                       0 -1  0   0  0  1  -1  0  0       0  1  0   0  0 -1   1  0  0
                       0 -1  0   0  0 -1   1  0  0       0  1  0   0  0  1  -1  0  0
                       0  1  0   0  0 -1  -1  0  0       0 -1  0   0  0  1   1  0  0
                       0  0  1   0  1  0   1  0  0       0  0 -1   0 -1  0  -1  0  0
                       0  0 -1   0  1  0  -1  0  0       0  0  1   0 -1  0   1  0  0
                       0  0 -1   0 -1  0   1  0  0       0  0  1   0  1  0  -1  0  0
                       0  0  1   0 -1  0  -1  0  0       0  0 -1   0  1  0   1  0  0
           tolwfr      1.00000000E-16
            typat      1
          usekden           1
            znucl        6.00000

================================================================================


- Timing analysis has been suppressed with timopt=0



================================================================================

 Suggested references for the acknowledgment of ABINIT usage.

 The users of ABINIT have little formal obligations with respect to the ABINIT group
 (those specified in the GNU General Public License, http://www.gnu.org/copyleft/gpl.txt).
 However, it is common practice in the scientific literature,
 to acknowledge the efforts of people that have made the research possible.
 In this spirit, please find below suggested citations of work written by ABINIT developers,
 corresponding to implementations inside of ABINIT that you have used in the present run.
 Note also that it will be of great value to readers of publications presenting these results,
 to read papers enabling them to understand the theoretical formalism and details
 of the ABINIT implementation.
 For information on why they are suggested, see also http://www.abinit.org/about/?text=acknowledgments.

 [1] Libxc: A library of exchange and correlation functionals for density functional theory.
 M.A.L. Marques, M.J.T. Oliveira, T. Burnus, Computer Physics Communications 183, 2227 (2012).
 Comment : to be cited when LibXC is used (negative value of ixc)
 Strong suggestion to cite this paper.

 [2] Ab initio pseudopotentials for electronic structure calculations of poly-atomic systems, 
 using density-functional theory.
 M. Fuchs, M. Scheffler, Comput. Phys. Commun. 119, 67 (1999).
 Comment : Some pseudopotential generated using the FHI code were used.

 [3] ABINIT : First-principles approach of materials and nanosystem properties.
 X. Gonze, B. Amadon, P.-M. Anglade, J.-M. Beuken, F. Bottin, P. Boulanger, F. Bruneval,
 D. Caliste, R. Caracas, M. Cote, T. Deutsch, L. Genovese, Ph. Ghosez, M. Giantomassi
 S. Goedecker, D.R. Hamann, P. Hermet, F. Jollet, G. Jomard, S. Leroux, M. Mancini, S. Mazevet,
 M.J.T. Oliveira, G. Onida, Y. Pouillon, T. Rangel, G.-M. Rignanese, D. Sangalli, R. Shaltaf,
 M. Torrent, M.J. Verstraete, G. Zerah, J.W. Zwanziger
 Computer Phys. Comm. 180, 2582-2615 (2009).
 Comment : the third generic paper describing the ABINIT project.
 Note that a version of this paper, that is not formatted for Computer Phys. Comm. 
 is available at http://www.abinit.org/about/ABINIT_CPC_v10.pdf .
 The licence allows the authors to put it on the Web.

 [4] A brief introduction to the ABINIT software package.
 X. Gonze, G.-M. Rignanese, M. Verstraete, J.-M. Beuken, Y. Pouillon, R. Caracas, F. Jollet,
 M. Torrent, G. Zerah, M. Mikami, Ph. Ghosez, M. Veithen, J.-Y. Raty, V. Olevano, F. Bruneval,
 L. Reining, R. Godby, G. Onida, D.R. Hamann, and D.C. Allan.
 Z. Kristallogr. 220, 558-562 (2005).
 Comment : the second generic paper describing the ABINIT project. Note that this paper
 should be cited especially if you are using the GW part of ABINIT, as several authors
 of this part are not in the list of authors of the first or third paper.
 The .pdf of the latter paper is available at http://www.abinit.org/about/zfk_0505-06_558-562.pdf.
 Note that it should not redistributed (Copyright by Oldenburg Wissenshaftverlag,
 the licence allows the authors to put it on the Web).


 And optionally :

 [5] First-principles computation of material properties : the ABINIT software project. 
 X. Gonze, J.-M. Beuken, R. Caracas, F. Detraux, M. Fuchs, G.-M. Rignanese, L. Sindic,
 M. Verstraete, G. Zerah, F. Jollet, M. Torrent, A. Roy, M. Mikami, Ph. Ghosez, J.-Y. Raty, D.C. Allan.
 Computational Materials Science 25, 478-492 (2002). http://dx.doi.org/10.1016/S0927-0256(02)00325-7
 Comment : the original paper describing the ABINIT project.
-
- Proc.   0 individual time (sec): cpu=         34.1  wall=         34.1

================================================================================

 Calculation completed.
.Delivered    8 WARNINGs and   0 COMMENTs to log file.
+Overall time at end (sec) : cpu=         34.1  wall=         34.1
