
.Version 7.9.3 of ABINIT 
.(MPI version, prepared for a x86_64_linux_gnu4.7 computer) 

.Copyright (C) 1998-2014 ABINIT group . 
 ABINIT comes with ABSOLUTELY NO WARRANTY.
 It is free software, and you are welcome to redistribute it
 under certain conditions (GNU General Public License,
 see ~abinit/COPYING or http://www.gnu.org/copyleft/gpl.txt).

 ABINIT is a project of the Universite Catholique de Louvain,
 Corning Inc. and other collaborators, see ~abinit/doc/developers/contributors.txt .
 Please read ~abinit/doc/users/acknowledgments.html for suggested
 acknowledgments of the ABINIT effort.
 For more information, see http://www.abinit.org .

.Starting date : Sat 30 Aug 2014.
- ( at 22h20 )
  
- input  file    -> t17.in
- output file    -> t17.out
- root for input  files -> t17i
- root for output files -> t17o


 DATASET    1 : space group Pm -3 m (#221); Bravais cP (primitive cubic)
================================================================================
 Values of the parameters that define the memory need for DATASET  1.
   intxc =         0  ionmov =         0    iscf =         3 xclevel =         1
  lmnmax =         1   lnmax =         1   mband =         1  mffmem =         1
P  mgfft =        32   mkmem =         1 mpssoang=         1     mpw =      2118
  mqgrid =      3001   natom =         1    nfft =     32768    nkpt =         1
  nloalg =         4  nspden =         1 nspinor =         1  nsppol =         1
    nsym =        48  n1xccc =         0  ntypat =         1  occopt =         1
================================================================================
P This job should need less than                       6.865 Mbytes of memory.
  Rough estimation (10% accuracy) of disk space for files :
_ WF disk file :      0.034 Mbytes ; DEN or POT disk file :      0.252 Mbytes.
================================================================================


 DATASET    2 : space group Pm -3 m (#221); Bravais cP (primitive cubic)
================================================================================
 Values of the parameters that define the memory need for DATASET  2.
   intxc =         0  ionmov =         0    iscf =         3 xclevel =         1
  lmnmax =         1   lnmax =         1   mband =         1  mffmem =         1
P  mgfft =        32   mkmem =         1 mpssoang=         1     mpw =      2118
  mqgrid =      3001   natom =         1    nfft =     32768    nkpt =         1
  nloalg =         4  nspden =         1 nspinor =         1  nsppol =         1
    nsym =        48  n1xccc =         0  ntypat =         1  occopt =         1
================================================================================
P This job should need less than                       6.865 Mbytes of memory.
  Rough estimation (10% accuracy) of disk space for files :
_ WF disk file :      0.034 Mbytes ; DEN or POT disk file :      0.252 Mbytes.
================================================================================


 DATASET    3 : space group Pm -3 m (#221); Bravais cP (primitive cubic)
================================================================================
 Values of the parameters that define the memory need for DATASET  3.
   intxc =         0  ionmov =         0    iscf =         3 xclevel =         1
  lmnmax =         1   lnmax =         1   mband =         1  mffmem =         1
P  mgfft =        32   mkmem =         1 mpssoang=         1     mpw =      2118
  mqgrid =      3001   natom =         1    nfft =     32768    nkpt =         1
  nloalg =         4  nspden =         1 nspinor =         1  nsppol =         1
    nsym =        48  n1xccc =         0  ntypat =         1  occopt =         1
================================================================================
P This job should need less than                       6.865 Mbytes of memory.
  Rough estimation (10% accuracy) of disk space for files :
_ WF disk file :      0.034 Mbytes ; DEN or POT disk file :      0.252 Mbytes.
================================================================================


 DATASET    4 : space group Pm -3 m (#221); Bravais cP (primitive cubic)
================================================================================
 Values of the parameters that define the memory need for DATASET  4.
   intxc =         0  ionmov =         0    iscf =         3 xclevel =         2
  lmnmax =         1   lnmax =         1   mband =         1  mffmem =         1
P  mgfft =        32   mkmem =         1 mpssoang=         1     mpw =      2118
  mqgrid =      3001   natom =         1    nfft =     32768    nkpt =         1
  nloalg =         4  nspden =         1 nspinor =         1  nsppol =         1
    nsym =        48  n1xccc =         0  ntypat =         1  occopt =         1
================================================================================
P This job should need less than                       7.461 Mbytes of memory.
  Rough estimation (10% accuracy) of disk space for files :
_ WF disk file :      0.034 Mbytes ; DEN or POT disk file :      0.252 Mbytes.
================================================================================


 DATASET    5 : space group Pm -3 m (#221); Bravais cP (primitive cubic)
================================================================================
 Values of the parameters that define the memory need for DATASET  5.
   intxc =         0  ionmov =         0    iscf =         3 xclevel =         2
  lmnmax =         1   lnmax =         1   mband =         1  mffmem =         1
P  mgfft =        32   mkmem =         1 mpssoang=         1     mpw =      2118
  mqgrid =      3001   natom =         1    nfft =     32768    nkpt =         1
  nloalg =         4  nspden =         1 nspinor =         1  nsppol =         1
    nsym =        48  n1xccc =         0  ntypat =         1  occopt =         1
================================================================================
P This job should need less than                       7.461 Mbytes of memory.
  Rough estimation (10% accuracy) of disk space for files :
_ WF disk file :      0.034 Mbytes ; DEN or POT disk file :      0.252 Mbytes.
================================================================================


 DATASET    6 : space group Pm -3 m (#221); Bravais cP (primitive cubic)
================================================================================
 Values of the parameters that define the memory need for DATASET  6.
   intxc =         0  ionmov =         0    iscf =         3 xclevel =         2
  lmnmax =         1   lnmax =         1   mband =         1  mffmem =         1
P  mgfft =        32   mkmem =         1 mpssoang=         1     mpw =      2118
  mqgrid =      3001   natom =         1    nfft =     32768    nkpt =         1
  nloalg =         4  nspden =         1 nspinor =         1  nsppol =         1
    nsym =        48  n1xccc =         0  ntypat =         1  occopt =         1
================================================================================
P This job should need less than                       7.461 Mbytes of memory.
  Rough estimation (10% accuracy) of disk space for files :
_ WF disk file :      0.034 Mbytes ; DEN or POT disk file :      0.252 Mbytes.
================================================================================


 DATASET    7 : space group Pm -3 m (#221); Bravais cP (primitive cubic)
================================================================================
 Values of the parameters that define the memory need for DATASET  7.
   intxc =         0  ionmov =         0    iscf =         3 xclevel =         2
  lmnmax =         1   lnmax =         1   mband =         1  mffmem =         1
P  mgfft =        32   mkmem =         1 mpssoang=         1     mpw =      2118
  mqgrid =      3001   natom =         1    nfft =     32768    nkpt =         1
  nloalg =         4  nspden =         1 nspinor =         1  nsppol =         1
    nsym =        48  n1xccc =         0  ntypat =         1  occopt =         1
================================================================================
P This job should need less than                       7.461 Mbytes of memory.
  Rough estimation (10% accuracy) of disk space for files :
_ WF disk file :      0.034 Mbytes ; DEN or POT disk file :      0.252 Mbytes.
================================================================================


 DATASET    8 : space group Pm -3 m (#221); Bravais cP (primitive cubic)
================================================================================
 Values of the parameters that define the memory need for DATASET  8.
   intxc =         0  ionmov =         0    iscf =         3 xclevel =         2
  lmnmax =         1   lnmax =         1   mband =         1  mffmem =         1
P  mgfft =        32   mkmem =         1 mpssoang=         1     mpw =      2118
  mqgrid =      3001   natom =         1    nfft =     32768    nkpt =         1
  nloalg =         4  nspden =         1 nspinor =         1  nsppol =         1
    nsym =        48  n1xccc =         0  ntypat =         1  occopt =         1
================================================================================
P This job should need less than                       7.461 Mbytes of memory.
  Rough estimation (10% accuracy) of disk space for files :
_ WF disk file :      0.034 Mbytes ; DEN or POT disk file :      0.252 Mbytes.
================================================================================


 DATASET    9 : space group Pm -3 m (#221); Bravais cP (primitive cubic)
================================================================================
 Values of the parameters that define the memory need for DATASET  9.
   intxc =         0  ionmov =         0    iscf =         3 xclevel =         2
  lmnmax =         1   lnmax =         1   mband =         1  mffmem =         1
P  mgfft =        32   mkmem =         1 mpssoang=         1     mpw =      2118
  mqgrid =      3001   natom =         1    nfft =     32768    nkpt =         1
  nloalg =         4  nspden =         1 nspinor =         1  nsppol =         1
    nsym =        48  n1xccc =         0  ntypat =         1  occopt =         1
================================================================================
P This job should need less than                       7.461 Mbytes of memory.
  Rough estimation (10% accuracy) of disk space for files :
_ WF disk file :      0.034 Mbytes ; DEN or POT disk file :      0.252 Mbytes.
================================================================================


 DATASET   10 : space group Pm -3 m (#221); Bravais cP (primitive cubic)
================================================================================
 Values of the parameters that define the memory need for DATASET 10.
   intxc =         0  ionmov =         0    iscf =         3 xclevel =         2
  lmnmax =         1   lnmax =         1   mband =         1  mffmem =         1
P  mgfft =        32   mkmem =         1 mpssoang=         1     mpw =      2118
  mqgrid =      3001   natom =         1    nfft =     32768    nkpt =         1
  nloalg =         4  nspden =         1 nspinor =         1  nsppol =         1
    nsym =        48  n1xccc =         0  ntypat =         1  occopt =         1
================================================================================
P This job should need less than                       7.461 Mbytes of memory.
  Rough estimation (10% accuracy) of disk space for files :
_ WF disk file :      0.034 Mbytes ; DEN or POT disk file :      0.252 Mbytes.
================================================================================


 DATASET   11 : space group Pm -3 m (#221); Bravais cP (primitive cubic)
================================================================================
 Values of the parameters that define the memory need for DATASET 11.
   intxc =         0  ionmov =         0    iscf =         3 xclevel =         2
  lmnmax =         1   lnmax =         1   mband =         1  mffmem =         1
P  mgfft =        32   mkmem =         1 mpssoang=         1     mpw =      2118
  mqgrid =      3001   natom =         1    nfft =     32768    nkpt =         1
  nloalg =         4  nspden =         1 nspinor =         1  nsppol =         1
    nsym =        48  n1xccc =         0  ntypat =         1  occopt =         1
================================================================================
P This job should need less than                       7.461 Mbytes of memory.
  Rough estimation (10% accuracy) of disk space for files :
_ WF disk file :      0.034 Mbytes ; DEN or POT disk file :      0.252 Mbytes.
================================================================================


 DATASET   12 : space group Pm -3 m (#221); Bravais cP (primitive cubic)
================================================================================
 Values of the parameters that define the memory need for DATASET 12.
   intxc =         0  ionmov =         0    iscf =         3 xclevel =         2
  lmnmax =         1   lnmax =         1   mband =         1  mffmem =         1
P  mgfft =        32   mkmem =         1 mpssoang=         1     mpw =      2118
  mqgrid =      3001   natom =         1    nfft =     32768    nkpt =         1
  nloalg =         4  nspden =         1 nspinor =         1  nsppol =         1
    nsym =        48  n1xccc =         0  ntypat =         1  occopt =         1
================================================================================
P This job should need less than                       7.461 Mbytes of memory.
  Rough estimation (10% accuracy) of disk space for files :
_ WF disk file :      0.034 Mbytes ; DEN or POT disk file :      0.252 Mbytes.
================================================================================


 DATASET   13 : space group Pm -3 m (#221); Bravais cP (primitive cubic)
================================================================================
 Values of the parameters that define the memory need for DATASET 13.
   intxc =         0  ionmov =         0    iscf =         3 xclevel =         2
  lmnmax =         1   lnmax =         1   mband =         1  mffmem =         1
P  mgfft =        32   mkmem =         1 mpssoang=         1     mpw =      2118
  mqgrid =      3001   natom =         1    nfft =     32768    nkpt =         1
  nloalg =         4  nspden =         1 nspinor =         1  nsppol =         1
    nsym =        48  n1xccc =         0  ntypat =         1  occopt =         1
================================================================================
P This job should need less than                       7.461 Mbytes of memory.
  Rough estimation (10% accuracy) of disk space for files :
_ WF disk file :      0.034 Mbytes ; DEN or POT disk file :      0.252 Mbytes.
================================================================================


 DATASET   14 : space group Pm -3 m (#221); Bravais cP (primitive cubic)
================================================================================
 Values of the parameters that define the memory need for DATASET 14.
   intxc =         0  ionmov =         0    iscf =         3 xclevel =         2
  lmnmax =         1   lnmax =         1   mband =         1  mffmem =         1
P  mgfft =        32   mkmem =         1 mpssoang=         1     mpw =      2118
  mqgrid =      3001   natom =         1    nfft =     32768    nkpt =         1
  nloalg =         4  nspden =         1 nspinor =         1  nsppol =         1
    nsym =        48  n1xccc =         0  ntypat =         1  occopt =         1
================================================================================
P This job should need less than                       7.461 Mbytes of memory.
  Rough estimation (10% accuracy) of disk space for files :
_ WF disk file :      0.034 Mbytes ; DEN or POT disk file :      0.252 Mbytes.
================================================================================


 DATASET   15 : space group Pm -3 m (#221); Bravais cP (primitive cubic)
================================================================================
 Values of the parameters that define the memory need for DATASET 15.
   intxc =         0  ionmov =         0    iscf =         3 xclevel =         2
  lmnmax =         1   lnmax =         1   mband =         1  mffmem =         1
P  mgfft =        32   mkmem =         1 mpssoang=         1     mpw =      2118
  mqgrid =      3001   natom =         1    nfft =     32768    nkpt =         1
  nloalg =         4  nspden =         1 nspinor =         1  nsppol =         1
    nsym =        48  n1xccc =         0  ntypat =         1  occopt =         1
================================================================================
P This job should need less than                       7.461 Mbytes of memory.
  Rough estimation (10% accuracy) of disk space for files :
_ WF disk file :      0.034 Mbytes ; DEN or POT disk file :      0.252 Mbytes.
================================================================================


 DATASET   16 : space group Pm -3 m (#221); Bravais cP (primitive cubic)
================================================================================
 Values of the parameters that define the memory need for DATASET 16.
   intxc =         0  ionmov =         0    iscf =         3 xclevel =         2
  lmnmax =         1   lnmax =         1   mband =         1  mffmem =         1
P  mgfft =        32   mkmem =         1 mpssoang=         1     mpw =      2118
  mqgrid =      3001   natom =         1    nfft =     32768    nkpt =         1
  nloalg =         4  nspden =         1 nspinor =         1  nsppol =         1
    nsym =        48  n1xccc =         0  ntypat =         1  occopt =         1
================================================================================
P This job should need less than                       7.461 Mbytes of memory.
  Rough estimation (10% accuracy) of disk space for files :
_ WF disk file :      0.034 Mbytes ; DEN or POT disk file :      0.252 Mbytes.
================================================================================


 DATASET   17 : space group Pm -3 m (#221); Bravais cP (primitive cubic)
================================================================================
 Values of the parameters that define the memory need for DATASET 17.
   intxc =         0  ionmov =         0    iscf =         3 xclevel =         2
  lmnmax =         1   lnmax =         1   mband =         1  mffmem =         1
P  mgfft =        32   mkmem =         1 mpssoang=         1     mpw =      2118
  mqgrid =      3001   natom =         1    nfft =     32768    nkpt =         1
  nloalg =         4  nspden =         1 nspinor =         1  nsppol =         1
    nsym =        48  n1xccc =         0  ntypat =         1  occopt =         1
================================================================================
P This job should need less than                       7.461 Mbytes of memory.
  Rough estimation (10% accuracy) of disk space for files :
_ WF disk file :      0.034 Mbytes ; DEN or POT disk file :      0.252 Mbytes.
================================================================================


 DATASET   18 : space group Pm -3 m (#221); Bravais cP (primitive cubic)
================================================================================
 Values of the parameters that define the memory need for DATASET 18.
   intxc =         0  ionmov =         0    iscf =         3 xclevel =         2
  lmnmax =         1   lnmax =         1   mband =         1  mffmem =         1
P  mgfft =        32   mkmem =         1 mpssoang=         1     mpw =      2118
  mqgrid =      3001   natom =         1    nfft =     32768    nkpt =         1
  nloalg =         4  nspden =         1 nspinor =         1  nsppol =         1
    nsym =        48  n1xccc =         0  ntypat =         1  occopt =         1
================================================================================
P This job should need less than                       7.461 Mbytes of memory.
  Rough estimation (10% accuracy) of disk space for files :
_ WF disk file :      0.034 Mbytes ; DEN or POT disk file :      0.252 Mbytes.
================================================================================


 DATASET   19 : space group Pm -3 m (#221); Bravais cP (primitive cubic)
================================================================================
 Values of the parameters that define the memory need for DATASET 19.
   intxc =         0  ionmov =         0    iscf =         3 xclevel =         2
  lmnmax =         1   lnmax =         1   mband =         1  mffmem =         1
P  mgfft =        32   mkmem =         1 mpssoang=         1     mpw =      2118
  mqgrid =      3001   natom =         1    nfft =     32768    nkpt =         1
  nloalg =         4  nspden =         1 nspinor =         1  nsppol =         1
    nsym =        48  n1xccc =         0  ntypat =         1  occopt =         1
================================================================================
P This job should need less than                       7.461 Mbytes of memory.
  Rough estimation (10% accuracy) of disk space for files :
_ WF disk file :      0.034 Mbytes ; DEN or POT disk file :      0.252 Mbytes.
================================================================================

--------------------------------------------------------------------------------
------------- Echo of variables that govern the present computation ------------
--------------------------------------------------------------------------------
-
- outvars: echo of selected default values                                      
-   accesswff0 =  0 , fftalg0 =112 , wfoptalg0 =  0
-
- outvars: echo of global parameters not present in the input file              
-  max_nthreads =    0
-
 -outvars: echo values of preprocessed input variables --------
            acell      5.0000000000E+00  5.0000000000E+00  5.0000000000E+00 Bohr
              amu      4.00260200E+00
           diemac      1.00000000E+00
           diemix      5.00000000E-01
             ecut      5.00000000E+01 Hartree
-          fftalg         112
             iscf           3
              ixc1      -1022
              ixc2      -1023
              ixc3      -1024
              ixc4    -139131
              ixc5    -140131
              ixc6    -141131
              ixc7    -142131
              ixc8    -144131
              ixc9    -145131
              ixc10   -149131
              ixc11   -183131
              ixc12   -184131
              ixc13   -106143
              ixc14   -106147
              ixc15   -106148
              ixc16   -106186
              ixc17      -146
              ixc18      -170
              ixc19      -171
           jdtset        1    2    3    4    5    6    7    8    9   10
                        11   12   13   14   15   16   17   18   19
              kpt      2.50000000E-01  2.50000000E-01  2.50000000E-01
           kptopt           0
P           mkmem           1
            natom           1
            nband           1
           ndtset          19
            ngfft          32      32      32
             nkpt           1
            nline           1
            nstep           1
             nsym          48
           ntypat           1
              occ      2.000000
           prtden           0
           prteig           0
            prtwf           0
          spgroup         221
           symrel      1  0  0   0  1  0   0  0  1      -1  0  0   0 -1  0   0  0 -1
                      -1  0  0   0  1  0   0  0 -1       1  0  0   0 -1  0   0  0  1
                      -1  0  0   0 -1  0   0  0  1       1  0  0   0  1  0   0  0 -1
                       1  0  0   0 -1  0   0  0 -1      -1  0  0   0  1  0   0  0  1
                       0  1  0   1  0  0   0  0  1       0 -1  0  -1  0  0   0  0 -1
                       0 -1  0   1  0  0   0  0 -1       0  1  0  -1  0  0   0  0  1
                       0 -1  0  -1  0  0   0  0  1       0  1  0   1  0  0   0  0 -1
                       0  1  0  -1  0  0   0  0 -1       0 -1  0   1  0  0   0  0  1
                       0  0  1   1  0  0   0  1  0       0  0 -1  -1  0  0   0 -1  0
                       0  0 -1   1  0  0   0 -1  0       0  0  1  -1  0  0   0  1  0
                       0  0 -1  -1  0  0   0  1  0       0  0  1   1  0  0   0 -1  0
                       0  0  1  -1  0  0   0 -1  0       0  0 -1   1  0  0   0  1  0
                       1  0  0   0  0  1   0  1  0      -1  0  0   0  0 -1   0 -1  0
                      -1  0  0   0  0  1   0 -1  0       1  0  0   0  0 -1   0  1  0
                      -1  0  0   0  0 -1   0  1  0       1  0  0   0  0  1   0 -1  0
                       1  0  0   0  0 -1   0 -1  0      -1  0  0   0  0  1   0  1  0
                       0  1  0   0  0  1   1  0  0       0 -1  0   0  0 -1  -1  0  0
                       0 -1  0   0  0  1  -1  0  0       0  1  0   0  0 -1   1  0  0
                       0 -1  0   0  0 -1   1  0  0       0  1  0   0  0  1  -1  0  0
                       0  1  0   0  0 -1  -1  0  0       0 -1  0   0  0  1   1  0  0
                       0  0  1   0  1  0   1  0  0       0  0 -1   0 -1  0  -1  0  0
                       0  0 -1   0  1  0  -1  0  0       0  0  1   0 -1  0   1  0  0
                       0  0 -1   0 -1  0   1  0  0       0  0  1   0  1  0  -1  0  0
                       0  0  1   0 -1  0  -1  0  0       0  0 -1   0  1  0   1  0  0
           tolwfr      1.00000000E-14
            typat      1
            znucl        2.00000

================================================================================

 chkinp: Checking input parameters for consistency, jdtset=   1.

 chkinp: Checking input parameters for consistency, jdtset=   2.

 chkinp: Checking input parameters for consistency, jdtset=   3.

 chkinp: Checking input parameters for consistency, jdtset=   4.

 chkinp: Checking input parameters for consistency, jdtset=   5.

 chkinp: Checking input parameters for consistency, jdtset=   6.

 chkinp: Checking input parameters for consistency, jdtset=   7.

 chkinp: Checking input parameters for consistency, jdtset=   8.

 chkinp: Checking input parameters for consistency, jdtset=   9.

 chkinp: Checking input parameters for consistency, jdtset=  10.

 chkinp: Checking input parameters for consistency, jdtset=  11.

 chkinp: Checking input parameters for consistency, jdtset=  12.

 chkinp: Checking input parameters for consistency, jdtset=  13.

 chkinp: Checking input parameters for consistency, jdtset=  14.

 chkinp: Checking input parameters for consistency, jdtset=  15.

 chkinp: Checking input parameters for consistency, jdtset=  16.

 chkinp: Checking input parameters for consistency, jdtset=  17.

 chkinp: Checking input parameters for consistency, jdtset=  18.

 chkinp: Checking input parameters for consistency, jdtset=  19.

================================================================================
== DATASET  1 ==================================================================
-   nproc =    1

 Real(R)+Recip(G) space primitive vectors, cartesian coordinates (Bohr,Bohr^-1):
 R(1)=  5.0000000  0.0000000  0.0000000  G(1)=  0.2000000  0.0000000  0.0000000
 R(2)=  0.0000000  5.0000000  0.0000000  G(2)=  0.0000000  0.2000000  0.0000000
 R(3)=  0.0000000  0.0000000  5.0000000  G(3)=  0.0000000  0.0000000  0.2000000
 Unit cell volume ucvol=  1.2500000E+02 bohr^3
 Angles (23,13,12)=  9.00000000E+01  9.00000000E+01  9.00000000E+01 degrees

 getcut: wavevector=  0.0000  0.0000  0.0000  ngfft=  32  32  32
         ecut(hartree)=     50.000   => boxcut(ratio)=   2.01062

--- Pseudopotential description ------------------------------------------------
- pspini: atom type   1  psp file is /home/gonze/ABINIT/ABINITv7.9.3/trunk/7.9.3-private/tests/Psps_for_tests/02he.bare
- pspatm: opening atomic psp file    /home/gonze/ABINIT/ABINITv7.9.3/trunk/7.9.3-private/tests/Psps_for_tests/02he.bare
- Bare (erfc) Goedecker-Teter-Hutter  Wed May  8 14:27:44 EDT 1996
-  2.00000   2.00000    960508                znucl, zion, pspdat
    2    1    0    0      2001   0.00000      pspcod,pspxc,lmax,lloc,mmax,r2well
 rloc=   0.0010000
  cc1=   0.0000000; cc2=   0.0000000; cc3=   0.0000000; cc4=   0.0000000
  rrs=   0.0000000; h1s=   0.0000000; h2s=   0.0000000
  rrp=   0.0000000; h1p=   0.0000000
-  Local part computed in reciprocal space.

 pspatm : COMMENT -
  the projectors are not normalized,
  so that the KB energies are not consistent with 
  definition in PRB44, 8503 (1991). 
  However, this does not influence the results obtained hereafter.
 pspatm: epsatm=    0.00001257
         --- l  ekb(1:nproj) -->
 pspatm: atomic psp has been read  and splines computed

   2.51327412E-05                                ecore*ucvol(ha*bohr**3)
--------------------------------------------------------------------------------

P newkpt: treating      1 bands with npw=    2118 for ikpt=   1 by node    0

_setup2: Arith. and geom. avg. npw (full set) are    2118.000    2118.000

================================================================================

     iter   Etot(hartree)      deltaE(h)  residm     vres2
 ETOT  1  -2.6909872051723    -2.691E+00 4.982E-01 1.858E+01

 Cartesian components of stress tensor (hartree/bohr^3)
  sigma(1 1)= -1.79410293E-04  sigma(3 2)=  0.00000000E+00
  sigma(2 2)= -1.79410293E-04  sigma(3 1)=  0.00000000E+00
  sigma(3 3)= -1.79410293E-04  sigma(2 1)=  0.00000000E+00


 scprqt:  WARNING -
  nstep=    1 was not enough SCF cycles to converge;
  maximum residual=  4.982E-01 exceeds tolwfr=  1.000E-14

================================================================================

 ----iterations are completed or convergence reached----

 Mean square residual over all n,k,spin=   4.9816E-01; max=  4.9816E-01
   0.2500  0.2500  0.2500    1  4.98164E-01 kpt; spin; max resid(k); each band:
  4.98E-01
 reduced coordinates (array xred) for    1 atoms
       0.000000000000      0.000000000000      0.000000000000
 rms dE/dt=  0.0000E+00; max dE/dt=  0.0000E+00; dE/dt below (all hartree)
    1       0.000000000000      0.000000000000      0.000000000000

 cartesian coordinates (angstrom) at end:
    1      0.00000000000000     0.00000000000000     0.00000000000000

 cartesian forces (hartree/bohr) at end:
    1     -0.00000000000000    -0.00000000000000    -0.00000000000000
 frms,max,avg= 0.0000000E+00 0.0000000E+00   0.000E+00  0.000E+00  0.000E+00 h/b

 cartesian forces (eV/Angstrom) at end:
    1     -0.00000000000000    -0.00000000000000    -0.00000000000000
 frms,max,avg= 0.0000000E+00 0.0000000E+00   0.000E+00  0.000E+00  0.000E+00 e/A
 length scales=  5.000000000000  5.000000000000  5.000000000000 bohr
              =  2.645886042950  2.645886042950  2.645886042950 angstroms
 Fermi (or HOMO) energy (hartree) =  -0.46192   Average Vxc (hartree)=  -0.15519
 Eigenvalues (hartree) for nkpt=   1  k points:
 kpt#   1, nband=  1, wtk=  1.00000, kpt=  0.2500  0.2500  0.2500 (reduced coord)
  -0.46192
 Total charge density [el/Bohr^3]
,     Maximum=    1.8374E+00  at reduced coord.    0.0000    0.0000    0.0000
,Next maximum=    1.5950E+00  at reduced coord.    0.0000    0.0000    0.9688
,     Minimum=    6.7230E-05  at reduced coord.    0.5000    0.5000    0.1250
,Next minimum=    6.7230E-05  at reduced coord.    0.5000    0.1250    0.5000
,  Integrated=    2.0000E+00

--------------------------------------------------------------------------------
 Components of total free energy (in Hartree) :

    Kinetic energy  =  2.72318430609339E+00
    Hartree energy  =  9.95450606923741E-01
    XC energy       = -9.39859584955262E-01
    Ewald energy    = -1.13491899179226E+00
    PspCore energy  =  2.01061929829747E-07
    Loc. psp. energy= -4.33484374250381E+00
    NL   psp  energy=  0.00000000000000E+00
    >>>>>>>>> Etotal= -2.69098720517227E+00

 Other information on the energy :
    Total energy(eV)= -7.32254858022913E+01 ; Band energy (Ha)=  -9.2383143938E-01
--------------------------------------------------------------------------------

 Cartesian components of stress tensor (hartree/bohr^3)
  sigma(1 1)= -1.79410293E-04  sigma(3 2)=  0.00000000E+00
  sigma(2 2)= -1.79410293E-04  sigma(3 1)=  0.00000000E+00
  sigma(3 3)= -1.79410293E-04  sigma(2 1)=  0.00000000E+00

-Cartesian components of stress tensor (GPa)         [Pressure=  5.2784E+00 GPa]
- sigma(1 1)= -5.27843216E+00  sigma(3 2)=  0.00000000E+00
- sigma(2 2)= -5.27843216E+00  sigma(3 1)=  0.00000000E+00
- sigma(3 3)= -5.27843216E+00  sigma(2 1)=  0.00000000E+00

================================================================================
== DATASET  2 ==================================================================
-   nproc =    1

 Real(R)+Recip(G) space primitive vectors, cartesian coordinates (Bohr,Bohr^-1):
 R(1)=  5.0000000  0.0000000  0.0000000  G(1)=  0.2000000  0.0000000  0.0000000
 R(2)=  0.0000000  5.0000000  0.0000000  G(2)=  0.0000000  0.2000000  0.0000000
 R(3)=  0.0000000  0.0000000  5.0000000  G(3)=  0.0000000  0.0000000  0.2000000
 Unit cell volume ucvol=  1.2500000E+02 bohr^3
 Angles (23,13,12)=  9.00000000E+01  9.00000000E+01  9.00000000E+01 degrees

 getcut: wavevector=  0.0000  0.0000  0.0000  ngfft=  32  32  32
         ecut(hartree)=     50.000   => boxcut(ratio)=   2.01062

--- Pseudopotential description ------------------------------------------------
- pspini: atom type   1  psp file is /home/gonze/ABINIT/ABINITv7.9.3/trunk/7.9.3-private/tests/Psps_for_tests/02he.bare
- pspatm: opening atomic psp file    /home/gonze/ABINIT/ABINITv7.9.3/trunk/7.9.3-private/tests/Psps_for_tests/02he.bare
- Bare (erfc) Goedecker-Teter-Hutter  Wed May  8 14:27:44 EDT 1996
-  2.00000   2.00000    960508                znucl, zion, pspdat
    2    1    0    0      2001   0.00000      pspcod,pspxc,lmax,lloc,mmax,r2well
 rloc=   0.0010000
  cc1=   0.0000000; cc2=   0.0000000; cc3=   0.0000000; cc4=   0.0000000
  rrs=   0.0000000; h1s=   0.0000000; h2s=   0.0000000
  rrp=   0.0000000; h1p=   0.0000000
-  Local part computed in reciprocal space.

 pspatm : COMMENT -
  the projectors are not normalized,
  so that the KB energies are not consistent with 
  definition in PRB44, 8503 (1991). 
  However, this does not influence the results obtained hereafter.
 pspatm: epsatm=    0.00001257
         --- l  ekb(1:nproj) -->
 pspatm: atomic psp has been read  and splines computed

--------------------------------------------------------------------------------

P newkpt: treating      1 bands with npw=    2118 for ikpt=   1 by node    0

_setup2: Arith. and geom. avg. npw (full set) are    2118.000    2118.000

================================================================================

     iter   Etot(hartree)      deltaE(h)  residm     vres2
 ETOT  1  -2.6618083235347    -2.662E+00 4.950E-01 1.648E+01

 Cartesian components of stress tensor (hartree/bohr^3)
  sigma(1 1)= -1.86546949E-04  sigma(3 2)=  0.00000000E+00
  sigma(2 2)= -1.86546949E-04  sigma(3 1)=  0.00000000E+00
  sigma(3 3)= -1.86546949E-04  sigma(2 1)=  0.00000000E+00


 scprqt:  WARNING -
  nstep=    1 was not enough SCF cycles to converge;
  maximum residual=  4.950E-01 exceeds tolwfr=  1.000E-14

================================================================================

 ----iterations are completed or convergence reached----

 Mean square residual over all n,k,spin=   4.9502E-01; max=  4.9502E-01
   0.2500  0.2500  0.2500    1  4.95024E-01 kpt; spin; max resid(k); each band:
  4.95E-01
 reduced coordinates (array xred) for    1 atoms
       0.000000000000      0.000000000000      0.000000000000
 rms dE/dt=  0.0000E+00; max dE/dt=  0.0000E+00; dE/dt below (all hartree)
    1       0.000000000000      0.000000000000      0.000000000000

 cartesian coordinates (angstrom) at end:
    1      0.00000000000000     0.00000000000000     0.00000000000000

 cartesian forces (hartree/bohr) at end:
    1     -0.00000000000000    -0.00000000000000    -0.00000000000000
 frms,max,avg= 0.0000000E+00 0.0000000E+00   0.000E+00  0.000E+00  0.000E+00 h/b

 cartesian forces (eV/Angstrom) at end:
    1     -0.00000000000000    -0.00000000000000    -0.00000000000000
 frms,max,avg= 0.0000000E+00 0.0000000E+00   0.000E+00  0.000E+00  0.000E+00 e/A
 length scales=  5.000000000000  5.000000000000  5.000000000000 bohr
              =  2.645886042950  2.645886042950  2.645886042950 angstroms
 Fermi (or HOMO) energy (hartree) =  -0.44510   Average Vxc (hartree)=  -0.14851
 Eigenvalues (hartree) for nkpt=   1  k points:
 kpt#   1, nband=  1, wtk=  1.00000, kpt=  0.2500  0.2500  0.2500 (reduced coord)
  -0.44510
 Total charge density [el/Bohr^3]
,     Maximum=    1.8320E+00  at reduced coord.    0.0000    0.0000    0.0000
,Next maximum=    1.5902E+00  at reduced coord.    0.0000    0.0000    0.9688
,     Minimum=    6.8891E-05  at reduced coord.    0.5000    0.5000    0.0000
,Next minimum=    6.8891E-05  at reduced coord.    0.5000    0.0000    0.5000
,  Integrated=    2.0000E+00

--------------------------------------------------------------------------------
 Components of total free energy (in Hartree) :

    Kinetic energy  =  2.71316716716809E+00
    Hartree energy  =  9.90468521659425E-01
    XC energy       = -9.08190214793366E-01
    Ewald energy    = -1.13491899179226E+00
    PspCore energy  =  2.01061929829747E-07
    Loc. psp. energy= -4.32233500683850E+00
    NL   psp  energy=  0.00000000000000E+00
    >>>>>>>>> Etotal= -2.66180832353468E+00

 Other information on the energy :
    Total energy(eV)= -7.24314880534452E+01 ; Band energy (Ha)=  -8.9020511696E-01
--------------------------------------------------------------------------------

 Cartesian components of stress tensor (hartree/bohr^3)
  sigma(1 1)= -1.86546949E-04  sigma(3 2)=  0.00000000E+00
  sigma(2 2)= -1.86546949E-04  sigma(3 1)=  0.00000000E+00
  sigma(3 3)= -1.86546949E-04  sigma(2 1)=  0.00000000E+00

-Cartesian components of stress tensor (GPa)         [Pressure=  5.4884E+00 GPa]
- sigma(1 1)= -5.48839981E+00  sigma(3 2)=  0.00000000E+00
- sigma(2 2)= -5.48839981E+00  sigma(3 1)=  0.00000000E+00
- sigma(3 3)= -5.48839981E+00  sigma(2 1)=  0.00000000E+00

================================================================================
== DATASET  3 ==================================================================
-   nproc =    1

 Real(R)+Recip(G) space primitive vectors, cartesian coordinates (Bohr,Bohr^-1):
 R(1)=  5.0000000  0.0000000  0.0000000  G(1)=  0.2000000  0.0000000  0.0000000
 R(2)=  0.0000000  5.0000000  0.0000000  G(2)=  0.0000000  0.2000000  0.0000000
 R(3)=  0.0000000  0.0000000  5.0000000  G(3)=  0.0000000  0.0000000  0.2000000
 Unit cell volume ucvol=  1.2500000E+02 bohr^3
 Angles (23,13,12)=  9.00000000E+01  9.00000000E+01  9.00000000E+01 degrees

 getcut: wavevector=  0.0000  0.0000  0.0000  ngfft=  32  32  32
         ecut(hartree)=     50.000   => boxcut(ratio)=   2.01062

--- Pseudopotential description ------------------------------------------------
- pspini: atom type   1  psp file is /home/gonze/ABINIT/ABINITv7.9.3/trunk/7.9.3-private/tests/Psps_for_tests/02he.bare
- pspatm: opening atomic psp file    /home/gonze/ABINIT/ABINITv7.9.3/trunk/7.9.3-private/tests/Psps_for_tests/02he.bare
- Bare (erfc) Goedecker-Teter-Hutter  Wed May  8 14:27:44 EDT 1996
-  2.00000   2.00000    960508                znucl, zion, pspdat
    2    1    0    0      2001   0.00000      pspcod,pspxc,lmax,lloc,mmax,r2well
 rloc=   0.0010000
  cc1=   0.0000000; cc2=   0.0000000; cc3=   0.0000000; cc4=   0.0000000
  rrs=   0.0000000; h1s=   0.0000000; h2s=   0.0000000
  rrp=   0.0000000; h1p=   0.0000000
-  Local part computed in reciprocal space.

 pspatm : COMMENT -
  the projectors are not normalized,
  so that the KB energies are not consistent with 
  definition in PRB44, 8503 (1991). 
  However, this does not influence the results obtained hereafter.
 pspatm: epsatm=    0.00001257
         --- l  ekb(1:nproj) -->
 pspatm: atomic psp has been read  and splines computed

--------------------------------------------------------------------------------

P newkpt: treating      1 bands with npw=    2118 for ikpt=   1 by node    0

_setup2: Arith. and geom. avg. npw (full set) are    2118.000    2118.000

================================================================================

     iter   Etot(hartree)      deltaE(h)  residm     vres2
 ETOT  1  -2.7496556027556    -2.750E+00 5.032E-01 2.276E+01

 Cartesian components of stress tensor (hartree/bohr^3)
  sigma(1 1)= -1.68245134E-04  sigma(3 2)=  0.00000000E+00
  sigma(2 2)= -1.68245134E-04  sigma(3 1)=  0.00000000E+00
  sigma(3 3)= -1.68245134E-04  sigma(2 1)=  0.00000000E+00


 scprqt:  WARNING -
  nstep=    1 was not enough SCF cycles to converge;
  maximum residual=  5.032E-01 exceeds tolwfr=  1.000E-14

================================================================================

 ----iterations are completed or convergence reached----

 Mean square residual over all n,k,spin=   5.0319E-01; max=  5.0319E-01
   0.2500  0.2500  0.2500    1  5.03187E-01 kpt; spin; max resid(k); each band:
  5.03E-01
 reduced coordinates (array xred) for    1 atoms
       0.000000000000      0.000000000000      0.000000000000
 rms dE/dt=  0.0000E+00; max dE/dt=  0.0000E+00; dE/dt below (all hartree)
    1       0.000000000000      0.000000000000      0.000000000000

 cartesian coordinates (angstrom) at end:
    1      0.00000000000000     0.00000000000000     0.00000000000000

 cartesian forces (hartree/bohr) at end:
    1     -0.00000000000000    -0.00000000000000    -0.00000000000000
 frms,max,avg= 0.0000000E+00 0.0000000E+00   0.000E+00  0.000E+00  0.000E+00 h/b

 cartesian forces (eV/Angstrom) at end:
    1     -0.00000000000000    -0.00000000000000    -0.00000000000000
 frms,max,avg= 0.0000000E+00 0.0000000E+00   0.000E+00  0.000E+00  0.000E+00 e/A
 length scales=  5.000000000000  5.000000000000  5.000000000000 bohr
              =  2.645886042950  2.645886042950  2.645886042950 angstroms
 Fermi (or HOMO) energy (hartree) =  -0.49419   Average Vxc (hartree)=  -0.17546
 Eigenvalues (hartree) for nkpt=   1  k points:
 kpt#   1, nband=  1, wtk=  1.00000, kpt=  0.2500  0.2500  0.2500 (reduced coord)
  -0.49419
 Total charge density [el/Bohr^3]
,     Maximum=    1.8454E+00  at reduced coord.    0.0000    0.0000    0.0000
,Next maximum=    1.6022E+00  at reduced coord.    0.0000    0.0000    0.9688
,     Minimum=    6.4759E-05  at reduced coord.    0.5000    0.5000    0.1250
,Next minimum=    6.4759E-05  at reduced coord.    0.5000    0.1250    0.5000
,  Integrated=    2.0000E+00

--------------------------------------------------------------------------------
 Components of total free energy (in Hartree) :

    Kinetic energy  =  2.73732965467702E+00
    Hartree energy  =  1.00224972948606E+00
    XC energy       = -1.00199354895853E+00
    Ewald energy    = -1.13491899179226E+00
    PspCore energy  =  2.01061929829747E-07
    Loc. psp. energy= -4.35232264722980E+00
    NL   psp  energy=  0.00000000000000E+00
    >>>>>>>>> Etotal= -2.74965560275558E+00

 Other information on the energy :
    Total energy(eV)= -7.48219340893819E+01 ; Band energy (Ha)=  -9.8838595716E-01
--------------------------------------------------------------------------------

 Cartesian components of stress tensor (hartree/bohr^3)
  sigma(1 1)= -1.68245134E-04  sigma(3 2)=  0.00000000E+00
  sigma(2 2)= -1.68245134E-04  sigma(3 1)=  0.00000000E+00
  sigma(3 3)= -1.68245134E-04  sigma(2 1)=  0.00000000E+00

-Cartesian components of stress tensor (GPa)         [Pressure=  4.9499E+00 GPa]
- sigma(1 1)= -4.94994191E+00  sigma(3 2)=  0.00000000E+00
- sigma(2 2)= -4.94994191E+00  sigma(3 1)=  0.00000000E+00
- sigma(3 3)= -4.94994191E+00  sigma(2 1)=  0.00000000E+00

================================================================================
== DATASET  4 ==================================================================
-   nproc =    1

 Real(R)+Recip(G) space primitive vectors, cartesian coordinates (Bohr,Bohr^-1):
 R(1)=  5.0000000  0.0000000  0.0000000  G(1)=  0.2000000  0.0000000  0.0000000
 R(2)=  0.0000000  5.0000000  0.0000000  G(2)=  0.0000000  0.2000000  0.0000000
 R(3)=  0.0000000  0.0000000  5.0000000  G(3)=  0.0000000  0.0000000  0.2000000
 Unit cell volume ucvol=  1.2500000E+02 bohr^3
 Angles (23,13,12)=  9.00000000E+01  9.00000000E+01  9.00000000E+01 degrees

 getcut: wavevector=  0.0000  0.0000  0.0000  ngfft=  32  32  32
         ecut(hartree)=     50.000   => boxcut(ratio)=   2.01062

--- Pseudopotential description ------------------------------------------------
- pspini: atom type   1  psp file is /home/gonze/ABINIT/ABINITv7.9.3/trunk/7.9.3-private/tests/Psps_for_tests/02he.bare
- pspatm: opening atomic psp file    /home/gonze/ABINIT/ABINITv7.9.3/trunk/7.9.3-private/tests/Psps_for_tests/02he.bare
- Bare (erfc) Goedecker-Teter-Hutter  Wed May  8 14:27:44 EDT 1996
-  2.00000   2.00000    960508                znucl, zion, pspdat
    2    1    0    0      2001   0.00000      pspcod,pspxc,lmax,lloc,mmax,r2well
 rloc=   0.0010000
  cc1=   0.0000000; cc2=   0.0000000; cc3=   0.0000000; cc4=   0.0000000
  rrs=   0.0000000; h1s=   0.0000000; h2s=   0.0000000
  rrp=   0.0000000; h1p=   0.0000000
-  Local part computed in reciprocal space.

 pspatm : COMMENT -
  the projectors are not normalized,
  so that the KB energies are not consistent with 
  definition in PRB44, 8503 (1991). 
  However, this does not influence the results obtained hereafter.
 pspatm: epsatm=    0.00001257
         --- l  ekb(1:nproj) -->
 pspatm: atomic psp has been read  and splines computed

--------------------------------------------------------------------------------

P newkpt: treating      1 bands with npw=    2118 for ikpt=   1 by node    0

_setup2: Arith. and geom. avg. npw (full set) are    2118.000    2118.000

================================================================================

     iter   Etot(hartree)      deltaE(h)  residm     vres2
 ETOT  1  -2.7893644522273    -2.789E+00 5.067E-01 3.057E+02

 Cartesian components of stress tensor (hartree/bohr^3)
  sigma(1 1)= -3.22847719E-05  sigma(3 2)=  0.00000000E+00
  sigma(2 2)= -3.22847719E-05  sigma(3 1)=  0.00000000E+00
  sigma(3 3)= -3.22847719E-05  sigma(2 1)=  0.00000000E+00


 scprqt:  WARNING -
  nstep=    1 was not enough SCF cycles to converge;
  maximum residual=  5.067E-01 exceeds tolwfr=  1.000E-14

================================================================================

 ----iterations are completed or convergence reached----

 Mean square residual over all n,k,spin=   5.0668E-01; max=  5.0668E-01
   0.2500  0.2500  0.2500    1  5.06677E-01 kpt; spin; max resid(k); each band:
  5.07E-01
 reduced coordinates (array xred) for    1 atoms
       0.000000000000      0.000000000000      0.000000000000
 rms dE/dt=  0.0000E+00; max dE/dt=  0.0000E+00; dE/dt below (all hartree)
    1       0.000000000000      0.000000000000      0.000000000000

 cartesian coordinates (angstrom) at end:
    1      0.00000000000000     0.00000000000000     0.00000000000000

 cartesian forces (hartree/bohr) at end:
    1     -0.00000000000000    -0.00000000000000    -0.00000000000000
 frms,max,avg= 0.0000000E+00 0.0000000E+00   0.000E+00  0.000E+00  0.000E+00 h/b

 cartesian forces (eV/Angstrom) at end:
    1     -0.00000000000000    -0.00000000000000    -0.00000000000000
 frms,max,avg= 0.0000000E+00 0.0000000E+00   0.000E+00  0.000E+00  0.000E+00 e/A
 length scales=  5.000000000000  5.000000000000  5.000000000000 bohr
              =  2.645886042950  2.645886042950  2.645886042950 angstroms
 Fermi (or HOMO) energy (hartree) =  -0.51279   Average Vxc (hartree)=  -0.17405
 Eigenvalues (hartree) for nkpt=   1  k points:
 kpt#   1, nband=  1, wtk=  1.00000, kpt=  0.2500  0.2500  0.2500 (reduced coord)
  -0.51279
 Total charge density [el/Bohr^3]
,     Maximum=    1.8766E+00  at reduced coord.    0.0000    0.0000    0.0000
,Next maximum=    1.6280E+00  at reduced coord.    0.0000    0.0000    0.9688
,     Minimum=    6.8712E-05  at reduced coord.    0.5000    0.4063    0.2500
,Next minimum=    6.8712E-05  at reduced coord.    0.4063    0.5000    0.2500
,  Integrated=    2.0000E+00

--------------------------------------------------------------------------------
 Components of total free energy (in Hartree) :

    Kinetic energy  =  2.76763247789596E+00
    Hartree energy  =  1.00851278054878E+00
    XC energy       = -1.04581060701791E+00
    Ewald energy    = -1.13491899179226E+00
    PspCore energy  =  2.01061929829747E-07
    Loc. psp. energy= -4.38478031292378E+00
    NL   psp  energy=  0.00000000000000E+00
    >>>>>>>>> Etotal= -2.78936445222728E+00

 Other information on the energy :
    Total energy(eV)= -7.59024668349951E+01 ; Band energy (Ha)=  -1.0255764079E+00
--------------------------------------------------------------------------------

 Cartesian components of stress tensor (hartree/bohr^3)
  sigma(1 1)= -3.22847719E-05  sigma(3 2)=  0.00000000E+00
  sigma(2 2)= -3.22847719E-05  sigma(3 1)=  0.00000000E+00
  sigma(3 3)= -3.22847719E-05  sigma(2 1)=  0.00000000E+00

-Cartesian components of stress tensor (GPa)         [Pressure=  9.4985E-01 GPa]
- sigma(1 1)= -9.49850621E-01  sigma(3 2)=  0.00000000E+00
- sigma(2 2)= -9.49850621E-01  sigma(3 1)=  0.00000000E+00
- sigma(3 3)= -9.49850621E-01  sigma(2 1)=  0.00000000E+00

================================================================================
== DATASET  5 ==================================================================
-   nproc =    1

 Real(R)+Recip(G) space primitive vectors, cartesian coordinates (Bohr,Bohr^-1):
 R(1)=  5.0000000  0.0000000  0.0000000  G(1)=  0.2000000  0.0000000  0.0000000
 R(2)=  0.0000000  5.0000000  0.0000000  G(2)=  0.0000000  0.2000000  0.0000000
 R(3)=  0.0000000  0.0000000  5.0000000  G(3)=  0.0000000  0.0000000  0.2000000
 Unit cell volume ucvol=  1.2500000E+02 bohr^3
 Angles (23,13,12)=  9.00000000E+01  9.00000000E+01  9.00000000E+01 degrees

 getcut: wavevector=  0.0000  0.0000  0.0000  ngfft=  32  32  32
         ecut(hartree)=     50.000   => boxcut(ratio)=   2.01062

--- Pseudopotential description ------------------------------------------------
- pspini: atom type   1  psp file is /home/gonze/ABINIT/ABINITv7.9.3/trunk/7.9.3-private/tests/Psps_for_tests/02he.bare
- pspatm: opening atomic psp file    /home/gonze/ABINIT/ABINITv7.9.3/trunk/7.9.3-private/tests/Psps_for_tests/02he.bare
- Bare (erfc) Goedecker-Teter-Hutter  Wed May  8 14:27:44 EDT 1996
-  2.00000   2.00000    960508                znucl, zion, pspdat
    2    1    0    0      2001   0.00000      pspcod,pspxc,lmax,lloc,mmax,r2well
 rloc=   0.0010000
  cc1=   0.0000000; cc2=   0.0000000; cc3=   0.0000000; cc4=   0.0000000
  rrs=   0.0000000; h1s=   0.0000000; h2s=   0.0000000
  rrp=   0.0000000; h1p=   0.0000000
-  Local part computed in reciprocal space.

 pspatm : COMMENT -
  the projectors are not normalized,
  so that the KB energies are not consistent with 
  definition in PRB44, 8503 (1991). 
  However, this does not influence the results obtained hereafter.
 pspatm: epsatm=    0.00001257
         --- l  ekb(1:nproj) -->
 pspatm: atomic psp has been read  and splines computed

--------------------------------------------------------------------------------

P newkpt: treating      1 bands with npw=    2118 for ikpt=   1 by node    0

_setup2: Arith. and geom. avg. npw (full set) are    2118.000    2118.000

================================================================================

     iter   Etot(hartree)      deltaE(h)  residm     vres2
 ETOT  1  -2.8096044053676    -2.810E+00 5.067E-01 5.698E+02

 Cartesian components of stress tensor (hartree/bohr^3)
  sigma(1 1)=  2.02289166E-05  sigma(3 2)=  0.00000000E+00
  sigma(2 2)=  2.02289166E-05  sigma(3 1)=  0.00000000E+00
  sigma(3 3)=  2.02289166E-05  sigma(2 1)=  0.00000000E+00


 scprqt:  WARNING -
  nstep=    1 was not enough SCF cycles to converge;
  maximum residual=  5.067E-01 exceeds tolwfr=  1.000E-14

================================================================================

 ----iterations are completed or convergence reached----

 Mean square residual over all n,k,spin=   5.0673E-01; max=  5.0673E-01
   0.2500  0.2500  0.2500    1  5.06732E-01 kpt; spin; max resid(k); each band:
  5.07E-01
 reduced coordinates (array xred) for    1 atoms
       0.000000000000      0.000000000000      0.000000000000
 rms dE/dt=  0.0000E+00; max dE/dt=  0.0000E+00; dE/dt below (all hartree)
    1       0.000000000000      0.000000000000      0.000000000000

 cartesian coordinates (angstrom) at end:
    1      0.00000000000000     0.00000000000000     0.00000000000000

 cartesian forces (hartree/bohr) at end:
    1     -0.00000000000000    -0.00000000000000    -0.00000000000000
 frms,max,avg= 0.0000000E+00 0.0000000E+00   0.000E+00  0.000E+00  0.000E+00 h/b

 cartesian forces (eV/Angstrom) at end:
    1     -0.00000000000000    -0.00000000000000    -0.00000000000000
 frms,max,avg= 0.0000000E+00 0.0000000E+00   0.000E+00  0.000E+00  0.000E+00 e/A
 length scales=  5.000000000000  5.000000000000  5.000000000000 bohr
              =  2.645886042950  2.645886042950  2.645886042950 angstroms
 Fermi (or HOMO) energy (hartree) =  -0.52225   Average Vxc (hartree)=  -0.20952
 Eigenvalues (hartree) for nkpt=   1  k points:
 kpt#   1, nband=  1, wtk=  1.00000, kpt=  0.2500  0.2500  0.2500 (reduced coord)
  -0.52225
 Total charge density [el/Bohr^3]
,     Maximum=    1.8788E+00  at reduced coord.    0.0000    0.0000    0.0000
,Next maximum=    1.6297E+00  at reduced coord.    0.0000    0.0000    0.9688
,     Minimum=    7.0192E-05  at reduced coord.    0.5000    0.4063    0.2500
,Next minimum=    7.0192E-05  at reduced coord.    0.4063    0.5000    0.2500
,  Integrated=    2.0000E+00

--------------------------------------------------------------------------------
 Components of total free energy (in Hartree) :

    Kinetic energy  =  2.76824622772061E+00
    Hartree energy  =  1.00665437645183E+00
    XC energy       = -1.06580862698987E+00
    Ewald energy    = -1.13491899179226E+00
    PspCore energy  =  2.01061929829747E-07
    Loc. psp. energy= -4.38377759181988E+00
    NL   psp  energy=  0.00000000000000E+00
    >>>>>>>>> Etotal= -2.80960440536764E+00

 Other information on the energy :
    Total energy(eV)= -7.64532239692058E+01 ; Band energy (Ha)=  -1.0445001580E+00
--------------------------------------------------------------------------------

 Cartesian components of stress tensor (hartree/bohr^3)
  sigma(1 1)=  2.02289166E-05  sigma(3 2)=  0.00000000E+00
  sigma(2 2)=  2.02289166E-05  sigma(3 1)=  0.00000000E+00
  sigma(3 3)=  2.02289166E-05  sigma(2 1)=  0.00000000E+00

-Cartesian components of stress tensor (GPa)         [Pressure= -5.9516E-01 GPa]
- sigma(1 1)=  5.95155173E-01  sigma(3 2)=  0.00000000E+00
- sigma(2 2)=  5.95155173E-01  sigma(3 1)=  0.00000000E+00
- sigma(3 3)=  5.95155173E-01  sigma(2 1)=  0.00000000E+00

================================================================================
== DATASET  6 ==================================================================
-   nproc =    1

 Real(R)+Recip(G) space primitive vectors, cartesian coordinates (Bohr,Bohr^-1):
 R(1)=  5.0000000  0.0000000  0.0000000  G(1)=  0.2000000  0.0000000  0.0000000
 R(2)=  0.0000000  5.0000000  0.0000000  G(2)=  0.0000000  0.2000000  0.0000000
 R(3)=  0.0000000  0.0000000  5.0000000  G(3)=  0.0000000  0.0000000  0.2000000
 Unit cell volume ucvol=  1.2500000E+02 bohr^3
 Angles (23,13,12)=  9.00000000E+01  9.00000000E+01  9.00000000E+01 degrees

 getcut: wavevector=  0.0000  0.0000  0.0000  ngfft=  32  32  32
         ecut(hartree)=     50.000   => boxcut(ratio)=   2.01062

--- Pseudopotential description ------------------------------------------------
- pspini: atom type   1  psp file is /home/gonze/ABINIT/ABINITv7.9.3/trunk/7.9.3-private/tests/Psps_for_tests/02he.bare
- pspatm: opening atomic psp file    /home/gonze/ABINIT/ABINITv7.9.3/trunk/7.9.3-private/tests/Psps_for_tests/02he.bare
- Bare (erfc) Goedecker-Teter-Hutter  Wed May  8 14:27:44 EDT 1996
-  2.00000   2.00000    960508                znucl, zion, pspdat
    2    1    0    0      2001   0.00000      pspcod,pspxc,lmax,lloc,mmax,r2well
 rloc=   0.0010000
  cc1=   0.0000000; cc2=   0.0000000; cc3=   0.0000000; cc4=   0.0000000
  rrs=   0.0000000; h1s=   0.0000000; h2s=   0.0000000
  rrp=   0.0000000; h1p=   0.0000000
-  Local part computed in reciprocal space.

 pspatm : COMMENT -
  the projectors are not normalized,
  so that the KB energies are not consistent with 
  definition in PRB44, 8503 (1991). 
  However, this does not influence the results obtained hereafter.
 pspatm: epsatm=    0.00001257
         --- l  ekb(1:nproj) -->
 pspatm: atomic psp has been read  and splines computed

--------------------------------------------------------------------------------

P newkpt: treating      1 bands with npw=    2118 for ikpt=   1 by node    0

_setup2: Arith. and geom. avg. npw (full set) are    2118.000    2118.000

================================================================================

     iter   Etot(hartree)      deltaE(h)  residm     vres2
 ETOT  1  -2.7907402751931    -2.791E+00 5.025E-01 5.612E+02

 Cartesian components of stress tensor (hartree/bohr^3)
  sigma(1 1)=  6.55316656E-06  sigma(3 2)=  0.00000000E+00
  sigma(2 2)=  6.55316656E-06  sigma(3 1)=  0.00000000E+00
  sigma(3 3)=  6.55316656E-06  sigma(2 1)=  0.00000000E+00


 scprqt:  WARNING -
  nstep=    1 was not enough SCF cycles to converge;
  maximum residual=  5.025E-01 exceeds tolwfr=  1.000E-14

================================================================================

 ----iterations are completed or convergence reached----

 Mean square residual over all n,k,spin=   5.0252E-01; max=  5.0252E-01
   0.2500  0.2500  0.2500    1  5.02519E-01 kpt; spin; max resid(k); each band:
  5.03E-01
 reduced coordinates (array xred) for    1 atoms
       0.000000000000      0.000000000000      0.000000000000
 rms dE/dt=  0.0000E+00; max dE/dt=  0.0000E+00; dE/dt below (all hartree)
    1       0.000000000000      0.000000000000      0.000000000000

 cartesian coordinates (angstrom) at end:
    1      0.00000000000000     0.00000000000000     0.00000000000000

 cartesian forces (hartree/bohr) at end:
    1     -0.00000000000000    -0.00000000000000    -0.00000000000000
 frms,max,avg= 0.0000000E+00 0.0000000E+00   0.000E+00  0.000E+00  0.000E+00 h/b

 cartesian forces (eV/Angstrom) at end:
    1     -0.00000000000000    -0.00000000000000    -0.00000000000000
 frms,max,avg= 0.0000000E+00 0.0000000E+00   0.000E+00  0.000E+00  0.000E+00 e/A
 length scales=  5.000000000000  5.000000000000  5.000000000000 bohr
              =  2.645886042950  2.645886042950  2.645886042950 angstroms
 Fermi (or HOMO) energy (hartree) =  -0.51348   Average Vxc (hartree)=  -0.20414
 Eigenvalues (hartree) for nkpt=   1  k points:
 kpt#   1, nband=  1, wtk=  1.00000, kpt=  0.2500  0.2500  0.2500 (reduced coord)
  -0.51348
 Total charge density [el/Bohr^3]
,     Maximum=    1.8688E+00  at reduced coord.    0.0000    0.0000    0.0000
,Next maximum=    1.6211E+00  at reduced coord.    0.0000    0.0000    0.9688
,     Minimum=    7.1698E-05  at reduced coord.    0.5000    0.4063    0.2500
,Next minimum=    7.1698E-05  at reduced coord.    0.4063    0.5000    0.2500
,  Integrated=    2.0000E+00

--------------------------------------------------------------------------------
 Components of total free energy (in Hartree) :

    Kinetic energy  =  2.75456184145606E+00
    Hartree energy  =  1.00142542698358E+00
    XC energy       = -1.04411240268348E+00
    Ewald energy    = -1.13491899179226E+00
    PspCore energy  =  2.01061929829747E-07
    Loc. psp. energy= -4.36769635021893E+00
    NL   psp  energy=  0.00000000000000E+00
    >>>>>>>>> Etotal= -2.79074027519311E+00

 Other information on the energy :
    Total energy(eV)= -7.59399048818418E+01 ; Band energy (Ha)=  -1.0269623403E+00
--------------------------------------------------------------------------------

 Cartesian components of stress tensor (hartree/bohr^3)
  sigma(1 1)=  6.55316656E-06  sigma(3 2)=  0.00000000E+00
  sigma(2 2)=  6.55316656E-06  sigma(3 1)=  0.00000000E+00
  sigma(3 3)=  6.55316656E-06  sigma(2 1)=  0.00000000E+00

-Cartesian components of stress tensor (GPa)         [Pressure= -1.9280E-01 GPa]
- sigma(1 1)=  1.92800784E-01  sigma(3 2)=  0.00000000E+00
- sigma(2 2)=  1.92800784E-01  sigma(3 1)=  0.00000000E+00
- sigma(3 3)=  1.92800784E-01  sigma(2 1)=  0.00000000E+00

================================================================================
== DATASET  7 ==================================================================
-   nproc =    1

 Real(R)+Recip(G) space primitive vectors, cartesian coordinates (Bohr,Bohr^-1):
 R(1)=  5.0000000  0.0000000  0.0000000  G(1)=  0.2000000  0.0000000  0.0000000
 R(2)=  0.0000000  5.0000000  0.0000000  G(2)=  0.0000000  0.2000000  0.0000000
 R(3)=  0.0000000  0.0000000  5.0000000  G(3)=  0.0000000  0.0000000  0.2000000
 Unit cell volume ucvol=  1.2500000E+02 bohr^3
 Angles (23,13,12)=  9.00000000E+01  9.00000000E+01  9.00000000E+01 degrees

 getcut: wavevector=  0.0000  0.0000  0.0000  ngfft=  32  32  32
         ecut(hartree)=     50.000   => boxcut(ratio)=   2.01062

--- Pseudopotential description ------------------------------------------------
- pspini: atom type   1  psp file is /home/gonze/ABINIT/ABINITv7.9.3/trunk/7.9.3-private/tests/Psps_for_tests/02he.bare
- pspatm: opening atomic psp file    /home/gonze/ABINIT/ABINITv7.9.3/trunk/7.9.3-private/tests/Psps_for_tests/02he.bare
- Bare (erfc) Goedecker-Teter-Hutter  Wed May  8 14:27:44 EDT 1996
-  2.00000   2.00000    960508                znucl, zion, pspdat
    2    1    0    0      2001   0.00000      pspcod,pspxc,lmax,lloc,mmax,r2well
 rloc=   0.0010000
  cc1=   0.0000000; cc2=   0.0000000; cc3=   0.0000000; cc4=   0.0000000
  rrs=   0.0000000; h1s=   0.0000000; h2s=   0.0000000
  rrp=   0.0000000; h1p=   0.0000000
-  Local part computed in reciprocal space.

 pspatm : COMMENT -
  the projectors are not normalized,
  so that the KB energies are not consistent with 
  definition in PRB44, 8503 (1991). 
  However, this does not influence the results obtained hereafter.
 pspatm: epsatm=    0.00001257
         --- l  ekb(1:nproj) -->
 pspatm: atomic psp has been read  and splines computed

--------------------------------------------------------------------------------

P newkpt: treating      1 bands with npw=    2118 for ikpt=   1 by node    0

_setup2: Arith. and geom. avg. npw (full set) are    2118.000    2118.000

================================================================================

     iter   Etot(hartree)      deltaE(h)  residm     vres2
 ETOT  1  -2.7715974322676    -2.772E+00 4.999E-01 5.964E+02

 Cartesian components of stress tensor (hartree/bohr^3)
  sigma(1 1)= -3.12723521E-06  sigma(3 2)=  0.00000000E+00
  sigma(2 2)= -3.12723521E-06  sigma(3 1)=  0.00000000E+00
  sigma(3 3)= -3.12723521E-06  sigma(2 1)=  0.00000000E+00


 scprqt:  WARNING -
  nstep=    1 was not enough SCF cycles to converge;
  maximum residual=  4.999E-01 exceeds tolwfr=  1.000E-14

================================================================================

 ----iterations are completed or convergence reached----

 Mean square residual over all n,k,spin=   4.9994E-01; max=  4.9994E-01
   0.2500  0.2500  0.2500    1  4.99936E-01 kpt; spin; max resid(k); each band:
  5.00E-01
 reduced coordinates (array xred) for    1 atoms
       0.000000000000      0.000000000000      0.000000000000
 rms dE/dt=  0.0000E+00; max dE/dt=  0.0000E+00; dE/dt below (all hartree)
    1       0.000000000000      0.000000000000      0.000000000000

 cartesian coordinates (angstrom) at end:
    1      0.00000000000000     0.00000000000000     0.00000000000000

 cartesian forces (hartree/bohr) at end:
    1     -0.00000000000000    -0.00000000000000    -0.00000000000000
 frms,max,avg= 0.0000000E+00 0.0000000E+00   0.000E+00  0.000E+00  0.000E+00 h/b

 cartesian forces (eV/Angstrom) at end:
    1     -0.00000000000000    -0.00000000000000    -0.00000000000000
 frms,max,avg= 0.0000000E+00 0.0000000E+00   0.000E+00  0.000E+00  0.000E+00 e/A
 length scales=  5.000000000000  5.000000000000  5.000000000000 bohr
              =  2.645886042950  2.645886042950  2.645886042950 angstroms
 Fermi (or HOMO) energy (hartree) =  -0.50434   Average Vxc (hartree)=  -0.20385
 Eigenvalues (hartree) for nkpt=   1  k points:
 kpt#   1, nband=  1, wtk=  1.00000, kpt=  0.2500  0.2500  0.2500 (reduced coord)
  -0.50434
 Total charge density [el/Bohr^3]
,     Maximum=    1.8572E+00  at reduced coord.    0.0000    0.0000    0.0000
,Next maximum=    1.6111E+00  at reduced coord.    0.0000    0.0000    0.9688
,     Minimum=    7.2935E-05  at reduced coord.    0.5000    0.4063    0.2500
,Next minimum=    7.2935E-05  at reduced coord.    0.4063    0.5000    0.2500
,  Integrated=    2.0000E+00

--------------------------------------------------------------------------------
 Components of total free energy (in Hartree) :

    Kinetic energy  =  2.73910496254603E+00
    Hartree energy  =  9.95579287574413E-01
    XC energy       = -1.02190945341122E+00
    Ewald energy    = -1.13491899179226E+00
    PspCore energy  =  2.01061929829747E-07
    Loc. psp. energy= -4.34945343824646E+00
    NL   psp  energy=  0.00000000000000E+00
    >>>>>>>>> Etotal= -2.77159743226757E+00

 Other information on the energy :
    Total energy(eV)= -7.54190016348233E+01 ; Band energy (Ha)=  -1.0086803942E+00
--------------------------------------------------------------------------------

 Cartesian components of stress tensor (hartree/bohr^3)
  sigma(1 1)= -3.12723521E-06  sigma(3 2)=  0.00000000E+00
  sigma(2 2)= -3.12723521E-06  sigma(3 1)=  0.00000000E+00
  sigma(3 3)= -3.12723521E-06  sigma(2 1)=  0.00000000E+00

-Cartesian components of stress tensor (GPa)         [Pressure=  9.2006E-02 GPa]
- sigma(1 1)= -9.20064208E-02  sigma(3 2)=  0.00000000E+00
- sigma(2 2)= -9.20064208E-02  sigma(3 1)=  0.00000000E+00
- sigma(3 3)= -9.20064208E-02  sigma(2 1)=  0.00000000E+00

================================================================================
== DATASET  8 ==================================================================
-   nproc =    1

 Real(R)+Recip(G) space primitive vectors, cartesian coordinates (Bohr,Bohr^-1):
 R(1)=  5.0000000  0.0000000  0.0000000  G(1)=  0.2000000  0.0000000  0.0000000
 R(2)=  0.0000000  5.0000000  0.0000000  G(2)=  0.0000000  0.2000000  0.0000000
 R(3)=  0.0000000  0.0000000  5.0000000  G(3)=  0.0000000  0.0000000  0.2000000
 Unit cell volume ucvol=  1.2500000E+02 bohr^3
 Angles (23,13,12)=  9.00000000E+01  9.00000000E+01  9.00000000E+01 degrees

 getcut: wavevector=  0.0000  0.0000  0.0000  ngfft=  32  32  32
         ecut(hartree)=     50.000   => boxcut(ratio)=   2.01062

--- Pseudopotential description ------------------------------------------------
- pspini: atom type   1  psp file is /home/gonze/ABINIT/ABINITv7.9.3/trunk/7.9.3-private/tests/Psps_for_tests/02he.bare
- pspatm: opening atomic psp file    /home/gonze/ABINIT/ABINITv7.9.3/trunk/7.9.3-private/tests/Psps_for_tests/02he.bare
- Bare (erfc) Goedecker-Teter-Hutter  Wed May  8 14:27:44 EDT 1996
-  2.00000   2.00000    960508                znucl, zion, pspdat
    2    1    0    0      2001   0.00000      pspcod,pspxc,lmax,lloc,mmax,r2well
 rloc=   0.0010000
  cc1=   0.0000000; cc2=   0.0000000; cc3=   0.0000000; cc4=   0.0000000
  rrs=   0.0000000; h1s=   0.0000000; h2s=   0.0000000
  rrp=   0.0000000; h1p=   0.0000000
-  Local part computed in reciprocal space.

 pspatm : COMMENT -
  the projectors are not normalized,
  so that the KB energies are not consistent with 
  definition in PRB44, 8503 (1991). 
  However, this does not influence the results obtained hereafter.
 pspatm: epsatm=    0.00001257
         --- l  ekb(1:nproj) -->
 pspatm: atomic psp has been read  and splines computed

--------------------------------------------------------------------------------

P newkpt: treating      1 bands with npw=    2118 for ikpt=   1 by node    0

_setup2: Arith. and geom. avg. npw (full set) are    2118.000    2118.000

================================================================================

     iter   Etot(hartree)      deltaE(h)  residm     vres2
 ETOT  1  -2.8323206080369    -2.832E+00 5.044E-01 3.857E+02

 Cartesian components of stress tensor (hartree/bohr^3)
  sigma(1 1)=  3.05999676E-05  sigma(3 2)=  0.00000000E+00
  sigma(2 2)=  3.05999676E-05  sigma(3 1)=  0.00000000E+00
  sigma(3 3)=  3.05999676E-05  sigma(2 1)=  0.00000000E+00


 scprqt:  WARNING -
  nstep=    1 was not enough SCF cycles to converge;
  maximum residual=  5.044E-01 exceeds tolwfr=  1.000E-14

================================================================================

 ----iterations are completed or convergence reached----

 Mean square residual over all n,k,spin=   5.0442E-01; max=  5.0442E-01
   0.2500  0.2500  0.2500    1  5.04420E-01 kpt; spin; max resid(k); each band:
  5.04E-01
 reduced coordinates (array xred) for    1 atoms
       0.000000000000      0.000000000000      0.000000000000
 rms dE/dt=  0.0000E+00; max dE/dt=  0.0000E+00; dE/dt below (all hartree)
    1       0.000000000000      0.000000000000      0.000000000000

 cartesian coordinates (angstrom) at end:
    1      0.00000000000000     0.00000000000000     0.00000000000000

 cartesian forces (hartree/bohr) at end:
    1     -0.00000000000000    -0.00000000000000    -0.00000000000000
 frms,max,avg= 0.0000000E+00 0.0000000E+00   0.000E+00  0.000E+00  0.000E+00 h/b

 cartesian forces (eV/Angstrom) at end:
    1     -0.00000000000000    -0.00000000000000    -0.00000000000000
 frms,max,avg= 0.0000000E+00 0.0000000E+00   0.000E+00  0.000E+00  0.000E+00 e/A
 length scales=  5.000000000000  5.000000000000  5.000000000000 bohr
              =  2.645886042950  2.645886042950  2.645886042950 angstroms
 Fermi (or HOMO) energy (hartree) =  -0.53089   Average Vxc (hartree)=  -0.20277
 Eigenvalues (hartree) for nkpt=   1  k points:
 kpt#   1, nband=  1, wtk=  1.00000, kpt=  0.2500  0.2500  0.2500 (reduced coord)
  -0.53089
 Total charge density [el/Bohr^3]
,     Maximum=    1.8868E+00  at reduced coord.    0.0000    0.0000    0.0000
,Next maximum=    1.6380E+00  at reduced coord.    0.0000    0.0000    0.9688
,     Minimum=    6.9273E-05  at reduced coord.    0.5000    0.4063    0.2500
,Next minimum=    6.9273E-05  at reduced coord.    0.4063    0.5000    0.2500
,  Integrated=    2.0000E+00

--------------------------------------------------------------------------------
 Components of total free energy (in Hartree) :

    Kinetic energy  =  2.78697106434020E+00
    Hartree energy  =  1.01477684057064E+00
    XC energy       = -1.09312273636834E+00
    Ewald energy    = -1.13491899179226E+00
    PspCore energy  =  2.01061929829747E-07
    Loc. psp. energy= -4.40602698584903E+00
    NL   psp  energy=  0.00000000000000E+00
    >>>>>>>>> Etotal= -2.83232060803686E+00

 Other information on the energy :
    Total energy(eV)= -7.70713632798797E+01 ; Band energy (Ha)=  -1.0617743092E+00
--------------------------------------------------------------------------------

 Cartesian components of stress tensor (hartree/bohr^3)
  sigma(1 1)=  3.05999676E-05  sigma(3 2)=  0.00000000E+00
  sigma(2 2)=  3.05999676E-05  sigma(3 1)=  0.00000000E+00
  sigma(3 3)=  3.05999676E-05  sigma(2 1)=  0.00000000E+00

-Cartesian components of stress tensor (GPa)         [Pressure= -9.0028E-01 GPa]
- sigma(1 1)=  9.00281977E-01  sigma(3 2)=  0.00000000E+00
- sigma(2 2)=  9.00281977E-01  sigma(3 1)=  0.00000000E+00
- sigma(3 3)=  9.00281977E-01  sigma(2 1)=  0.00000000E+00

================================================================================
== DATASET  9 ==================================================================
-   nproc =    1

 Real(R)+Recip(G) space primitive vectors, cartesian coordinates (Bohr,Bohr^-1):
 R(1)=  5.0000000  0.0000000  0.0000000  G(1)=  0.2000000  0.0000000  0.0000000
 R(2)=  0.0000000  5.0000000  0.0000000  G(2)=  0.0000000  0.2000000  0.0000000
 R(3)=  0.0000000  0.0000000  5.0000000  G(3)=  0.0000000  0.0000000  0.2000000
 Unit cell volume ucvol=  1.2500000E+02 bohr^3
 Angles (23,13,12)=  9.00000000E+01  9.00000000E+01  9.00000000E+01 degrees

 getcut: wavevector=  0.0000  0.0000  0.0000  ngfft=  32  32  32
         ecut(hartree)=     50.000   => boxcut(ratio)=   2.01062

--- Pseudopotential description ------------------------------------------------
- pspini: atom type   1  psp file is /home/gonze/ABINIT/ABINITv7.9.3/trunk/7.9.3-private/tests/Psps_for_tests/02he.bare
- pspatm: opening atomic psp file    /home/gonze/ABINIT/ABINITv7.9.3/trunk/7.9.3-private/tests/Psps_for_tests/02he.bare
- Bare (erfc) Goedecker-Teter-Hutter  Wed May  8 14:27:44 EDT 1996
-  2.00000   2.00000    960508                znucl, zion, pspdat
    2    1    0    0      2001   0.00000      pspcod,pspxc,lmax,lloc,mmax,r2well
 rloc=   0.0010000
  cc1=   0.0000000; cc2=   0.0000000; cc3=   0.0000000; cc4=   0.0000000
  rrs=   0.0000000; h1s=   0.0000000; h2s=   0.0000000
  rrp=   0.0000000; h1p=   0.0000000
-  Local part computed in reciprocal space.

 pspatm : COMMENT -
  the projectors are not normalized,
  so that the KB energies are not consistent with 
  definition in PRB44, 8503 (1991). 
  However, this does not influence the results obtained hereafter.
 pspatm: epsatm=    0.00001257
         --- l  ekb(1:nproj) -->
 pspatm: atomic psp has been read  and splines computed

--------------------------------------------------------------------------------

P newkpt: treating      1 bands with npw=    2118 for ikpt=   1 by node    0

_setup2: Arith. and geom. avg. npw (full set) are    2118.000    2118.000

================================================================================

     iter   Etot(hartree)      deltaE(h)  residm     vres2
 ETOT  1  -2.7571354050544    -2.757E+00 5.116E-01 1.505E+02

 Cartesian components of stress tensor (hartree/bohr^3)
  sigma(1 1)=  1.71322864E-04  sigma(3 2)=  0.00000000E+00
  sigma(2 2)=  1.71322864E-04  sigma(3 1)=  0.00000000E+00
  sigma(3 3)=  1.71322864E-04  sigma(2 1)=  0.00000000E+00


 scprqt:  WARNING -
  nstep=    1 was not enough SCF cycles to converge;
  maximum residual=  5.116E-01 exceeds tolwfr=  1.000E-14

================================================================================

 ----iterations are completed or convergence reached----

 Mean square residual over all n,k,spin=   5.1164E-01; max=  5.1164E-01
   0.2500  0.2500  0.2500    1  5.11639E-01 kpt; spin; max resid(k); each band:
  5.12E-01
 reduced coordinates (array xred) for    1 atoms
       0.000000000000      0.000000000000      0.000000000000
 rms dE/dt=  0.0000E+00; max dE/dt=  0.0000E+00; dE/dt below (all hartree)
    1       0.000000000000      0.000000000000      0.000000000000

 cartesian coordinates (angstrom) at end:
    1      0.00000000000000     0.00000000000000     0.00000000000000

 cartesian forces (hartree/bohr) at end:
    1     -0.00000000000000    -0.00000000000000    -0.00000000000000
 frms,max,avg= 0.0000000E+00 0.0000000E+00   0.000E+00  0.000E+00  0.000E+00 h/b

 cartesian forces (eV/Angstrom) at end:
    1     -0.00000000000000    -0.00000000000000    -0.00000000000000
 frms,max,avg= 0.0000000E+00 0.0000000E+00   0.000E+00  0.000E+00  0.000E+00 e/A
 length scales=  5.000000000000  5.000000000000  5.000000000000 bohr
              =  2.645886042950  2.645886042950  2.645886042950 angstroms
 Fermi (or HOMO) energy (hartree) =  -0.50983   Average Vxc (hartree)=  -0.17953
 Eigenvalues (hartree) for nkpt=   1  k points:
 kpt#   1, nband=  1, wtk=  1.00000, kpt=  0.2500  0.2500  0.2500 (reduced coord)
  -0.50983
 Total charge density [el/Bohr^3]
,     Maximum=    1.9106E+00  at reduced coord.    0.0000    0.0000    0.0000
,Next maximum=    1.6574E+00  at reduced coord.    0.0000    0.0000    0.9688
,     Minimum=    6.8197E-05  at reduced coord.    0.5000    0.5000    0.1563
,Next minimum=    6.8197E-05  at reduced coord.    0.5000    0.1563    0.5000
,  Integrated=    2.0000E+00

--------------------------------------------------------------------------------
 Components of total free energy (in Hartree) :

    Kinetic energy  =  2.81704942649622E+00
    Hartree energy  =  1.02839767054437E+00
    XC energy       = -1.02493202090239E+00
    Ewald energy    = -1.13491899179226E+00
    PspCore energy  =  2.01061929829747E-07
    Loc. psp. energy= -4.44273169046232E+00
    NL   psp  energy=  0.00000000000000E+00
    >>>>>>>>> Etotal= -2.75713540505444E+00

 Other information on the energy :
    Total energy(eV)= -7.50254698609330E+01 ; Band energy (Ha)=  -1.0196613562E+00
--------------------------------------------------------------------------------

 Cartesian components of stress tensor (hartree/bohr^3)
  sigma(1 1)=  1.71322864E-04  sigma(3 2)=  0.00000000E+00
  sigma(2 2)=  1.71322864E-04  sigma(3 1)=  0.00000000E+00
  sigma(3 3)=  1.71322864E-04  sigma(2 1)=  0.00000000E+00

-Cartesian components of stress tensor (GPa)         [Pressure= -5.0405E+00 GPa]
- sigma(1 1)=  5.04049182E+00  sigma(3 2)=  0.00000000E+00
- sigma(2 2)=  5.04049182E+00  sigma(3 1)=  0.00000000E+00
- sigma(3 3)=  5.04049182E+00  sigma(2 1)=  0.00000000E+00

================================================================================
== DATASET 10 ==================================================================
-   nproc =    1

 Real(R)+Recip(G) space primitive vectors, cartesian coordinates (Bohr,Bohr^-1):
 R(1)=  5.0000000  0.0000000  0.0000000  G(1)=  0.2000000  0.0000000  0.0000000
 R(2)=  0.0000000  5.0000000  0.0000000  G(2)=  0.0000000  0.2000000  0.0000000
 R(3)=  0.0000000  0.0000000  5.0000000  G(3)=  0.0000000  0.0000000  0.2000000
 Unit cell volume ucvol=  1.2500000E+02 bohr^3
 Angles (23,13,12)=  9.00000000E+01  9.00000000E+01  9.00000000E+01 degrees

 getcut: wavevector=  0.0000  0.0000  0.0000  ngfft=  32  32  32
         ecut(hartree)=     50.000   => boxcut(ratio)=   2.01062

--- Pseudopotential description ------------------------------------------------
- pspini: atom type   1  psp file is /home/gonze/ABINIT/ABINITv7.9.3/trunk/7.9.3-private/tests/Psps_for_tests/02he.bare
- pspatm: opening atomic psp file    /home/gonze/ABINIT/ABINITv7.9.3/trunk/7.9.3-private/tests/Psps_for_tests/02he.bare
- Bare (erfc) Goedecker-Teter-Hutter  Wed May  8 14:27:44 EDT 1996
-  2.00000   2.00000    960508                znucl, zion, pspdat
    2    1    0    0      2001   0.00000      pspcod,pspxc,lmax,lloc,mmax,r2well
 rloc=   0.0010000
  cc1=   0.0000000; cc2=   0.0000000; cc3=   0.0000000; cc4=   0.0000000
  rrs=   0.0000000; h1s=   0.0000000; h2s=   0.0000000
  rrp=   0.0000000; h1p=   0.0000000
-  Local part computed in reciprocal space.

 pspatm : COMMENT -
  the projectors are not normalized,
  so that the KB energies are not consistent with 
  definition in PRB44, 8503 (1991). 
  However, this does not influence the results obtained hereafter.
 pspatm: epsatm=    0.00001257
         --- l  ekb(1:nproj) -->
 pspatm: atomic psp has been read  and splines computed

--------------------------------------------------------------------------------

P newkpt: treating      1 bands with npw=    2118 for ikpt=   1 by node    0

_setup2: Arith. and geom. avg. npw (full set) are    2118.000    2118.000

[...]
,Next minimum=    6.2576E-05  at reduced coord.    0.5000    0.1250    0.5000
,  Integrated=    2.0000E+00

--------------------------------------------------------------------------------
 Components of total free energy (in Hartree) :

    Kinetic energy  =  2.78042104590174E+00
    Hartree energy  =  1.02330454898561E+00
    XC energy       = -1.09216957711024E+00
    Ewald energy    = -1.13491899179226E+00
    PspCore energy  =  2.01061929829747E-07
    Loc. psp. energy= -4.40384362472168E+00
    NL   psp  energy=  0.00000000000000E+00
    >>>>>>>>> Etotal= -2.82720639767490E+00

 Other information on the energy :
    Total energy(eV)= -7.69321985385794E+01 ; Band energy (Ha)=  -1.0536855740E+00
--------------------------------------------------------------------------------

 Cartesian components of stress tensor (hartree/bohr^3)
  sigma(1 1)=  8.23987868E-06  sigma(3 2)=  0.00000000E+00
  sigma(2 2)=  8.23987868E-06  sigma(3 1)=  0.00000000E+00
  sigma(3 3)=  8.23987868E-06  sigma(2 1)=  0.00000000E+00

-Cartesian components of stress tensor (GPa)         [Pressure= -2.4243E-01 GPa]
- sigma(1 1)=  2.42425560E-01  sigma(3 2)=  0.00000000E+00
- sigma(2 2)=  2.42425560E-01  sigma(3 1)=  0.00000000E+00
- sigma(3 3)=  2.42425560E-01  sigma(2 1)=  0.00000000E+00

================================================================================
== DATASET 19 ==================================================================
-   nproc =    1

 Real(R)+Recip(G) space primitive vectors, cartesian coordinates (Bohr,Bohr^-1):
 R(1)=  5.0000000  0.0000000  0.0000000  G(1)=  0.2000000  0.0000000  0.0000000
 R(2)=  0.0000000  5.0000000  0.0000000  G(2)=  0.0000000  0.2000000  0.0000000
 R(3)=  0.0000000  0.0000000  5.0000000  G(3)=  0.0000000  0.0000000  0.2000000
 Unit cell volume ucvol=  1.2500000E+02 bohr^3
 Angles (23,13,12)=  9.00000000E+01  9.00000000E+01  9.00000000E+01 degrees

 getcut: wavevector=  0.0000  0.0000  0.0000  ngfft=  32  32  32
         ecut(hartree)=     50.000   => boxcut(ratio)=   2.01062

--- Pseudopotential description ------------------------------------------------
- pspini: atom type   1  psp file is /home/gonze/ABINIT/ABINITv7.9.3/trunk/7.9.3-private/tests/Psps_for_tests/02he.bare
- pspatm: opening atomic psp file    /home/gonze/ABINIT/ABINITv7.9.3/trunk/7.9.3-private/tests/Psps_for_tests/02he.bare
- Bare (erfc) Goedecker-Teter-Hutter  Wed May  8 14:27:44 EDT 1996
-  2.00000   2.00000    960508                znucl, zion, pspdat
    2    1    0    0      2001   0.00000      pspcod,pspxc,lmax,lloc,mmax,r2well
 rloc=   0.0010000
  cc1=   0.0000000; cc2=   0.0000000; cc3=   0.0000000; cc4=   0.0000000
  rrs=   0.0000000; h1s=   0.0000000; h2s=   0.0000000
  rrp=   0.0000000; h1p=   0.0000000
-  Local part computed in reciprocal space.

 pspatm : COMMENT -
  the projectors are not normalized,
  so that the KB energies are not consistent with 
  definition in PRB44, 8503 (1991). 
  However, this does not influence the results obtained hereafter.
 pspatm: epsatm=    0.00001257
         --- l  ekb(1:nproj) -->
 pspatm: atomic psp has been read  and splines computed

--------------------------------------------------------------------------------

P newkpt: treating      1 bands with npw=    2118 for ikpt=   1 by node    0

_setup2: Arith. and geom. avg. npw (full set) are    2118.000    2118.000

================================================================================

     iter   Etot(hartree)      deltaE(h)  residm     vres2
 ETOT  1  -2.3961065534695    -2.396E+00 4.692E-01 2.814E+02

 Cartesian components of stress tensor (hartree/bohr^3)
  sigma(1 1)= -3.60532172E-04  sigma(3 2)=  0.00000000E+00
  sigma(2 2)= -3.60532172E-04  sigma(3 1)=  0.00000000E+00
  sigma(3 3)= -3.60532172E-04  sigma(2 1)=  0.00000000E+00


 scprqt:  WARNING -
  nstep=    1 was not enough SCF cycles to converge;
  maximum residual=  4.692E-01 exceeds tolwfr=  1.000E-14

================================================================================

 ----iterations are completed or convergence reached----

 Mean square residual over all n,k,spin=   4.6916E-01; max=  4.6916E-01
   0.2500  0.2500  0.2500    1  4.69156E-01 kpt; spin; max resid(k); each band:
  4.69E-01
 reduced coordinates (array xred) for    1 atoms
       0.000000000000      0.000000000000      0.000000000000
 rms dE/dt=  0.0000E+00; max dE/dt=  0.0000E+00; dE/dt below (all hartree)
    1       0.000000000000      0.000000000000      0.000000000000

 cartesian coordinates (angstrom) at end:
    1      0.00000000000000     0.00000000000000     0.00000000000000

 cartesian forces (hartree/bohr) at end:
    1     -0.00000000000000    -0.00000000000000    -0.00000000000000
 frms,max,avg= 0.0000000E+00 0.0000000E+00   0.000E+00  0.000E+00  0.000E+00 h/b

 cartesian forces (eV/Angstrom) at end:
    1     -0.00000000000000    -0.00000000000000    -0.00000000000000
 frms,max,avg= 0.0000000E+00 0.0000000E+00   0.000E+00  0.000E+00  0.000E+00 e/A
 length scales=  5.000000000000  5.000000000000  5.000000000000 bohr
              =  2.645886042950  2.645886042950  2.645886042950 angstroms
 Fermi (or HOMO) energy (hartree) =  -0.25580   Average Vxc (hartree)=  -0.11641
 Eigenvalues (hartree) for nkpt=   1  k points:
 kpt#   1, nband=  1, wtk=  1.00000, kpt=  0.2500  0.2500  0.2500 (reduced coord)
  -0.25580
 Total charge density [el/Bohr^3]
,     Maximum=    1.7201E+00  at reduced coord.    0.0000    0.0000    0.0000
,Next maximum=    1.4884E+00  at reduced coord.    0.0000    0.0000    0.9688
,     Minimum=    9.9505E-05  at reduced coord.    0.5000    0.5000    0.0000
,Next minimum=    9.9505E-05  at reduced coord.    0.5000    0.0000    0.5000
,  Integrated=    2.0000E+00

--------------------------------------------------------------------------------
 Components of total free energy (in Hartree) :

    Kinetic energy  =  2.51131511123397E+00
    Hartree energy  =  8.90567327019109E-01
    XC energy       = -6.01849004523535E-01
    Ewald energy    = -1.13491899179226E+00
    PspCore energy  =  2.01061929829747E-07
    Loc. psp. energy= -4.06122119646871E+00
    NL   psp  energy=  0.00000000000000E+00
    >>>>>>>>> Etotal= -2.39610655346950E+00

 Other information on the energy :
    Total energy(eV)= -6.52013751959201E+01 ; Band energy (Ha)=  -5.1160716149E-01
--------------------------------------------------------------------------------

 Cartesian components of stress tensor (hartree/bohr^3)
  sigma(1 1)= -3.60532172E-04  sigma(3 2)=  0.00000000E+00
  sigma(2 2)= -3.60532172E-04  sigma(3 1)=  0.00000000E+00
  sigma(3 3)= -3.60532172E-04  sigma(2 1)=  0.00000000E+00

-Cartesian components of stress tensor (GPa)         [Pressure=  1.0607E+01 GPa]
- sigma(1 1)= -1.06072209E+01  sigma(3 2)=  0.00000000E+00
- sigma(2 2)= -1.06072209E+01  sigma(3 1)=  0.00000000E+00
- sigma(3 3)= -1.06072209E+01  sigma(2 1)=  0.00000000E+00

== END DATASET(S) ==============================================================
================================================================================
  
 -outvars: echo values of variables after computation  --------
            acell      5.0000000000E+00  5.0000000000E+00  5.0000000000E+00 Bohr
              amu      4.00260200E+00
           diemac      1.00000000E+00
           diemix      5.00000000E-01
             ecut      5.00000000E+01 Hartree
           etotal1    -2.6909872052E+00
           etotal2    -2.6618083235E+00
           etotal3    -2.7496556028E+00
           etotal4    -2.7893644522E+00
           etotal5    -2.8096044054E+00
           etotal6    -2.7907402752E+00
           etotal7    -2.7715974323E+00
           etotal8    -2.8323206080E+00
           etotal9    -2.7571354051E+00
           etotal10   -2.7298330024E+00
           etotal11   -3.4786952243E-01
           etotal12   -2.8180359543E+00
           etotal13   -2.8199113450E+00
           etotal14   -2.8121628137E+00
           etotal15   -2.7624143096E+00
           etotal16   -2.8089014205E+00
           etotal17   -2.8422699418E+00
           etotal18   -2.8272063977E+00
           etotal19   -2.3961065535E+00
            fcart1    -0.0000000000E+00 -0.0000000000E+00 -0.0000000000E+00
            fcart2    -0.0000000000E+00 -0.0000000000E+00 -0.0000000000E+00
            fcart3    -0.0000000000E+00 -0.0000000000E+00 -0.0000000000E+00
            fcart4    -0.0000000000E+00 -0.0000000000E+00 -0.0000000000E+00
            fcart5    -0.0000000000E+00 -0.0000000000E+00 -0.0000000000E+00
            fcart6    -0.0000000000E+00 -0.0000000000E+00 -0.0000000000E+00
            fcart7    -0.0000000000E+00 -0.0000000000E+00 -0.0000000000E+00
            fcart8    -0.0000000000E+00 -0.0000000000E+00 -0.0000000000E+00
            fcart9    -0.0000000000E+00 -0.0000000000E+00 -0.0000000000E+00
            fcart10   -0.0000000000E+00 -0.0000000000E+00 -0.0000000000E+00
            fcart11   -0.0000000000E+00 -0.0000000000E+00 -0.0000000000E+00
            fcart12   -0.0000000000E+00 -0.0000000000E+00 -0.0000000000E+00
            fcart13   -0.0000000000E+00 -0.0000000000E+00 -0.0000000000E+00
            fcart14   -0.0000000000E+00 -0.0000000000E+00 -0.0000000000E+00
            fcart15   -0.0000000000E+00 -0.0000000000E+00 -0.0000000000E+00
            fcart16   -0.0000000000E+00 -0.0000000000E+00 -0.0000000000E+00
            fcart17   -0.0000000000E+00 -0.0000000000E+00 -0.0000000000E+00
            fcart18   -0.0000000000E+00 -0.0000000000E+00 -0.0000000000E+00
            fcart19   -0.0000000000E+00 -0.0000000000E+00 -0.0000000000E+00
-          fftalg         112
             iscf           3
              ixc1      -1022
              ixc2      -1023
              ixc3      -1024
              ixc4    -139131
              ixc5    -140131
              ixc6    -141131
              ixc7    -142131
              ixc8    -144131
              ixc9    -145131
              ixc10   -149131
              ixc11   -183131
              ixc12   -184131
              ixc13   -106143
              ixc14   -106147
              ixc15   -106148
              ixc16   -106186
              ixc17      -146
              ixc18      -170
              ixc19      -171
           jdtset        1    2    3    4    5    6    7    8    9   10
                        11   12   13   14   15   16   17   18   19
              kpt      2.50000000E-01  2.50000000E-01  2.50000000E-01
           kptopt           0
P           mkmem           1
            natom           1
            nband           1
           ndtset          19
            ngfft          32      32      32
             nkpt           1
            nline           1
            nstep           1
             nsym          48
           ntypat           1
              occ      2.000000
           prtden           0
           prteig           0
            prtwf           0
          spgroup         221
           strten1    -1.7941029264E-04 -1.7941029264E-04 -1.7941029264E-04
                       0.0000000000E+00  0.0000000000E+00  0.0000000000E+00
           strten2    -1.8654694925E-04 -1.8654694925E-04 -1.8654694925E-04
                       0.0000000000E+00  0.0000000000E+00  0.0000000000E+00
           strten3    -1.6824513428E-04 -1.6824513428E-04 -1.6824513428E-04
                       0.0000000000E+00  0.0000000000E+00  0.0000000000E+00
           strten4    -3.2284771852E-05 -3.2284771852E-05 -3.2284771852E-05
                       0.0000000000E+00  0.0000000000E+00  0.0000000000E+00
           strten5     2.0228916559E-05  2.0228916559E-05  2.0228916559E-05
                       0.0000000000E+00  0.0000000000E+00  0.0000000000E+00
           strten6     6.5531665559E-06  6.5531665559E-06  6.5531665559E-06
                       0.0000000000E+00  0.0000000000E+00  0.0000000000E+00
           strten7    -3.1272352071E-06 -3.1272352071E-06 -3.1272352071E-06
                       0.0000000000E+00  0.0000000000E+00  0.0000000000E+00
           strten8     3.0599967593E-05  3.0599967593E-05  3.0599967593E-05
                       0.0000000000E+00  0.0000000000E+00  0.0000000000E+00
           strten9     1.7132286352E-04  1.7132286352E-04  1.7132286352E-04
                       0.0000000000E+00  0.0000000000E+00  0.0000000000E+00
           strten10   -9.3266351050E-05 -9.3266351050E-05 -9.3266351050E-05
                       0.0000000000E+00  0.0000000000E+00  0.0000000000E+00
           strten11   -1.4387329436E-02 -1.4387329436E-02 -1.4387329436E-02
                       0.0000000000E+00  0.0000000000E+00  0.0000000000E+00
           strten12    1.1335709420E-05  1.1335709420E-05  1.1335709420E-05
                       0.0000000000E+00  0.0000000000E+00  0.0000000000E+00
           strten13   -2.6733895110E-05 -2.6733895110E-05 -2.6733895110E-05
                       0.0000000000E+00  0.0000000000E+00  0.0000000000E+00
           strten14    1.5717557760E-04  1.5717557760E-04  1.5717557760E-04
                       0.0000000000E+00  0.0000000000E+00  0.0000000000E+00
           strten15   -3.9742969206E-05 -3.9742969206E-05 -3.9742969206E-05
                       0.0000000000E+00  0.0000000000E+00  0.0000000000E+00
           strten16   -5.0559386332E-06 -5.0559386332E-06 -5.0559386332E-06
                       0.0000000000E+00  0.0000000000E+00  0.0000000000E+00
           strten17    2.2362108751E-04  2.2362108751E-04  2.2362108751E-04
                       0.0000000000E+00  0.0000000000E+00  0.0000000000E+00
           strten18    8.2398786786E-06  8.2398786786E-06  8.2398786786E-06
                       0.0000000000E+00  0.0000000000E+00  0.0000000000E+00
           strten19   -3.6053217242E-04 -3.6053217242E-04 -3.6053217242E-04
                       0.0000000000E+00  0.0000000000E+00  0.0000000000E+00
           symrel      1  0  0   0  1  0   0  0  1      -1  0  0   0 -1  0   0  0 -1
                      -1  0  0   0  1  0   0  0 -1       1  0  0   0 -1  0   0  0  1
                      -1  0  0   0 -1  0   0  0  1       1  0  0   0  1  0   0  0 -1
                       1  0  0   0 -1  0   0  0 -1      -1  0  0   0  1  0   0  0  1
                       0  1  0   1  0  0   0  0  1       0 -1  0  -1  0  0   0  0 -1
                       0 -1  0   1  0  0   0  0 -1       0  1  0  -1  0  0   0  0  1
                       0 -1  0  -1  0  0   0  0  1       0  1  0   1  0  0   0  0 -1
                       0  1  0  -1  0  0   0  0 -1       0 -1  0   1  0  0   0  0  1
                       0  0  1   1  0  0   0  1  0       0  0 -1  -1  0  0   0 -1  0
                       0  0 -1   1  0  0   0 -1  0       0  0  1  -1  0  0   0  1  0
                       0  0 -1  -1  0  0   0  1  0       0  0  1   1  0  0   0 -1  0
                       0  0  1  -1  0  0   0 -1  0       0  0 -1   1  0  0   0  1  0
                       1  0  0   0  0  1   0  1  0      -1  0  0   0  0 -1   0 -1  0
                      -1  0  0   0  0  1   0 -1  0       1  0  0   0  0 -1   0  1  0
                      -1  0  0   0  0 -1   0  1  0       1  0  0   0  0  1   0 -1  0
                       1  0  0   0  0 -1   0 -1  0      -1  0  0   0  0  1   0  1  0
                       0  1  0   0  0  1   1  0  0       0 -1  0   0  0 -1  -1  0  0
                       0 -1  0   0  0  1  -1  0  0       0  1  0   0  0 -1   1  0  0
                       0 -1  0   0  0 -1   1  0  0       0  1  0   0  0  1  -1  0  0
                       0  1  0   0  0 -1  -1  0  0       0 -1  0   0  0  1   1  0  0
                       0  0  1   0  1  0   1  0  0       0  0 -1   0 -1  0  -1  0  0
                       0  0 -1   0  1  0  -1  0  0       0  0  1   0 -1  0   1  0  0
                       0  0 -1   0 -1  0   1  0  0       0  0  1   0  1  0  -1  0  0
                       0  0  1   0 -1  0  -1  0  0       0  0 -1   0  1  0   1  0  0
           tolwfr      1.00000000E-14
            typat      1
            znucl        2.00000

================================================================================


- Timing analysis has been suppressed with timopt=0



================================================================================

 Suggested references for the acknowledgment of ABINIT usage.

 The users of ABINIT have little formal obligations with respect to the ABINIT group
 (those specified in the GNU General Public License, http://www.gnu.org/copyleft/gpl.txt).
 However, it is common practice in the scientific literature,
 to acknowledge the efforts of people that have made the research possible.
 In this spirit, please find below suggested citations of work written by ABINIT developers,
 corresponding to implementations inside of ABINIT that you have used in the present run.
 Note also that it will be of great value to readers of publications presenting these results,
 to read papers enabling them to understand the theoretical formalism and details
 of the ABINIT implementation.
 For information on why they are suggested, see also http://www.abinit.org/about/?text=acknowledgments.

 [1] Libxc: A library of exchange and correlation functionals for density functional theory.
 M.A.L. Marques, M.J.T. Oliveira, T. Burnus, Computer Physics Communications 183, 2227 (2012).
 Comment : to be cited when LibXC is used (negative value of ixc)
 Strong suggestion to cite this paper.

 [2] ABINIT : First-principles approach of materials and nanosystem properties.
 X. Gonze, B. Amadon, P.-M. Anglade, J.-M. Beuken, F. Bottin, P. Boulanger, F. Bruneval,
 D. Caliste, R. Caracas, M. Cote, T. Deutsch, L. Genovese, Ph. Ghosez, M. Giantomassi
 S. Goedecker, D.R. Hamann, P. Hermet, F. Jollet, G. Jomard, S. Leroux, M. Mancini, S. Mazevet,
 M.J.T. Oliveira, G. Onida, Y. Pouillon, T. Rangel, G.-M. Rignanese, D. Sangalli, R. Shaltaf,
 M. Torrent, M.J. Verstraete, G. Zerah, J.W. Zwanziger
 Computer Phys. Comm. 180, 2582-2615 (2009).
 Comment : the third generic paper describing the ABINIT project.
 Note that a version of this paper, that is not formatted for Computer Phys. Comm. 
 is available at http://www.abinit.org/about/ABINIT_CPC_v10.pdf .
 The licence allows the authors to put it on the Web.

 [3] A brief introduction to the ABINIT software package.
 X. Gonze, G.-M. Rignanese, M. Verstraete, J.-M. Beuken, Y. Pouillon, R. Caracas, F. Jollet,
 M. Torrent, G. Zerah, M. Mikami, Ph. Ghosez, M. Veithen, J.-Y. Raty, V. Olevano, F. Bruneval,
 L. Reining, R. Godby, G. Onida, D.R. Hamann, and D.C. Allan.
 Z. Kristallogr. 220, 558-562 (2005).
 Comment : the second generic paper describing the ABINIT project. Note that this paper
 should be cited especially if you are using the GW part of ABINIT, as several authors
 of this part are not in the list of authors of the first or third paper.
 The .pdf of the latter paper is available at http://www.abinit.org/about/zfk_0505-06_558-562.pdf.
 Note that it should not redistributed (Copyright by Oldenburg Wissenshaftverlag,
 the licence allows the authors to put it on the Web).


 And optionally :

 [4] First-principles computation of material properties : the ABINIT software project. 
 X. Gonze, J.-M. Beuken, R. Caracas, F. Detraux, M. Fuchs, G.-M. Rignanese, L. Sindic,
 M. Verstraete, G. Zerah, F. Jollet, M. Torrent, A. Roy, M. Mikami, Ph. Ghosez, J.-Y. Raty, D.C. Allan.
 Computational Materials Science 25, 478-492 (2002). http://dx.doi.org/10.1016/S0927-0256(02)00325-7
 Comment : the original paper describing the ABINIT project.

 [5] Fast radix 2, 3, 4 and 5 kernels for Fast Fourier Transformations
 on computers with overlapping multiply-add instructions.
 S. Goedecker, SIAM J. on Scientific Computing 18, 1605 (1997).
-
- Proc.   0 individual time (sec): cpu=          4.6  wall=          4.6

================================================================================

 Calculation completed.
.Delivered   62 WARNINGs and  57 COMMENTs to log file.
+Overall time at end (sec) : cpu=          4.6  wall=          4.6
