
.Version 7.9.3 of ABINIT 
.(MPI version, prepared for a x86_64_linux_gnu4.7 computer) 

.Copyright (C) 1998-2014 ABINIT group . 
 ABINIT comes with ABSOLUTELY NO WARRANTY.
 It is free software, and you are welcome to redistribute it
 under certain conditions (GNU General Public License,
 see ~abinit/COPYING or http://www.gnu.org/copyleft/gpl.txt).

 ABINIT is a project of the Universite Catholique de Louvain,
 Corning Inc. and other collaborators, see ~abinit/doc/developers/contributors.txt .
 Please read ~abinit/doc/users/acknowledgments.html for suggested
 acknowledgments of the ABINIT effort.
 For more information, see http://www.abinit.org .

.Starting date : Sat 30 Aug 2014.
- ( at 22h20 )
  
- input  file    -> t20.in
- output file    -> t20.out
- root for input  files -> t20i
- root for output files -> t20o


 DATASET    1 : space group Pm -3 m (#221); Bravais cP (primitive cubic)
================================================================================
 Values of the parameters that define the memory need for DATASET  1.
   intxc =         0  ionmov =         0    iscf =         3 xclevel =         1
  lmnmax =         1   lnmax =         1   mband =         1  mffmem =         1
P  mgfft =        32   mkmem =         1 mpssoang=         1     mpw =      2118
  mqgrid =      3001   natom =         1    nfft =     32768    nkpt =         1
  nloalg =         4  nspden =         1 nspinor =         1  nsppol =         1
    nsym =        48  n1xccc =         0  ntypat =         1  occopt =         1
================================================================================
P This job should need less than                       6.865 Mbytes of memory.
  Rough estimation (10% accuracy) of disk space for files :
_ WF disk file :      0.034 Mbytes ; DEN or POT disk file :      0.252 Mbytes.
================================================================================


 DATASET    2 : space group Pm -3 m (#221); Bravais cP (primitive cubic)
================================================================================
 Values of the parameters that define the memory need for DATASET  2.
   intxc =         0  ionmov =         0    iscf =         3 xclevel =         1
  lmnmax =         1   lnmax =         1   mband =         1  mffmem =         1
P  mgfft =        32   mkmem =         1 mpssoang=         1     mpw =      2118
  mqgrid =      3001   natom =         1    nfft =     32768    nkpt =         1
  nloalg =         4  nspden =         1 nspinor =         1  nsppol =         1
    nsym =        48  n1xccc =         0  ntypat =         1  occopt =         1
================================================================================
P This job should need less than                       6.865 Mbytes of memory.
  Rough estimation (10% accuracy) of disk space for files :
_ WF disk file :      0.034 Mbytes ; DEN or POT disk file :      0.252 Mbytes.
================================================================================


 DATASET    3 : space group Pm -3 m (#221); Bravais cP (primitive cubic)
================================================================================
 Values of the parameters that define the memory need for DATASET  3.
   intxc =         0  ionmov =         0    iscf =         3 xclevel =         1
  lmnmax =         1   lnmax =         1   mband =         1  mffmem =         1
P  mgfft =        32   mkmem =         1 mpssoang=         1     mpw =      2118
  mqgrid =      3001   natom =         1    nfft =     32768    nkpt =         1
  nloalg =         4  nspden =         1 nspinor =         1  nsppol =         1
    nsym =        48  n1xccc =         0  ntypat =         1  occopt =         1
================================================================================
P This job should need less than                       6.865 Mbytes of memory.
  Rough estimation (10% accuracy) of disk space for files :
_ WF disk file :      0.034 Mbytes ; DEN or POT disk file :      0.252 Mbytes.
================================================================================


 DATASET    4 : space group Pm -3 m (#221); Bravais cP (primitive cubic)
================================================================================
 Values of the parameters that define the memory need for DATASET  4.
   intxc =         0  ionmov =         0    iscf =         3 xclevel =         1
  lmnmax =         1   lnmax =         1   mband =         1  mffmem =         1
P  mgfft =        32   mkmem =         1 mpssoang=         1     mpw =      2118
  mqgrid =      3001   natom =         1    nfft =     32768    nkpt =         1
  nloalg =         4  nspden =         1 nspinor =         1  nsppol =         1
    nsym =        48  n1xccc =         0  ntypat =         1  occopt =         1
================================================================================
P This job should need less than                       6.865 Mbytes of memory.
  Rough estimation (10% accuracy) of disk space for files :
_ WF disk file :      0.034 Mbytes ; DEN or POT disk file :      0.252 Mbytes.
================================================================================


 DATASET    5 : space group Pm -3 m (#221); Bravais cP (primitive cubic)
================================================================================
 Values of the parameters that define the memory need for DATASET  5.
   intxc =         0  ionmov =         0    iscf =         3 xclevel =         1
  lmnmax =         1   lnmax =         1   mband =         1  mffmem =         1
P  mgfft =        32   mkmem =         1 mpssoang=         1     mpw =      2118
  mqgrid =      3001   natom =         1    nfft =     32768    nkpt =         1
  nloalg =         4  nspden =         1 nspinor =         1  nsppol =         1
    nsym =        48  n1xccc =         0  ntypat =         1  occopt =         1
================================================================================
P This job should need less than                       6.865 Mbytes of memory.
  Rough estimation (10% accuracy) of disk space for files :
_ WF disk file :      0.034 Mbytes ; DEN or POT disk file :      0.252 Mbytes.
================================================================================


 DATASET    6 : space group Pm -3 m (#221); Bravais cP (primitive cubic)
================================================================================
 Values of the parameters that define the memory need for DATASET  6.
   intxc =         0  ionmov =         0    iscf =         3 xclevel =         1
  lmnmax =         1   lnmax =         1   mband =         1  mffmem =         1
P  mgfft =        32   mkmem =         1 mpssoang=         1     mpw =      2118
  mqgrid =      3001   natom =         1    nfft =     32768    nkpt =         1
  nloalg =         4  nspden =         1 nspinor =         1  nsppol =         1
    nsym =        48  n1xccc =         0  ntypat =         1  occopt =         1
================================================================================
P This job should need less than                       6.865 Mbytes of memory.
  Rough estimation (10% accuracy) of disk space for files :
_ WF disk file :      0.034 Mbytes ; DEN or POT disk file :      0.252 Mbytes.
================================================================================


 DATASET    7 : space group Pm -3 m (#221); Bravais cP (primitive cubic)
================================================================================
 Values of the parameters that define the memory need for DATASET  7.
   intxc =         0  ionmov =         0    iscf =         3 xclevel =         2
  lmnmax =         1   lnmax =         1   mband =         1  mffmem =         1
P  mgfft =        32   mkmem =         1 mpssoang=         1     mpw =      2118
  mqgrid =      3001   natom =         1    nfft =     32768    nkpt =         1
  nloalg =         4  nspden =         1 nspinor =         1  nsppol =         1
    nsym =        48  n1xccc =         0  ntypat =         1  occopt =         1
================================================================================
P This job should need less than                       7.461 Mbytes of memory.
  Rough estimation (10% accuracy) of disk space for files :
_ WF disk file :      0.034 Mbytes ; DEN or POT disk file :      0.252 Mbytes.
================================================================================


 DATASET    8 : space group Pm -3 m (#221); Bravais cP (primitive cubic)
================================================================================
 Values of the parameters that define the memory need for DATASET  8.
   intxc =         0  ionmov =         0    iscf =         3 xclevel =         2
  lmnmax =         1   lnmax =         1   mband =         1  mffmem =         1
P  mgfft =        32   mkmem =         1 mpssoang=         1     mpw =      2118
  mqgrid =      3001   natom =         1    nfft =     32768    nkpt =         1
  nloalg =         4  nspden =         1 nspinor =         1  nsppol =         1
    nsym =        48  n1xccc =         0  ntypat =         1  occopt =         1
================================================================================
P This job should need less than                       7.461 Mbytes of memory.
  Rough estimation (10% accuracy) of disk space for files :
_ WF disk file :      0.034 Mbytes ; DEN or POT disk file :      0.252 Mbytes.
================================================================================


 DATASET    9 : space group Pm -3 m (#221); Bravais cP (primitive cubic)
================================================================================
 Values of the parameters that define the memory need for DATASET  9.
   intxc =         0  ionmov =         0    iscf =         3 xclevel =         2
  lmnmax =         1   lnmax =         1   mband =         1  mffmem =         1
P  mgfft =        32   mkmem =         1 mpssoang=         1     mpw =      2118
  mqgrid =      3001   natom =         1    nfft =     32768    nkpt =         1
  nloalg =         4  nspden =         1 nspinor =         1  nsppol =         1
    nsym =        48  n1xccc =         0  ntypat =         1  occopt =         1
================================================================================
P This job should need less than                       7.461 Mbytes of memory.
  Rough estimation (10% accuracy) of disk space for files :
_ WF disk file :      0.034 Mbytes ; DEN or POT disk file :      0.252 Mbytes.
================================================================================


 DATASET   10 : space group Pm -3 m (#221); Bravais cP (primitive cubic)
================================================================================
 Values of the parameters that define the memory need for DATASET 10.
   intxc =         0  ionmov =         0    iscf =         3 xclevel =         2
  lmnmax =         1   lnmax =         1   mband =         1  mffmem =         1
P  mgfft =        32   mkmem =         1 mpssoang=         1     mpw =      2118
  mqgrid =      3001   natom =         1    nfft =     32768    nkpt =         1
  nloalg =         4  nspden =         1 nspinor =         1  nsppol =         1
    nsym =        48  n1xccc =         0  ntypat =         1  occopt =         1
================================================================================
P This job should need less than                       7.461 Mbytes of memory.
  Rough estimation (10% accuracy) of disk space for files :
_ WF disk file :      0.034 Mbytes ; DEN or POT disk file :      0.252 Mbytes.
================================================================================


 DATASET   11 : space group Pm -3 m (#221); Bravais cP (primitive cubic)
================================================================================
 Values of the parameters that define the memory need for DATASET 11.
   intxc =         0  ionmov =         0    iscf =         3 xclevel =         2
  lmnmax =         1   lnmax =         1   mband =         1  mffmem =         1
P  mgfft =        32   mkmem =         1 mpssoang=         1     mpw =      2118
  mqgrid =      3001   natom =         1    nfft =     32768    nkpt =         1
  nloalg =         4  nspden =         1 nspinor =         1  nsppol =         1
    nsym =        48  n1xccc =         0  ntypat =         1  occopt =         1
================================================================================
P This job should need less than                       7.461 Mbytes of memory.
  Rough estimation (10% accuracy) of disk space for files :
_ WF disk file :      0.034 Mbytes ; DEN or POT disk file :      0.252 Mbytes.
================================================================================


 DATASET   12 : space group Pm -3 m (#221); Bravais cP (primitive cubic)
================================================================================
 Values of the parameters that define the memory need for DATASET 12.
   intxc =         0  ionmov =         0    iscf =         3 xclevel =         2
  lmnmax =         1   lnmax =         1   mband =         1  mffmem =         1
P  mgfft =        32   mkmem =         1 mpssoang=         1     mpw =      2118
  mqgrid =      3001   natom =         1    nfft =     32768    nkpt =         1
  nloalg =         4  nspden =         1 nspinor =         1  nsppol =         1
    nsym =        48  n1xccc =         0  ntypat =         1  occopt =         1
================================================================================
P This job should need less than                       7.461 Mbytes of memory.
  Rough estimation (10% accuracy) of disk space for files :
_ WF disk file :      0.034 Mbytes ; DEN or POT disk file :      0.252 Mbytes.
================================================================================


 DATASET   13 : space group Pm -3 m (#221); Bravais cP (primitive cubic)
================================================================================
 Values of the parameters that define the memory need for DATASET 13.
   intxc =         0  ionmov =         0    iscf =         3 xclevel =         2
  lmnmax =         1   lnmax =         1   mband =         1  mffmem =         1
P  mgfft =        32   mkmem =         1 mpssoang=         1     mpw =      2118
  mqgrid =      3001   natom =         1    nfft =     32768    nkpt =         1
  nloalg =         4  nspden =         1 nspinor =         1  nsppol =         1
    nsym =        48  n1xccc =         0  ntypat =         1  occopt =         1
================================================================================
P This job should need less than                       7.461 Mbytes of memory.
  Rough estimation (10% accuracy) of disk space for files :
_ WF disk file :      0.034 Mbytes ; DEN or POT disk file :      0.252 Mbytes.
================================================================================


 DATASET   14 : space group Pm -3 m (#221); Bravais cP (primitive cubic)
================================================================================
 Values of the parameters that define the memory need for DATASET 14.
   intxc =         0  ionmov =         0    iscf =         3 xclevel =         2
  lmnmax =         1   lnmax =         1   mband =         1  mffmem =         1
P  mgfft =        32   mkmem =         1 mpssoang=         1     mpw =      2118
  mqgrid =      3001   natom =         1    nfft =     32768    nkpt =         1
  nloalg =         4  nspden =         1 nspinor =         1  nsppol =         1
    nsym =        48  n1xccc =         0  ntypat =         1  occopt =         1
================================================================================
P This job should need less than                       7.461 Mbytes of memory.
  Rough estimation (10% accuracy) of disk space for files :
_ WF disk file :      0.034 Mbytes ; DEN or POT disk file :      0.252 Mbytes.
================================================================================


 DATASET   15 : space group Pm -3 m (#221); Bravais cP (primitive cubic)
================================================================================
 Values of the parameters that define the memory need for DATASET 15.
   intxc =         0  ionmov =         0    iscf =         3 xclevel =         2
  lmnmax =         1   lnmax =         1   mband =         1  mffmem =         1
P  mgfft =        32   mkmem =         1 mpssoang=         1     mpw =      2118
  mqgrid =      3001   natom =         1    nfft =     32768    nkpt =         1
  nloalg =         4  nspden =         1 nspinor =         1  nsppol =         1
    nsym =        48  n1xccc =         0  ntypat =         1  occopt =         1
================================================================================
P This job should need less than                       7.461 Mbytes of memory.
  Rough estimation (10% accuracy) of disk space for files :
_ WF disk file :      0.034 Mbytes ; DEN or POT disk file :      0.252 Mbytes.
================================================================================


 DATASET   16 : space group Pm -3 m (#221); Bravais cP (primitive cubic)
================================================================================
 Values of the parameters that define the memory need for DATASET 16.
   intxc =         0  ionmov =         0    iscf =         3 xclevel =         2
  lmnmax =         1   lnmax =         1   mband =         1  mffmem =         1
P  mgfft =        32   mkmem =         1 mpssoang=         1     mpw =      2118
  mqgrid =      3001   natom =         1    nfft =     32768    nkpt =         1
  nloalg =         4  nspden =         1 nspinor =         1  nsppol =         1
    nsym =        48  n1xccc =         0  ntypat =         1  occopt =         1
================================================================================
P This job should need less than                       7.461 Mbytes of memory.
  Rough estimation (10% accuracy) of disk space for files :
_ WF disk file :      0.034 Mbytes ; DEN or POT disk file :      0.252 Mbytes.
================================================================================


 DATASET   17 : space group Pm -3 m (#221); Bravais cP (primitive cubic)
================================================================================
 Values of the parameters that define the memory need for DATASET 17.
   intxc =         0  ionmov =         0    iscf =         3 xclevel =         2
  lmnmax =         1   lnmax =         1   mband =         1  mffmem =         1
P  mgfft =        32   mkmem =         1 mpssoang=         1     mpw =      2118
  mqgrid =      3001   natom =         1    nfft =     32768    nkpt =         1
  nloalg =         4  nspden =         1 nspinor =         1  nsppol =         1
    nsym =        48  n1xccc =         0  ntypat =         1  occopt =         1
================================================================================
P This job should need less than                       7.461 Mbytes of memory.
  Rough estimation (10% accuracy) of disk space for files :
_ WF disk file :      0.034 Mbytes ; DEN or POT disk file :      0.252 Mbytes.
================================================================================


 DATASET   18 : space group Pm -3 m (#221); Bravais cP (primitive cubic)
================================================================================
 Values of the parameters that define the memory need for DATASET 18.
   intxc =         0  ionmov =         0    iscf =         3 xclevel =         2
  lmnmax =         1   lnmax =         1   mband =         1  mffmem =         1
P  mgfft =        32   mkmem =         1 mpssoang=         1     mpw =      2118
  mqgrid =      3001   natom =         1    nfft =     32768    nkpt =         1
  nloalg =         4  nspden =         1 nspinor =         1  nsppol =         1
    nsym =        48  n1xccc =         0  ntypat =         1  occopt =         1
================================================================================
P This job should need less than                       7.461 Mbytes of memory.
  Rough estimation (10% accuracy) of disk space for files :
_ WF disk file :      0.034 Mbytes ; DEN or POT disk file :      0.252 Mbytes.
================================================================================


 DATASET   19 : space group Pm -3 m (#221); Bravais cP (primitive cubic)
================================================================================
 Values of the parameters that define the memory need for DATASET 19.
   intxc =         0  ionmov =         0    iscf =         3 xclevel =         2
  lmnmax =         1   lnmax =         1   mband =         1  mffmem =         1
P  mgfft =        32   mkmem =         1 mpssoang=         1     mpw =      2118
  mqgrid =      3001   natom =         1    nfft =     32768    nkpt =         1
  nloalg =         4  nspden =         1 nspinor =         1  nsppol =         1
    nsym =        48  n1xccc =         0  ntypat =         1  occopt =         1
================================================================================
P This job should need less than                       7.461 Mbytes of memory.
  Rough estimation (10% accuracy) of disk space for files :
_ WF disk file :      0.034 Mbytes ; DEN or POT disk file :      0.252 Mbytes.
================================================================================


 DATASET   21 : space group Pm -3 m (#221); Bravais cP (primitive cubic)
================================================================================
 Values of the parameters that define the memory need for DATASET 21.
   intxc =         0  ionmov =         0    iscf =         3 xclevel =         2
  lmnmax =         1   lnmax =         1   mband =         1  mffmem =         1
P  mgfft =        32   mkmem =         1 mpssoang=         1     mpw =      2118
  mqgrid =      3001   natom =         1    nfft =     32768    nkpt =         1
  nloalg =         4  nspden =         1 nspinor =         1  nsppol =         1
    nsym =        48  n1xccc =         0  ntypat =         1  occopt =         1
================================================================================
P This job should need less than                       7.461 Mbytes of memory.
  Rough estimation (10% accuracy) of disk space for files :
_ WF disk file :      0.034 Mbytes ; DEN or POT disk file :      0.252 Mbytes.
================================================================================


 DATASET   23 : space group Pm -3 m (#221); Bravais cP (primitive cubic)
================================================================================
 Values of the parameters that define the memory need for DATASET 23.
   intxc =         0  ionmov =         0    iscf =         3 xclevel =         2
  lmnmax =         1   lnmax =         1   mband =         1  mffmem =         1
P  mgfft =        32   mkmem =         1 mpssoang=         1     mpw =      2118
  mqgrid =      3001   natom =         1    nfft =     32768    nkpt =         1
  nloalg =         4  nspden =         1 nspinor =         1  nsppol =         1
    nsym =        48  n1xccc =         0  ntypat =         1  occopt =         1
================================================================================
P This job should need less than                       7.461 Mbytes of memory.
  Rough estimation (10% accuracy) of disk space for files :
_ WF disk file :      0.034 Mbytes ; DEN or POT disk file :      0.252 Mbytes.
================================================================================


 DATASET   24 : space group Pm -3 m (#221); Bravais cP (primitive cubic)
================================================================================
 Values of the parameters that define the memory need for DATASET 24.
   intxc =         0  ionmov =         0    iscf =         3 xclevel =         2
  lmnmax =         1   lnmax =         1   mband =         1  mffmem =         1
P  mgfft =        32   mkmem =         1 mpssoang=         1     mpw =      2118
  mqgrid =      3001   natom =         1    nfft =     32768    nkpt =         1
  nloalg =         4  nspden =         1 nspinor =         1  nsppol =         1
    nsym =        48  n1xccc =         0  ntypat =         1  occopt =         1
================================================================================
P This job should need less than                       7.461 Mbytes of memory.
  Rough estimation (10% accuracy) of disk space for files :
_ WF disk file :      0.034 Mbytes ; DEN or POT disk file :      0.252 Mbytes.
================================================================================


 DATASET   25 : space group Pm -3 m (#221); Bravais cP (primitive cubic)
================================================================================
 Values of the parameters that define the memory need for DATASET 25.
   intxc =         0  ionmov =         0    iscf =         3 xclevel =         2
  lmnmax =         1   lnmax =         1   mband =         1  mffmem =         1
P  mgfft =        32   mkmem =         1 mpssoang=         1     mpw =      2118
  mqgrid =      3001   natom =         1    nfft =     32768    nkpt =         1
  nloalg =         4  nspden =         1 nspinor =         1  nsppol =         1
    nsym =        48  n1xccc =         0  ntypat =         1  occopt =         1
================================================================================
P This job should need less than                       7.461 Mbytes of memory.
  Rough estimation (10% accuracy) of disk space for files :
_ WF disk file :      0.034 Mbytes ; DEN or POT disk file :      0.252 Mbytes.
================================================================================


 DATASET   26 : space group Pm -3 m (#221); Bravais cP (primitive cubic)
================================================================================
 Values of the parameters that define the memory need for DATASET 26.
   intxc =         0  ionmov =         0    iscf =         3 xclevel =         2
  lmnmax =         1   lnmax =         1   mband =         1  mffmem =         1
P  mgfft =        32   mkmem =         1 mpssoang=         1     mpw =      2118
  mqgrid =      3001   natom =         1    nfft =     32768    nkpt =         1
  nloalg =         4  nspden =         1 nspinor =         1  nsppol =         1
    nsym =        48  n1xccc =         0  ntypat =         1  occopt =         1
================================================================================
P This job should need less than                       7.461 Mbytes of memory.
  Rough estimation (10% accuracy) of disk space for files :
_ WF disk file :      0.034 Mbytes ; DEN or POT disk file :      0.252 Mbytes.
================================================================================


 DATASET   28 : space group Pm -3 m (#221); Bravais cP (primitive cubic)
================================================================================
 Values of the parameters that define the memory need for DATASET 28.
   intxc =         0  ionmov =         0    iscf =         3 xclevel =         2
  lmnmax =         1   lnmax =         1   mband =         1  mffmem =         1
P  mgfft =        32   mkmem =         1 mpssoang=         1     mpw =      2118
  mqgrid =      3001   natom =         1    nfft =     32768    nkpt =         1
  nloalg =         4  nspden =         1 nspinor =         1  nsppol =         1
    nsym =        48  n1xccc =         0  ntypat =         1  occopt =         1
================================================================================
P This job should need less than                       7.461 Mbytes of memory.
  Rough estimation (10% accuracy) of disk space for files :
_ WF disk file :      0.034 Mbytes ; DEN or POT disk file :      0.252 Mbytes.
================================================================================


 DATASET   29 : space group Pm -3 m (#221); Bravais cP (primitive cubic)
================================================================================
 Values of the parameters that define the memory need for DATASET 29.
   intxc =         0  ionmov =         0    iscf =         3 xclevel =         2
  lmnmax =         1   lnmax =         1   mband =         1  mffmem =         1
P  mgfft =        32   mkmem =         1 mpssoang=         1     mpw =      2118
  mqgrid =      3001   natom =         1    nfft =     32768    nkpt =         1
  nloalg =         4  nspden =         1 nspinor =         1  nsppol =         1
    nsym =        48  n1xccc =         0  ntypat =         1  occopt =         1
================================================================================
P This job should need less than                       7.461 Mbytes of memory.
  Rough estimation (10% accuracy) of disk space for files :
_ WF disk file :      0.034 Mbytes ; DEN or POT disk file :      0.252 Mbytes.
================================================================================


 DATASET   30 : space group Pm -3 m (#221); Bravais cP (primitive cubic)
================================================================================
 Values of the parameters that define the memory need for DATASET 30.
   intxc =         0  ionmov =         0    iscf =         3 xclevel =         2
  lmnmax =         1   lnmax =         1   mband =         1  mffmem =         1
P  mgfft =        32   mkmem =         1 mpssoang=         1     mpw =      2118
  mqgrid =      3001   natom =         1    nfft =     32768    nkpt =         1
  nloalg =         4  nspden =         1 nspinor =         1  nsppol =         1
    nsym =        48  n1xccc =         0  ntypat =         1  occopt =         1
================================================================================
P This job should need less than                       7.461 Mbytes of memory.
  Rough estimation (10% accuracy) of disk space for files :
_ WF disk file :      0.034 Mbytes ; DEN or POT disk file :      0.252 Mbytes.
================================================================================


 DATASET   31 : space group Pm -3 m (#221); Bravais cP (primitive cubic)
================================================================================
 Values of the parameters that define the memory need for DATASET 31.
   intxc =         0  ionmov =         0    iscf =         3 xclevel =         2
  lmnmax =         1   lnmax =         1   mband =         1  mffmem =         1
P  mgfft =        32   mkmem =         1 mpssoang=         1     mpw =      2118
  mqgrid =      3001   natom =         1    nfft =     32768    nkpt =         1
  nloalg =         4  nspden =         1 nspinor =         1  nsppol =         1
    nsym =        48  n1xccc =         0  ntypat =         1  occopt =         1
================================================================================
P This job should need less than                       7.461 Mbytes of memory.
  Rough estimation (10% accuracy) of disk space for files :
_ WF disk file :      0.034 Mbytes ; DEN or POT disk file :      0.252 Mbytes.
================================================================================


 DATASET   32 : space group Pm -3 m (#221); Bravais cP (primitive cubic)
================================================================================
 Values of the parameters that define the memory need for DATASET 32.
   intxc =         0  ionmov =         0    iscf =         3 xclevel =         2
  lmnmax =         1   lnmax =         1   mband =         1  mffmem =         1
P  mgfft =        32   mkmem =         1 mpssoang=         1     mpw =      2118
  mqgrid =      3001   natom =         1    nfft =     32768    nkpt =         1
  nloalg =         4  nspden =         1 nspinor =         1  nsppol =         1
    nsym =        48  n1xccc =         0  ntypat =         1  occopt =         1
================================================================================
P This job should need less than                       7.461 Mbytes of memory.
  Rough estimation (10% accuracy) of disk space for files :
_ WF disk file :      0.034 Mbytes ; DEN or POT disk file :      0.252 Mbytes.
================================================================================


 DATASET   33 : space group Pm -3 m (#221); Bravais cP (primitive cubic)
================================================================================
 Values of the parameters that define the memory need for DATASET 33.
   intxc =         0  ionmov =         0    iscf =         3 xclevel =         2
  lmnmax =         1   lnmax =         1   mband =         1  mffmem =         1
P  mgfft =        32   mkmem =         1 mpssoang=         1     mpw =      2118
  mqgrid =      3001   natom =         1    nfft =     32768    nkpt =         1
  nloalg =         4  nspden =         1 nspinor =         1  nsppol =         1
    nsym =        48  n1xccc =         0  ntypat =         1  occopt =         1
================================================================================
P This job should need less than                       7.461 Mbytes of memory.
  Rough estimation (10% accuracy) of disk space for files :
_ WF disk file :      0.034 Mbytes ; DEN or POT disk file :      0.252 Mbytes.
================================================================================


 DATASET   34 : space group Pm -3 m (#221); Bravais cP (primitive cubic)
================================================================================
 Values of the parameters that define the memory need for DATASET 34.
   intxc =         0  ionmov =         0    iscf =         3 xclevel =         2
  lmnmax =         1   lnmax =         1   mband =         1  mffmem =         1
P  mgfft =        32   mkmem =         1 mpssoang=         1     mpw =      2118
  mqgrid =      3001   natom =         1    nfft =     32768    nkpt =         1
  nloalg =         4  nspden =         1 nspinor =         1  nsppol =         1
    nsym =        48  n1xccc =         0  ntypat =         1  occopt =         1
================================================================================
P This job should need less than                       7.461 Mbytes of memory.
  Rough estimation (10% accuracy) of disk space for files :
_ WF disk file :      0.034 Mbytes ; DEN or POT disk file :      0.252 Mbytes.
================================================================================


 DATASET   35 : space group Pm -3 m (#221); Bravais cP (primitive cubic)
================================================================================
 Values of the parameters that define the memory need for DATASET 35.
   intxc =         0  ionmov =         0    iscf =         3 xclevel =         2
  lmnmax =         1   lnmax =         1   mband =         1  mffmem =         1
P  mgfft =        32   mkmem =         1 mpssoang=         1     mpw =      2118
  mqgrid =      3001   natom =         1    nfft =     32768    nkpt =         1
  nloalg =         4  nspden =         1 nspinor =         1  nsppol =         1
    nsym =        48  n1xccc =         0  ntypat =         1  occopt =         1
================================================================================
P This job should need less than                       7.461 Mbytes of memory.
  Rough estimation (10% accuracy) of disk space for files :
_ WF disk file :      0.034 Mbytes ; DEN or POT disk file :      0.252 Mbytes.
================================================================================


 DATASET   36 : space group Pm -3 m (#221); Bravais cP (primitive cubic)
================================================================================
 Values of the parameters that define the memory need for DATASET 36.
   intxc =         0  ionmov =         0    iscf =         3 xclevel =         2
  lmnmax =         1   lnmax =         1   mband =         1  mffmem =         1
P  mgfft =        32   mkmem =         1 mpssoang=         1     mpw =      2118
  mqgrid =      3001   natom =         1    nfft =     32768    nkpt =         1
  nloalg =         4  nspden =         1 nspinor =         1  nsppol =         1
    nsym =        48  n1xccc =         0  ntypat =         1  occopt =         1
================================================================================
P This job should need less than                       7.461 Mbytes of memory.
  Rough estimation (10% accuracy) of disk space for files :
_ WF disk file :      0.034 Mbytes ; DEN or POT disk file :      0.252 Mbytes.
================================================================================


 DATASET   37 : space group Pm -3 m (#221); Bravais cP (primitive cubic)
================================================================================
 Values of the parameters that define the memory need for DATASET 37.
   intxc =         0  ionmov =         0    iscf =         3 xclevel =         2
  lmnmax =         1   lnmax =         1   mband =         1  mffmem =         1
P  mgfft =        32   mkmem =         1 mpssoang=         1     mpw =      2118
  mqgrid =      3001   natom =         1    nfft =     32768    nkpt =         1
  nloalg =         4  nspden =         1 nspinor =         1  nsppol =         1
    nsym =        48  n1xccc =         0  ntypat =         1  occopt =         1
================================================================================
P This job should need less than                       7.461 Mbytes of memory.
  Rough estimation (10% accuracy) of disk space for files :
_ WF disk file :      0.034 Mbytes ; DEN or POT disk file :      0.252 Mbytes.
================================================================================


 DATASET   38 : space group Pm -3 m (#221); Bravais cP (primitive cubic)
================================================================================
 Values of the parameters that define the memory need for DATASET 38.
   intxc =         0  ionmov =         0    iscf =         3 xclevel =         2
  lmnmax =         1   lnmax =         1   mband =         1  mffmem =         1
P  mgfft =        32   mkmem =         1 mpssoang=         1     mpw =      2118
  mqgrid =      3001   natom =         1    nfft =     32768    nkpt =         1
  nloalg =         4  nspden =         1 nspinor =         1  nsppol =         1
    nsym =        48  n1xccc =         0  ntypat =         1  occopt =         1
================================================================================
P This job should need less than                       7.461 Mbytes of memory.
  Rough estimation (10% accuracy) of disk space for files :
_ WF disk file :      0.034 Mbytes ; DEN or POT disk file :      0.252 Mbytes.
================================================================================


 DATASET   39 : space group Pm -3 m (#221); Bravais cP (primitive cubic)
================================================================================
 Values of the parameters that define the memory need for DATASET 39.
   intxc =         0  ionmov =         0    iscf =         3 xclevel =         2
  lmnmax =         1   lnmax =         1   mband =         1  mffmem =         1
P  mgfft =        32   mkmem =         1 mpssoang=         1     mpw =      2118
  mqgrid =      3001   natom =         1    nfft =     32768    nkpt =         1
  nloalg =         4  nspden =         1 nspinor =         1  nsppol =         1
    nsym =        48  n1xccc =         0  ntypat =         1  occopt =         1
================================================================================
P This job should need less than                       7.461 Mbytes of memory.
  Rough estimation (10% accuracy) of disk space for files :
_ WF disk file :      0.034 Mbytes ; DEN or POT disk file :      0.252 Mbytes.
================================================================================


 DATASET   41 : space group Pm -3 m (#221); Bravais cP (primitive cubic)
================================================================================
 Values of the parameters that define the memory need for DATASET 41.
   intxc =         0  ionmov =         0    iscf =         3 xclevel =         2
  lmnmax =         1   lnmax =         1   mband =         1  mffmem =         1
P  mgfft =        32   mkmem =         1 mpssoang=         1     mpw =      2118
  mqgrid =      3001   natom =         1    nfft =     32768    nkpt =         1
  nloalg =         4  nspden =         1 nspinor =         1  nsppol =         1
    nsym =        48  n1xccc =         0  ntypat =         1  occopt =         1
================================================================================
P This job should need less than                       7.461 Mbytes of memory.
  Rough estimation (10% accuracy) of disk space for files :
_ WF disk file :      0.034 Mbytes ; DEN or POT disk file :      0.252 Mbytes.
================================================================================


 DATASET   42 : space group Pm -3 m (#221); Bravais cP (primitive cubic)
================================================================================
 Values of the parameters that define the memory need for DATASET 42.
   intxc =         0  ionmov =         0    iscf =         3 xclevel =         2
  lmnmax =         1   lnmax =         1   mband =         1  mffmem =         1
P  mgfft =        32   mkmem =         1 mpssoang=         1     mpw =      2118
  mqgrid =      3001   natom =         1    nfft =     32768    nkpt =         1
  nloalg =         4  nspden =         1 nspinor =         1  nsppol =         1
    nsym =        48  n1xccc =         0  ntypat =         1  occopt =         1
================================================================================
P This job should need less than                       7.461 Mbytes of memory.
  Rough estimation (10% accuracy) of disk space for files :
_ WF disk file :      0.034 Mbytes ; DEN or POT disk file :      0.252 Mbytes.
================================================================================


 DATASET   43 : space group Pm -3 m (#221); Bravais cP (primitive cubic)
================================================================================
 Values of the parameters that define the memory need for DATASET 43.
   intxc =         0  ionmov =         0    iscf =         3 xclevel =         2
  lmnmax =         1   lnmax =         1   mband =         1  mffmem =         1
P  mgfft =        32   mkmem =         1 mpssoang=         1     mpw =      2118
  mqgrid =      3001   natom =         1    nfft =     32768    nkpt =         1
  nloalg =         4  nspden =         1 nspinor =         1  nsppol =         1
    nsym =        48  n1xccc =         0  ntypat =         1  occopt =         1
================================================================================
P This job should need less than                       7.461 Mbytes of memory.
  Rough estimation (10% accuracy) of disk space for files :
_ WF disk file :      0.034 Mbytes ; DEN or POT disk file :      0.252 Mbytes.
================================================================================


 DATASET   44 : space group Pm -3 m (#221); Bravais cP (primitive cubic)
================================================================================
 Values of the parameters that define the memory need for DATASET 44.
   intxc =         0  ionmov =         0    iscf =         3 xclevel =         2
  lmnmax =         1   lnmax =         1   mband =         1  mffmem =         1
P  mgfft =        32   mkmem =         1 mpssoang=         1     mpw =      2118
  mqgrid =      3001   natom =         1    nfft =     32768    nkpt =         1
  nloalg =         4  nspden =         1 nspinor =         1  nsppol =         1
    nsym =        48  n1xccc =         0  ntypat =         1  occopt =         1
================================================================================
P This job should need less than                       7.461 Mbytes of memory.
  Rough estimation (10% accuracy) of disk space for files :
_ WF disk file :      0.034 Mbytes ; DEN or POT disk file :      0.252 Mbytes.
================================================================================


 DATASET   45 : space group Pm -3 m (#221); Bravais cP (primitive cubic)
================================================================================
 Values of the parameters that define the memory need for DATASET 45.
   intxc =         0  ionmov =         0    iscf =         3 xclevel =         2
  lmnmax =         1   lnmax =         1   mband =         1  mffmem =         1
P  mgfft =        32   mkmem =         1 mpssoang=         1     mpw =      2118
  mqgrid =      3001   natom =         1    nfft =     32768    nkpt =         1
  nloalg =         4  nspden =         1 nspinor =         1  nsppol =         1
    nsym =        48  n1xccc =         0  ntypat =         1  occopt =         1
================================================================================
P This job should need less than                       7.461 Mbytes of memory.
  Rough estimation (10% accuracy) of disk space for files :
_ WF disk file :      0.034 Mbytes ; DEN or POT disk file :      0.252 Mbytes.
================================================================================


 DATASET   46 : space group Pm -3 m (#221); Bravais cP (primitive cubic)
================================================================================
 Values of the parameters that define the memory need for DATASET 46.
   intxc =         0  ionmov =         0    iscf =         3 xclevel =         2
  lmnmax =         1   lnmax =         1   mband =         1  mffmem =         1
P  mgfft =        32   mkmem =         1 mpssoang=         1     mpw =      2118
  mqgrid =      3001   natom =         1    nfft =     32768    nkpt =         1
  nloalg =         4  nspden =         1 nspinor =         1  nsppol =         1
    nsym =        48  n1xccc =         0  ntypat =         1  occopt =         1
================================================================================
P This job should need less than                       7.461 Mbytes of memory.
  Rough estimation (10% accuracy) of disk space for files :
_ WF disk file :      0.034 Mbytes ; DEN or POT disk file :      0.252 Mbytes.
================================================================================


 DATASET   47 : space group Pm -3 m (#221); Bravais cP (primitive cubic)
================================================================================
 Values of the parameters that define the memory need for DATASET 47.
   intxc =         0  ionmov =         0    iscf =         3 xclevel =         2
  lmnmax =         1   lnmax =         1   mband =         1  mffmem =         1
P  mgfft =        32   mkmem =         1 mpssoang=         1     mpw =      2118
  mqgrid =      3001   natom =         1    nfft =     32768    nkpt =         1
  nloalg =         4  nspden =         1 nspinor =         1  nsppol =         1
    nsym =        48  n1xccc =         0  ntypat =         1  occopt =         1
================================================================================
P This job should need less than                       7.461 Mbytes of memory.
  Rough estimation (10% accuracy) of disk space for files :
_ WF disk file :      0.034 Mbytes ; DEN or POT disk file :      0.252 Mbytes.
================================================================================


 DATASET   48 : space group Pm -3 m (#221); Bravais cP (primitive cubic)
================================================================================
 Values of the parameters that define the memory need for DATASET 48.
   intxc =         0  ionmov =         0    iscf =         3 xclevel =         2
  lmnmax =         1   lnmax =         1   mband =         1  mffmem =         1
P  mgfft =        32   mkmem =         1 mpssoang=         1     mpw =      2118
  mqgrid =      3001   natom =         1    nfft =     32768    nkpt =         1
  nloalg =         4  nspden =         1 nspinor =         1  nsppol =         1
    nsym =        48  n1xccc =         0  ntypat =         1  occopt =         1
================================================================================
P This job should need less than                       7.461 Mbytes of memory.
  Rough estimation (10% accuracy) of disk space for files :
_ WF disk file :      0.034 Mbytes ; DEN or POT disk file :      0.252 Mbytes.
================================================================================


 DATASET   49 : space group Pm -3 m (#221); Bravais cP (primitive cubic)
================================================================================
 Values of the parameters that define the memory need for DATASET 49.
   intxc =         0  ionmov =         0    iscf =         3 xclevel =         2
  lmnmax =         1   lnmax =         1   mband =         1  mffmem =         1
P  mgfft =        32   mkmem =         1 mpssoang=         1     mpw =      2118
  mqgrid =      3001   natom =         1    nfft =     32768    nkpt =         1
  nloalg =         4  nspden =         1 nspinor =         1  nsppol =         1
    nsym =        48  n1xccc =         0  ntypat =         1  occopt =         1
================================================================================
P This job should need less than                       7.461 Mbytes of memory.
  Rough estimation (10% accuracy) of disk space for files :
_ WF disk file :      0.034 Mbytes ; DEN or POT disk file :      0.252 Mbytes.
================================================================================

--------------------------------------------------------------------------------
------------- Echo of variables that govern the present computation ------------
--------------------------------------------------------------------------------
-
- outvars: echo of selected default values                                      
-   accesswff0 =  0 , fftalg0 =112 , wfoptalg0 =  0
-
- outvars: echo of global parameters not present in the input file              
-  max_nthreads =    0
-
 -outvars: echo values of preprocessed input variables --------
            acell      5.0000000000E+00  5.0000000000E+00  5.0000000000E+00 Bohr
              amu      4.00260200E+00
           diemac      1.00000000E+00
           diemix      5.00000000E-01
             ecut      5.00000000E+01 Hartree
-          fftalg         112
             iscf           3
              ixc1      -1025
              ixc2      -1027
              ixc3      -1028
              ixc4      -1029
              ixc5      -1030
              ixc6      -1031
              ixc7     -90131
              ixc8     -91131
              ixc9     -92131
              ixc10    -98131
              ixc11   -150131
              ixc12   -151131
              ixc13   -158131
              ixc14   -191131
              ixc15   -192131
              ixc16   -193131
              ixc17   -524131
              ixc18   -525131
              ixc19   -526131
              ixc21   -528131
              ixc23   -106084
              ixc24   -106085
              ixc25   -106086
              ixc26   -106087
              ixc28   -106089
              ixc29   -106099
              ixc30   -106100
              ixc31   -106152
              ixc32   -106153
              ixc33   -106159
              ixc34   -106200
              ixc35       -93
              ixc36       -94
              ixc37       -95
              ixc38       -96
              ixc39       -97
              ixc41      -155
              ixc42      -156
              ixc43      -157
              ixc44      -194
              ixc45      -195
              ixc46      -196
              ixc47      -197
              ixc48      -198
              ixc49      -199
           jdtset        1    2    3    4    5    6    7    8    9   10
                        11   12   13   14   15   16   17   18   19   21
                        23   24   25   26   28   29   30   31   32   33
                        34   35   36   37   38   39   41   42   43   44
                        45   46   47   48   49
              kpt      2.50000000E-01  2.50000000E-01  2.50000000E-01
           kptopt           0
P           mkmem           1
            natom           1
            nband           1
           ndtset          45
            ngfft          32      32      32
             nkpt           1
            nline           1
            nstep           1
             nsym          48
           ntypat           1
              occ      2.000000
           prtden           0
           prteig           0
            prtwf           0
          spgroup         221
           symrel      1  0  0   0  1  0   0  0  1      -1  0  0   0 -1  0   0  0 -1
                      -1  0  0   0  1  0   0  0 -1       1  0  0   0 -1  0   0  0  1
                      -1  0  0   0 -1  0   0  0  1       1  0  0   0  1  0   0  0 -1
                       1  0  0   0 -1  0   0  0 -1      -1  0  0   0  1  0   0  0  1
                       0  1  0   1  0  0   0  0  1       0 -1  0  -1  0  0   0  0 -1
                       0 -1  0   1  0  0   0  0 -1       0  1  0  -1  0  0   0  0  1
                       0 -1  0  -1  0  0   0  0  1       0  1  0   1  0  0   0  0 -1
                       0  1  0  -1  0  0   0  0 -1       0 -1  0   1  0  0   0  0  1
                       0  0  1   1  0  0   0  1  0       0  0 -1  -1  0  0   0 -1  0
                       0  0 -1   1  0  0   0 -1  0       0  0  1  -1  0  0   0  1  0
                       0  0 -1  -1  0  0   0  1  0       0  0  1   1  0  0   0 -1  0
                       0  0  1  -1  0  0   0 -1  0       0  0 -1   1  0  0   0  1  0
                       1  0  0   0  0  1   0  1  0      -1  0  0   0  0 -1   0 -1  0
                      -1  0  0   0  0  1   0 -1  0       1  0  0   0  0 -1   0  1  0
                      -1  0  0   0  0 -1   0  1  0       1  0  0   0  0  1   0 -1  0
                       1  0  0   0  0 -1   0 -1  0      -1  0  0   0  0  1   0  1  0
                       0  1  0   0  0  1   1  0  0       0 -1  0   0  0 -1  -1  0  0
                       0 -1  0   0  0  1  -1  0  0       0  1  0   0  0 -1   1  0  0
                       0 -1  0   0  0 -1   1  0  0       0  1  0   0  0  1  -1  0  0
                       0  1  0   0  0 -1  -1  0  0       0 -1  0   0  0  1   1  0  0
                       0  0  1   0  1  0   1  0  0       0  0 -1   0 -1  0  -1  0  0
                       0  0 -1   0  1  0  -1  0  0       0  0  1   0 -1  0   1  0  0
                       0  0 -1   0 -1  0   1  0  0       0  0  1   0  1  0  -1  0  0
                       0  0  1   0 -1  0  -1  0  0       0  0 -1   0  1  0   1  0  0
           tolwfr      1.00000000E-14
            typat      1
            znucl        2.00000

================================================================================

 chkinp: Checking input parameters for consistency, jdtset=   1.

 chkinp: Checking input parameters for consistency, jdtset=   2.

 chkinp: Checking input parameters for consistency, jdtset=   3.

 chkinp: Checking input parameters for consistency, jdtset=   4.

 chkinp: Checking input parameters for consistency, jdtset=   5.

 chkinp: Checking input parameters for consistency, jdtset=   6.

 chkinp: Checking input parameters for consistency, jdtset=   7.

 chkinp: Checking input parameters for consistency, jdtset=   8.

 chkinp: Checking input parameters for consistency, jdtset=   9.

 chkinp: Checking input parameters for consistency, jdtset=  10.

 chkinp: Checking input parameters for consistency, jdtset=  11.

 chkinp: Checking input parameters for consistency, jdtset=  12.

 chkinp: Checking input parameters for consistency, jdtset=  13.

 chkinp: Checking input parameters for consistency, jdtset=  14.

 chkinp: Checking input parameters for consistency, jdtset=  15.

 chkinp: Checking input parameters for consistency, jdtset=  16.

 chkinp: Checking input parameters for consistency, jdtset=  17.

 chkinp: Checking input parameters for consistency, jdtset=  18.

 chkinp: Checking input parameters for consistency, jdtset=  19.

 chkinp: Checking input parameters for consistency, jdtset=  21.

 chkinp: Checking input parameters for consistency, jdtset=  23.

 chkinp: Checking input parameters for consistency, jdtset=  24.

 chkinp: Checking input parameters for consistency, jdtset=  25.

 chkinp: Checking input parameters for consistency, jdtset=  26.

 chkinp: Checking input parameters for consistency, jdtset=  28.

 chkinp: Checking input parameters for consistency, jdtset=  29.

 chkinp: Checking input parameters for consistency, jdtset=  30.

 chkinp: Checking input parameters for consistency, jdtset=  31.

 chkinp: Checking input parameters for consistency, jdtset=  32.

 chkinp: Checking input parameters for consistency, jdtset=  33.

 chkinp: Checking input parameters for consistency, jdtset=  34.

 chkinp: Checking input parameters for consistency, jdtset=  35.

 chkinp: Checking input parameters for consistency, jdtset=  36.

 chkinp: Checking input parameters for consistency, jdtset=  37.

 chkinp: Checking input parameters for consistency, jdtset=  38.

 chkinp: Checking input parameters for consistency, jdtset=  39.

 chkinp: Checking input parameters for consistency, jdtset=  41.

 chkinp: Checking input parameters for consistency, jdtset=  42.

 chkinp: Checking input parameters for consistency, jdtset=  43.

 chkinp: Checking input parameters for consistency, jdtset=  44.

 chkinp: Checking input parameters for consistency, jdtset=  45.

 chkinp: Checking input parameters for consistency, jdtset=  46.

 chkinp: Checking input parameters for consistency, jdtset=  47.

 chkinp: Checking input parameters for consistency, jdtset=  48.

 chkinp: Checking input parameters for consistency, jdtset=  49.

================================================================================
== DATASET  1 ==================================================================
-   nproc =    1

 Real(R)+Recip(G) space primitive vectors, cartesian coordinates (Bohr,Bohr^-1):
 R(1)=  5.0000000  0.0000000  0.0000000  G(1)=  0.2000000  0.0000000  0.0000000
 R(2)=  0.0000000  5.0000000  0.0000000  G(2)=  0.0000000  0.2000000  0.0000000
 R(3)=  0.0000000  0.0000000  5.0000000  G(3)=  0.0000000  0.0000000  0.2000000
 Unit cell volume ucvol=  1.2500000E+02 bohr^3
 Angles (23,13,12)=  9.00000000E+01  9.00000000E+01  9.00000000E+01 degrees

 getcut: wavevector=  0.0000  0.0000  0.0000  ngfft=  32  32  32
         ecut(hartree)=     50.000   => boxcut(ratio)=   2.01062

--- Pseudopotential description ------------------------------------------------
- pspini: atom type   1  psp file is /home/gonze/ABINIT/ABINITv7.9.3/trunk/7.9.3-private/tests/Psps_for_tests/02he.bare
- pspatm: opening atomic psp file    /home/gonze/ABINIT/ABINITv7.9.3/trunk/7.9.3-private/tests/Psps_for_tests/02he.bare
- Bare (erfc) Goedecker-Teter-Hutter  Wed May  8 14:27:44 EDT 1996
-  2.00000   2.00000    960508                znucl, zion, pspdat
    2    1    0    0      2001   0.00000      pspcod,pspxc,lmax,lloc,mmax,r2well
 rloc=   0.0010000
  cc1=   0.0000000; cc2=   0.0000000; cc3=   0.0000000; cc4=   0.0000000
  rrs=   0.0000000; h1s=   0.0000000; h2s=   0.0000000
  rrp=   0.0000000; h1p=   0.0000000
-  Local part computed in reciprocal space.

 pspatm : COMMENT -
  the projectors are not normalized,
  so that the KB energies are not consistent with 
  definition in PRB44, 8503 (1991). 
  However, this does not influence the results obtained hereafter.
 pspatm: epsatm=    0.00001257
         --- l  ekb(1:nproj) -->
 pspatm: atomic psp has been read  and splines computed

   2.51327412E-05                                ecore*ucvol(ha*bohr**3)
--------------------------------------------------------------------------------

P newkpt: treating      1 bands with npw=    2118 for ikpt=   1 by node    0

_setup2: Arith. and geom. avg. npw (full set) are    2118.000    2118.000

================================================================================

     iter   Etot(hartree)      deltaE(h)  residm     vres2
 ETOT  1  -2.7830473667466    -2.783E+00 5.057E-01 2.494E+01

 Cartesian components of stress tensor (hartree/bohr^3)
  sigma(1 1)= -1.63985280E-04  sigma(3 2)=  0.00000000E+00
  sigma(2 2)= -1.63985280E-04  sigma(3 1)=  0.00000000E+00
  sigma(3 3)= -1.63985280E-04  sigma(2 1)=  0.00000000E+00


 scprqt:  WARNING -
  nstep=    1 was not enough SCF cycles to converge;
  maximum residual=  5.057E-01 exceeds tolwfr=  1.000E-14

================================================================================

 ----iterations are completed or convergence reached----

 Mean square residual over all n,k,spin=   5.0572E-01; max=  5.0572E-01
   0.2500  0.2500  0.2500    1  5.05718E-01 kpt; spin; max resid(k); each band:
  5.06E-01
 reduced coordinates (array xred) for    1 atoms
       0.000000000000      0.000000000000      0.000000000000
 rms dE/dt=  0.0000E+00; max dE/dt=  0.0000E+00; dE/dt below (all hartree)
    1       0.000000000000      0.000000000000      0.000000000000

 cartesian coordinates (angstrom) at end:
    1      0.00000000000000     0.00000000000000     0.00000000000000

 cartesian forces (hartree/bohr) at end:
    1     -0.00000000000000    -0.00000000000000    -0.00000000000000
 frms,max,avg= 0.0000000E+00 0.0000000E+00   0.000E+00  0.000E+00  0.000E+00 h/b

 cartesian forces (eV/Angstrom) at end:
    1     -0.00000000000000    -0.00000000000000    -0.00000000000000
 frms,max,avg= 0.0000000E+00 0.0000000E+00   0.000E+00  0.000E+00  0.000E+00 e/A
 length scales=  5.000000000000  5.000000000000  5.000000000000 bohr
              =  2.645886042950  2.645886042950  2.645886042950 angstroms
 Fermi (or HOMO) energy (hartree) =  -0.51238   Average Vxc (hartree)=  -0.18592
 Eigenvalues (hartree) for nkpt=   1  k points:
 kpt#   1, nband=  1, wtk=  1.00000, kpt=  0.2500  0.2500  0.2500 (reduced coord)
  -0.51238
 Total charge density [el/Bohr^3]
,     Maximum=    1.8489E+00  at reduced coord.    0.0000    0.0000    0.0000
,Next maximum=    1.6053E+00  at reduced coord.    0.0000    0.0000    0.9688
,     Minimum=    6.3448E-05  at reduced coord.    0.5000    0.5000    0.1250
,Next minimum=    6.3448E-05  at reduced coord.    0.5000    0.1250    0.5000
,  Integrated=    2.0000E+00

--------------------------------------------------------------------------------
 Components of total free energy (in Hartree) :

    Kinetic energy  =  2.74415277450390E+00
    Hartree energy  =  1.00570712527281E+00
    XC energy       = -1.03718546269875E+00
    Ewald energy    = -1.13491899179226E+00
    PspCore energy  =  2.01061929829747E-07
    Loc. psp. energy= -4.36080301309422E+00
    NL   psp  energy=  0.00000000000000E+00
    >>>>>>>>> Etotal= -2.78304736674659E+00

 Other information on the energy :
    Total energy(eV)= -7.57305701971037E+01 ; Band energy (Ha)=  -1.0247585019E+00
--------------------------------------------------------------------------------

 Cartesian components of stress tensor (hartree/bohr^3)
  sigma(1 1)= -1.63985280E-04  sigma(3 2)=  0.00000000E+00
  sigma(2 2)= -1.63985280E-04  sigma(3 1)=  0.00000000E+00
  sigma(3 3)= -1.63985280E-04  sigma(2 1)=  0.00000000E+00

-Cartesian components of stress tensor (GPa)         [Pressure=  4.8246E+00 GPa]
- sigma(1 1)= -4.82461270E+00  sigma(3 2)=  0.00000000E+00
- sigma(2 2)= -4.82461270E+00  sigma(3 1)=  0.00000000E+00
- sigma(3 3)= -4.82461270E+00  sigma(2 1)=  0.00000000E+00

================================================================================
== DATASET  2 ==================================================================
-   nproc =    1

 Real(R)+Recip(G) space primitive vectors, cartesian coordinates (Bohr,Bohr^-1):
 R(1)=  5.0000000  0.0000000  0.0000000  G(1)=  0.2000000  0.0000000  0.0000000
 R(2)=  0.0000000  5.0000000  0.0000000  G(2)=  0.0000000  0.2000000  0.0000000
 R(3)=  0.0000000  0.0000000  5.0000000  G(3)=  0.0000000  0.0000000  0.2000000
 Unit cell volume ucvol=  1.2500000E+02 bohr^3
 Angles (23,13,12)=  9.00000000E+01  9.00000000E+01  9.00000000E+01 degrees

 getcut: wavevector=  0.0000  0.0000  0.0000  ngfft=  32  32  32
         ecut(hartree)=     50.000   => boxcut(ratio)=   2.01062

--- Pseudopotential description ------------------------------------------------
- pspini: atom type   1  psp file is /home/gonze/ABINIT/ABINITv7.9.3/trunk/7.9.3-private/tests/Psps_for_tests/02he.bare
- pspatm: opening atomic psp file    /home/gonze/ABINIT/ABINITv7.9.3/trunk/7.9.3-private/tests/Psps_for_tests/02he.bare
- Bare (erfc) Goedecker-Teter-Hutter  Wed May  8 14:27:44 EDT 1996
-  2.00000   2.00000    960508                znucl, zion, pspdat
    2    1    0    0      2001   0.00000      pspcod,pspxc,lmax,lloc,mmax,r2well
 rloc=   0.0010000
  cc1=   0.0000000; cc2=   0.0000000; cc3=   0.0000000; cc4=   0.0000000
  rrs=   0.0000000; h1s=   0.0000000; h2s=   0.0000000
  rrp=   0.0000000; h1p=   0.0000000
-  Local part computed in reciprocal space.

 pspatm : COMMENT -
  the projectors are not normalized,
  so that the KB energies are not consistent with 
  definition in PRB44, 8503 (1991). 
  However, this does not influence the results obtained hereafter.
 pspatm: epsatm=    0.00001257
         --- l  ekb(1:nproj) -->
 pspatm: atomic psp has been read  and splines computed

--------------------------------------------------------------------------------

P newkpt: treating      1 bands with npw=    2118 for ikpt=   1 by node    0

_setup2: Arith. and geom. avg. npw (full set) are    2118.000    2118.000

================================================================================

     iter   Etot(hartree)      deltaE(h)  residm     vres2
 ETOT  1  -2.7287862692458    -2.729E+00 5.022E-01 2.154E+01

 Cartesian components of stress tensor (hartree/bohr^3)
  sigma(1 1)= -1.70989116E-04  sigma(3 2)=  0.00000000E+00
  sigma(2 2)= -1.70989116E-04  sigma(3 1)=  0.00000000E+00
  sigma(3 3)= -1.70989116E-04  sigma(2 1)=  0.00000000E+00


 scprqt:  WARNING -
  nstep=    1 was not enough SCF cycles to converge;
  maximum residual=  5.022E-01 exceeds tolwfr=  1.000E-14

================================================================================

 ----iterations are completed or convergence reached----

 Mean square residual over all n,k,spin=   5.0224E-01; max=  5.0224E-01
   0.2500  0.2500  0.2500    1  5.02235E-01 kpt; spin; max resid(k); each band:
  5.02E-01
 reduced coordinates (array xred) for    1 atoms
       0.000000000000      0.000000000000      0.000000000000
 rms dE/dt=  0.0000E+00; max dE/dt=  0.0000E+00; dE/dt below (all hartree)
    1       0.000000000000      0.000000000000      0.000000000000

 cartesian coordinates (angstrom) at end:
    1      0.00000000000000     0.00000000000000     0.00000000000000

 cartesian forces (hartree/bohr) at end:
    1     -0.00000000000000    -0.00000000000000    -0.00000000000000
 frms,max,avg= 0.0000000E+00 0.0000000E+00   0.000E+00  0.000E+00  0.000E+00 h/b

 cartesian forces (eV/Angstrom) at end:
    1     -0.00000000000000    -0.00000000000000    -0.00000000000000
 frms,max,avg= 0.0000000E+00 0.0000000E+00   0.000E+00  0.000E+00  0.000E+00 e/A
 length scales=  5.000000000000  5.000000000000  5.000000000000 bohr
              =  2.645886042950  2.645886042950  2.645886042950 angstroms
 Fermi (or HOMO) energy (hartree) =  -0.48355   Average Vxc (hartree)=  -0.16379
 Eigenvalues (hartree) for nkpt=   1  k points:
 kpt#   1, nband=  1, wtk=  1.00000, kpt=  0.2500  0.2500  0.2500 (reduced coord)
  -0.48355
 Total charge density [el/Bohr^3]
,     Maximum=    1.8439E+00  at reduced coord.    0.0000    0.0000    0.0000
,Next maximum=    1.6009E+00  at reduced coord.    0.0000    0.0000    0.9688
,     Minimum=    6.4905E-05  at reduced coord.    0.5000    0.5000    0.1250
,Next minimum=    6.4905E-05  at reduced coord.    0.5000    0.1250    0.5000
,  Integrated=    2.0000E+00

--------------------------------------------------------------------------------
 Components of total free energy (in Hartree) :

    Kinetic energy  =  2.73548434186822E+00
    Hartree energy  =  1.00160107214104E+00
    XC energy       = -9.80804663652773E-01
    Ewald energy    = -1.13491899179226E+00
    PspCore energy  =  2.01061929829747E-07
    Loc. psp. energy= -4.35014822887192E+00
    NL   psp  energy=  0.00000000000000E+00
    >>>>>>>>> Etotal= -2.72878626924577E+00

 Other information on the energy :
    Total energy(eV)= -7.42540506443439E+01 ; Band energy (Ha)=  -9.6709402830E-01
--------------------------------------------------------------------------------

 Cartesian components of stress tensor (hartree/bohr^3)
  sigma(1 1)= -1.70989116E-04  sigma(3 2)=  0.00000000E+00
  sigma(2 2)= -1.70989116E-04  sigma(3 1)=  0.00000000E+00
  sigma(3 3)= -1.70989116E-04  sigma(2 1)=  0.00000000E+00

-Cartesian components of stress tensor (GPa)         [Pressure=  5.0307E+00 GPa]
- sigma(1 1)= -5.03067261E+00  sigma(3 2)=  0.00000000E+00
- sigma(2 2)= -5.03067261E+00  sigma(3 1)=  0.00000000E+00
- sigma(3 3)= -5.03067261E+00  sigma(2 1)=  0.00000000E+00

================================================================================
== DATASET  3 ==================================================================
-   nproc =    1

 Real(R)+Recip(G) space primitive vectors, cartesian coordinates (Bohr,Bohr^-1):
 R(1)=  5.0000000  0.0000000  0.0000000  G(1)=  0.2000000  0.0000000  0.0000000
 R(2)=  0.0000000  5.0000000  0.0000000  G(2)=  0.0000000  0.2000000  0.0000000
 R(3)=  0.0000000  0.0000000  5.0000000  G(3)=  0.0000000  0.0000000  0.2000000
 Unit cell volume ucvol=  1.2500000E+02 bohr^3
 Angles (23,13,12)=  9.00000000E+01  9.00000000E+01  9.00000000E+01 degrees

 getcut: wavevector=  0.0000  0.0000  0.0000  ngfft=  32  32  32
         ecut(hartree)=     50.000   => boxcut(ratio)=   2.01062

--- Pseudopotential description ------------------------------------------------
- pspini: atom type   1  psp file is /home/gonze/ABINIT/ABINITv7.9.3/trunk/7.9.3-private/tests/Psps_for_tests/02he.bare
- pspatm: opening atomic psp file    /home/gonze/ABINIT/ABINITv7.9.3/trunk/7.9.3-private/tests/Psps_for_tests/02he.bare
- Bare (erfc) Goedecker-Teter-Hutter  Wed May  8 14:27:44 EDT 1996
-  2.00000   2.00000    960508                znucl, zion, pspdat
    2    1    0    0      2001   0.00000      pspcod,pspxc,lmax,lloc,mmax,r2well
 rloc=   0.0010000
  cc1=   0.0000000; cc2=   0.0000000; cc3=   0.0000000; cc4=   0.0000000
  rrs=   0.0000000; h1s=   0.0000000; h2s=   0.0000000
  rrp=   0.0000000; h1p=   0.0000000
-  Local part computed in reciprocal space.

 pspatm : COMMENT -
  the projectors are not normalized,
  so that the KB energies are not consistent with 
  definition in PRB44, 8503 (1991). 
  However, this does not influence the results obtained hereafter.
 pspatm: epsatm=    0.00001257
         --- l  ekb(1:nproj) -->
 pspatm: atomic psp has been read  and splines computed

--------------------------------------------------------------------------------

P newkpt: treating      1 bands with npw=    2118 for ikpt=   1 by node    0

_setup2: Arith. and geom. avg. npw (full set) are    2118.000    2118.000

================================================================================

     iter   Etot(hartree)      deltaE(h)  residm     vres2
 ETOT  1  -2.7466409368168    -2.747E+00 5.036E-01 2.257E+01

 Cartesian components of stress tensor (hartree/bohr^3)
  sigma(1 1)= -1.65280332E-04  sigma(3 2)=  0.00000000E+00
  sigma(2 2)= -1.65280332E-04  sigma(3 1)=  0.00000000E+00
  sigma(3 3)= -1.65280332E-04  sigma(2 1)=  0.00000000E+00


 scprqt:  WARNING -
  nstep=    1 was not enough SCF cycles to converge;
  maximum residual=  5.036E-01 exceeds tolwfr=  1.000E-14

================================================================================

 ----iterations are completed or convergence reached----

 Mean square residual over all n,k,spin=   5.0360E-01; max=  5.0360E-01
   0.2500  0.2500  0.2500    1  5.03595E-01 kpt; spin; max resid(k); each band:
  5.04E-01
 reduced coordinates (array xred) for    1 atoms
       0.000000000000      0.000000000000      0.000000000000
 rms dE/dt=  0.0000E+00; max dE/dt=  0.0000E+00; dE/dt below (all hartree)
    1       0.000000000000      0.000000000000      0.000000000000

 cartesian coordinates (angstrom) at end:
    1      0.00000000000000     0.00000000000000     0.00000000000000

 cartesian forces (hartree/bohr) at end:
    1     -0.00000000000000    -0.00000000000000    -0.00000000000000
 frms,max,avg= 0.0000000E+00 0.0000000E+00   0.000E+00  0.000E+00  0.000E+00 h/b

 cartesian forces (eV/Angstrom) at end:
    1     -0.00000000000000    -0.00000000000000    -0.00000000000000
 frms,max,avg= 0.0000000E+00 0.0000000E+00   0.000E+00  0.000E+00  0.000E+00 e/A
 length scales=  5.000000000000  5.000000000000  5.000000000000 bohr
              =  2.645886042950  2.645886042950  2.645886042950 angstroms
 Fermi (or HOMO) energy (hartree) =  -0.49341   Average Vxc (hartree)=  -0.17142
 Eigenvalues (hartree) for nkpt=   1  k points:
 kpt#   1, nband=  1, wtk=  1.00000, kpt=  0.2500  0.2500  0.2500 (reduced coord)
  -0.49341
 Total charge density [el/Bohr^3]
,     Maximum=    1.8469E+00  at reduced coord.    0.0000    0.0000    0.0000
,Next maximum=    1.6035E+00  at reduced coord.    0.0000    0.0000    0.9688
,     Minimum=    6.4399E-05  at reduced coord.    0.5000    0.5000    0.1250
,Next minimum=    6.4399E-05  at reduced coord.    0.5000    0.1250    0.5000
,  Integrated=    2.0000E+00

--------------------------------------------------------------------------------
 Components of total free energy (in Hartree) :

    Kinetic energy  =  2.74005182923027E+00
    Hartree energy  =  1.00358150086595E+00
    XC energy       = -9.99691023307301E-01
    Ewald energy    = -1.13491899179226E+00
    PspCore energy  =  2.01061929829747E-07
    Loc. psp. energy= -4.35566445287536E+00
    NL   psp  energy=  0.00000000000000E+00
    >>>>>>>>> Etotal= -2.74664093681678E+00

 Other information on the energy :
    Total energy(eV)= -7.47399008573113E+01 ; Band energy (Ha)=  -9.8682706440E-01
--------------------------------------------------------------------------------

 Cartesian components of stress tensor (hartree/bohr^3)
  sigma(1 1)= -1.65280332E-04  sigma(3 2)=  0.00000000E+00
  sigma(2 2)= -1.65280332E-04  sigma(3 1)=  0.00000000E+00
  sigma(3 3)= -1.65280332E-04  sigma(2 1)=  0.00000000E+00

-Cartesian components of stress tensor (GPa)         [Pressure=  4.8627E+00 GPa]
- sigma(1 1)= -4.86271443E+00  sigma(3 2)=  0.00000000E+00
- sigma(2 2)= -4.86271443E+00  sigma(3 1)=  0.00000000E+00
- sigma(3 3)= -4.86271443E+00  sigma(2 1)=  0.00000000E+00

================================================================================
== DATASET  4 ==================================================================
-   nproc =    1

 Real(R)+Recip(G) space primitive vectors, cartesian coordinates (Bohr,Bohr^-1):
 R(1)=  5.0000000  0.0000000  0.0000000  G(1)=  0.2000000  0.0000000  0.0000000
 R(2)=  0.0000000  5.0000000  0.0000000  G(2)=  0.0000000  0.2000000  0.0000000
 R(3)=  0.0000000  0.0000000  5.0000000  G(3)=  0.0000000  0.0000000  0.2000000
 Unit cell volume ucvol=  1.2500000E+02 bohr^3
 Angles (23,13,12)=  9.00000000E+01  9.00000000E+01  9.00000000E+01 degrees

 getcut: wavevector=  0.0000  0.0000  0.0000  ngfft=  32  32  32
         ecut(hartree)=     50.000   => boxcut(ratio)=   2.01062

--- Pseudopotential description ------------------------------------------------
- pspini: atom type   1  psp file is /home/gonze/ABINIT/ABINITv7.9.3/trunk/7.9.3-private/tests/Psps_for_tests/02he.bare
- pspatm: opening atomic psp file    /home/gonze/ABINIT/ABINITv7.9.3/trunk/7.9.3-private/tests/Psps_for_tests/02he.bare
- Bare (erfc) Goedecker-Teter-Hutter  Wed May  8 14:27:44 EDT 1996
-  2.00000   2.00000    960508                znucl, zion, pspdat
    2    1    0    0      2001   0.00000      pspcod,pspxc,lmax,lloc,mmax,r2well
 rloc=   0.0010000
  cc1=   0.0000000; cc2=   0.0000000; cc3=   0.0000000; cc4=   0.0000000
  rrs=   0.0000000; h1s=   0.0000000; h2s=   0.0000000
  rrp=   0.0000000; h1p=   0.0000000
-  Local part computed in reciprocal space.

 pspatm : COMMENT -
  the projectors are not normalized,
  so that the KB energies are not consistent with 
  definition in PRB44, 8503 (1991). 
  However, this does not influence the results obtained hereafter.
 pspatm: epsatm=    0.00001257
         --- l  ekb(1:nproj) -->
 pspatm: atomic psp has been read  and splines computed

--------------------------------------------------------------------------------

P newkpt: treating      1 bands with npw=    2118 for ikpt=   1 by node    0

_setup2: Arith. and geom. avg. npw (full set) are    2118.000    2118.000

================================================================================

     iter   Etot(hartree)      deltaE(h)  residm     vres2
 ETOT  1  -2.7466409368168    -2.747E+00 5.036E-01 2.257E+01

 Cartesian components of stress tensor (hartree/bohr^3)
  sigma(1 1)= -1.65280332E-04  sigma(3 2)=  0.00000000E+00
  sigma(2 2)= -1.65280332E-04  sigma(3 1)=  0.00000000E+00
  sigma(3 3)= -1.65280332E-04  sigma(2 1)=  0.00000000E+00


 scprqt:  WARNING -
  nstep=    1 was not enough SCF cycles to converge;
  maximum residual=  5.036E-01 exceeds tolwfr=  1.000E-14

================================================================================

 ----iterations are completed or convergence reached----

 Mean square residual over all n,k,spin=   5.0360E-01; max=  5.0360E-01
   0.2500  0.2500  0.2500    1  5.03595E-01 kpt; spin; max resid(k); each band:
  5.04E-01
 reduced coordinates (array xred) for    1 atoms
       0.000000000000      0.000000000000      0.000000000000
 rms dE/dt=  0.0000E+00; max dE/dt=  0.0000E+00; dE/dt below (all hartree)
    1       0.000000000000      0.000000000000      0.000000000000

 cartesian coordinates (angstrom) at end:
    1      0.00000000000000     0.00000000000000     0.00000000000000

 cartesian forces (hartree/bohr) at end:
    1     -0.00000000000000    -0.00000000000000    -0.00000000000000
 frms,max,avg= 0.0000000E+00 0.0000000E+00   0.000E+00  0.000E+00  0.000E+00 h/b

 cartesian forces (eV/Angstrom) at end:
    1     -0.00000000000000    -0.00000000000000    -0.00000000000000
 frms,max,avg= 0.0000000E+00 0.0000000E+00   0.000E+00  0.000E+00  0.000E+00 e/A
 length scales=  5.000000000000  5.000000000000  5.000000000000 bohr
              =  2.645886042950  2.645886042950  2.645886042950 angstroms
 Fermi (or HOMO) energy (hartree) =  -0.49341   Average Vxc (hartree)=  -0.17142
 Eigenvalues (hartree) for nkpt=   1  k points:
 kpt#   1, nband=  1, wtk=  1.00000, kpt=  0.2500  0.2500  0.2500 (reduced coord)
  -0.49341
 Total charge density [el/Bohr^3]
,     Maximum=    1.8469E+00  at reduced coord.    0.0000    0.0000    0.0000
,Next maximum=    1.6035E+00  at reduced coord.    0.0000    0.0000    0.9688
,     Minimum=    6.4399E-05  at reduced coord.    0.5000    0.5000    0.1250
,Next minimum=    6.4399E-05  at reduced coord.    0.5000    0.1250    0.5000
,  Integrated=    2.0000E+00

--------------------------------------------------------------------------------
 Components of total free energy (in Hartree) :

    Kinetic energy  =  2.74005182923027E+00
    Hartree energy  =  1.00358150086595E+00
    XC energy       = -9.99691023307301E-01
    Ewald energy    = -1.13491899179226E+00
[...]
           etotal14   -2.7935150483E+00
           etotal15   -2.7175557855E+00
           etotal16   -1.8760619691E+00
           etotal17   -2.8036450682E+00
           etotal18   -2.8021268119E+00
           etotal19   -2.7582056675E+00
           etotal21   -2.7596973299E+00
           etotal23   -2.8313661244E+00
           etotal24   -2.8219720281E+00
           etotal25   -2.8221956746E+00
           etotal26   -2.8217467629E+00
           etotal28   -2.8221768398E+00
           etotal29   -2.8157054674E+00
           etotal30   -2.8157054674E+00
           etotal31   -2.9073433879E+00
           etotal32   -2.8135566619E+00
           etotal33   -2.8944961202E+00
           etotal34   -2.8095027395E+00
           etotal35   -2.8324221089E+00
           etotal36   -1.9204225826E+00
           etotal37   -2.8571150191E+00
           etotal38   -2.8340361963E+00
           etotal39   -2.4444097087E+00
           etotal41   -2.8256179539E+00
           etotal42   -2.8784939694E+00
           etotal43   -2.8143057252E+00
           etotal44   -2.7966344729E+00
           etotal45   -2.8219827005E+00
           etotal46   -3.1008772381E+00
           etotal47    4.6450556799E+00
           etotal48    6.7290979231E+00
           etotal49    5.4358361560E+00
            fcart1    -0.0000000000E+00 -0.0000000000E+00 -0.0000000000E+00
            fcart2    -0.0000000000E+00 -0.0000000000E+00 -0.0000000000E+00
            fcart3    -0.0000000000E+00 -0.0000000000E+00 -0.0000000000E+00
            fcart4    -0.0000000000E+00 -0.0000000000E+00 -0.0000000000E+00
            fcart5    -0.0000000000E+00 -0.0000000000E+00 -0.0000000000E+00
            fcart6    -0.0000000000E+00 -0.0000000000E+00 -0.0000000000E+00
            fcart7    -0.0000000000E+00 -0.0000000000E+00 -0.0000000000E+00
            fcart8    -0.0000000000E+00 -0.0000000000E+00 -0.0000000000E+00
            fcart9    -0.0000000000E+00 -0.0000000000E+00 -0.0000000000E+00
            fcart10   -0.0000000000E+00 -0.0000000000E+00 -0.0000000000E+00
            fcart11   -0.0000000000E+00 -0.0000000000E+00 -0.0000000000E+00
            fcart12   -0.0000000000E+00 -0.0000000000E+00 -0.0000000000E+00
            fcart13   -0.0000000000E+00 -0.0000000000E+00 -0.0000000000E+00
            fcart14   -0.0000000000E+00 -0.0000000000E+00 -0.0000000000E+00
            fcart15   -0.0000000000E+00 -0.0000000000E+00 -0.0000000000E+00
            fcart16   -0.0000000000E+00 -0.0000000000E+00 -0.0000000000E+00
            fcart17   -0.0000000000E+00 -0.0000000000E+00 -0.0000000000E+00
            fcart18   -0.0000000000E+00 -0.0000000000E+00 -0.0000000000E+00
            fcart19   -0.0000000000E+00 -0.0000000000E+00 -0.0000000000E+00
            fcart21   -0.0000000000E+00 -0.0000000000E+00 -0.0000000000E+00
            fcart23   -0.0000000000E+00 -0.0000000000E+00 -0.0000000000E+00
            fcart24   -0.0000000000E+00 -0.0000000000E+00 -0.0000000000E+00
            fcart25   -0.0000000000E+00 -0.0000000000E+00 -0.0000000000E+00
            fcart26   -0.0000000000E+00 -0.0000000000E+00 -0.0000000000E+00
            fcart28   -0.0000000000E+00 -0.0000000000E+00 -0.0000000000E+00
            fcart29   -0.0000000000E+00 -0.0000000000E+00 -0.0000000000E+00
            fcart30   -0.0000000000E+00 -0.0000000000E+00 -0.0000000000E+00
            fcart31   -0.0000000000E+00 -0.0000000000E+00 -0.0000000000E+00
            fcart32   -0.0000000000E+00 -0.0000000000E+00 -0.0000000000E+00
            fcart33   -0.0000000000E+00 -0.0000000000E+00 -0.0000000000E+00
            fcart34   -0.0000000000E+00 -0.0000000000E+00 -0.0000000000E+00
            fcart35   -0.0000000000E+00 -0.0000000000E+00 -0.0000000000E+00
            fcart36   -0.0000000000E+00 -0.0000000000E+00 -0.0000000000E+00
            fcart37   -0.0000000000E+00 -0.0000000000E+00 -0.0000000000E+00
            fcart38   -0.0000000000E+00 -0.0000000000E+00 -0.0000000000E+00
            fcart39   -0.0000000000E+00 -0.0000000000E+00 -0.0000000000E+00
            fcart41   -0.0000000000E+00 -0.0000000000E+00 -0.0000000000E+00
            fcart42   -0.0000000000E+00 -0.0000000000E+00 -0.0000000000E+00
            fcart43   -0.0000000000E+00 -0.0000000000E+00 -0.0000000000E+00
            fcart44   -0.0000000000E+00 -0.0000000000E+00 -0.0000000000E+00
            fcart45   -0.0000000000E+00 -0.0000000000E+00 -0.0000000000E+00
            fcart46   -0.0000000000E+00 -0.0000000000E+00 -0.0000000000E+00
            fcart47   -0.0000000000E+00 -0.0000000000E+00 -0.0000000000E+00
            fcart48   -0.0000000000E+00 -0.0000000000E+00 -0.0000000000E+00
            fcart49   -0.0000000000E+00 -0.0000000000E+00 -0.0000000000E+00
-          fftalg         112
             iscf           3
              ixc1      -1025
              ixc2      -1027
              ixc3      -1028
              ixc4      -1029
              ixc5      -1030
              ixc6      -1031
              ixc7     -90131
              ixc8     -91131
              ixc9     -92131
              ixc10    -98131
              ixc11   -150131
              ixc12   -151131
              ixc13   -158131
              ixc14   -191131
              ixc15   -192131
              ixc16   -193131
              ixc17   -524131
              ixc18   -525131
              ixc19   -526131
              ixc21   -528131
              ixc23   -106084
              ixc24   -106085
              ixc25   -106086
              ixc26   -106087
              ixc28   -106089
              ixc29   -106099
              ixc30   -106100
              ixc31   -106152
              ixc32   -106153
              ixc33   -106159
              ixc34   -106200
              ixc35       -93
              ixc36       -94
              ixc37       -95
              ixc38       -96
              ixc39       -97
              ixc41      -155
              ixc42      -156
              ixc43      -157
              ixc44      -194
              ixc45      -195
              ixc46      -196
              ixc47      -197
              ixc48      -198
              ixc49      -199
           jdtset        1    2    3    4    5    6    7    8    9   10
                        11   12   13   14   15   16   17   18   19   21
                        23   24   25   26   28   29   30   31   32   33
                        34   35   36   37   38   39   41   42   43   44
                        45   46   47   48   49
              kpt      2.50000000E-01  2.50000000E-01  2.50000000E-01
           kptopt           0
P           mkmem           1
            natom           1
            nband           1
           ndtset          45
            ngfft          32      32      32
             nkpt           1
            nline           1
            nstep           1
             nsym          48
           ntypat           1
              occ      2.000000
           prtden           0
           prteig           0
            prtwf           0
          spgroup         221
           strten1    -1.6398528018E-04 -1.6398528018E-04 -1.6398528018E-04
                       0.0000000000E+00  0.0000000000E+00  0.0000000000E+00
           strten2    -1.7098911551E-04 -1.7098911551E-04 -1.7098911551E-04
                       0.0000000000E+00  0.0000000000E+00  0.0000000000E+00
           strten3    -1.6528033196E-04 -1.6528033196E-04 -1.6528033196E-04
                       0.0000000000E+00  0.0000000000E+00  0.0000000000E+00
           strten4    -1.6528033196E-04 -1.6528033196E-04 -1.6528033196E-04
                       0.0000000000E+00  0.0000000000E+00  0.0000000000E+00
           strten5    -1.6528033196E-04 -1.6528033196E-04 -1.6528033196E-04
                       0.0000000000E+00  0.0000000000E+00  0.0000000000E+00
           strten6    -1.6528033196E-04 -1.6528033196E-04 -1.6528033196E-04
                       0.0000000000E+00  0.0000000000E+00  0.0000000000E+00
           strten7     6.1841841841E-05  6.1841841841E-05  6.1841841841E-05
                       0.0000000000E+00  0.0000000000E+00  0.0000000000E+00
           strten8     2.2117267164E-04  2.2117267164E-04  2.2117267164E-04
                       0.0000000000E+00  0.0000000000E+00  0.0000000000E+00
           strten9     2.3722250429E-04  2.3722250429E-04  2.3722250429E-04
                       0.0000000000E+00  0.0000000000E+00  0.0000000000E+00
           strten10    3.4160182935E-05  3.4160182935E-05  3.4160182935E-05
                       0.0000000000E+00  0.0000000000E+00  0.0000000000E+00
           strten11   -4.3465227473E-05 -4.3465227473E-05 -4.3465227473E-05
                       0.0000000000E+00  0.0000000000E+00  0.0000000000E+00
           strten12   -2.2052970533E-04 -2.2052970533E-04 -2.2052970533E-04
                       0.0000000000E+00  0.0000000000E+00  0.0000000000E+00
           strten13   -2.7144633348E-05 -2.7144633348E-05 -2.7144633348E-05
                       0.0000000000E+00  0.0000000000E+00  0.0000000000E+00
           strten14    3.3777816856E-06  3.3777816856E-06  3.3777816856E-06
                       0.0000000000E+00  0.0000000000E+00  0.0000000000E+00
           strten15   -4.6718779705E-05 -4.6718779705E-05 -4.6718779705E-05
                       0.0000000000E+00  0.0000000000E+00  0.0000000000E+00
           strten16   -5.1654144375E-04 -5.1654144375E-04 -5.1654144375E-04
                       0.0000000000E+00  0.0000000000E+00  0.0000000000E+00
           strten17    9.2602516170E-06  9.2602516170E-06  9.2602516170E-06
                       0.0000000000E+00  0.0000000000E+00  0.0000000000E+00
           strten18    9.8684382004E-07  9.8684382004E-07  9.8684382004E-07
                       0.0000000000E+00  0.0000000000E+00  0.0000000000E+00
           strten19   -3.7068715380E-05 -3.7068715380E-05 -3.7068715380E-05
                       0.0000000000E+00  0.0000000000E+00  0.0000000000E+00
           strten21   -7.9853194646E-06 -7.9853194646E-06 -7.9853194646E-06
                       0.0000000000E+00  0.0000000000E+00  0.0000000000E+00
           strten23   -3.1015875696E-05 -3.1015875696E-05 -3.1015875696E-05
                       0.0000000000E+00  0.0000000000E+00  0.0000000000E+00
           strten24   -3.2871399556E-05 -3.2871399556E-05 -3.2871399556E-05
                       0.0000000000E+00  0.0000000000E+00  0.0000000000E+00
           strten25   -3.3790841760E-05 -3.3790841760E-05 -3.3790841760E-05
                       0.0000000000E+00  0.0000000000E+00  0.0000000000E+00
           strten26   -3.3211301438E-05 -3.3211301438E-05 -3.3211301438E-05
                       0.0000000000E+00  0.0000000000E+00  0.0000000000E+00
           strten28   -1.5205965239E-05 -1.5205965239E-05 -1.5205965239E-05
                       0.0000000000E+00  0.0000000000E+00  0.0000000000E+00
           strten29   -2.4116518415E-05 -2.4116518415E-05 -2.4116518415E-05
                       0.0000000000E+00  0.0000000000E+00  0.0000000000E+00
           strten30   -2.4116518415E-05 -2.4116518415E-05 -2.4116518415E-05
                       0.0000000000E+00  0.0000000000E+00  0.0000000000E+00
           strten31    1.9977607360E-04  1.9977607360E-04  1.9977607360E-04
                       0.0000000000E+00  0.0000000000E+00  0.0000000000E+00
           strten32   -4.2407773947E-05 -4.2407773947E-05 -4.2407773947E-05
                       0.0000000000E+00  0.0000000000E+00  0.0000000000E+00
           strten33    1.6566575142E-04  1.6566575142E-04  1.6566575142E-04
                       0.0000000000E+00  0.0000000000E+00  0.0000000000E+00
           strten34   -4.3133148054E-05 -4.3133148054E-05 -4.3133148054E-05
                       0.0000000000E+00  0.0000000000E+00  0.0000000000E+00
           strten35    4.8822701564E-05  4.8822701564E-05  4.8822701564E-05
                       0.0000000000E+00  0.0000000000E+00  0.0000000000E+00
           strten36   -1.9565378530E-03 -1.9565378530E-03 -1.9565378530E-03
                       0.0000000000E+00  0.0000000000E+00  0.0000000000E+00
           strten37   -2.0102525001E-05 -2.0102525001E-05 -2.0102525001E-05
                       0.0000000000E+00  0.0000000000E+00  0.0000000000E+00
           strten38    7.2074880637E-05  7.2074880637E-05  7.2074880637E-05
                       0.0000000000E+00  0.0000000000E+00  0.0000000000E+00
           strten39   -6.2874116031E-04 -6.2874116031E-04 -6.2874116031E-04
                       0.0000000000E+00  0.0000000000E+00  0.0000000000E+00
           strten41   -1.1115587625E-03 -1.1115587625E-03 -1.1115587625E-03
                       0.0000000000E+00  0.0000000000E+00  0.0000000000E+00
           strten42   -7.1119702210E-04 -7.1119702210E-04 -7.1119702210E-04
                       0.0000000000E+00  0.0000000000E+00  0.0000000000E+00
           strten43   -1.3088044779E-03 -1.3088044779E-03 -1.3088044779E-03
                       0.0000000000E+00  0.0000000000E+00  0.0000000000E+00
           strten44    4.1378479398E-05  4.1378479398E-05  4.1378479398E-05
                       0.0000000000E+00  0.0000000000E+00  0.0000000000E+00
           strten45    1.5227620239E-04  1.5227620239E-04  1.5227620239E-04
                       0.0000000000E+00  0.0000000000E+00  0.0000000000E+00
           strten46   -1.4671796303E-04 -1.4671796303E-04 -1.4671796303E-04
                       0.0000000000E+00  0.0000000000E+00  0.0000000000E+00
           strten47   -2.7865812719E-02 -2.7865812719E-02 -2.7865812719E-02
                       0.0000000000E+00  0.0000000000E+00  0.0000000000E+00
           strten48   -3.8722845456E-02 -3.8722845456E-02 -3.8722845456E-02
                       0.0000000000E+00  0.0000000000E+00  0.0000000000E+00
           strten49   -3.1865362425E-02 -3.1865362425E-02 -3.1865362425E-02
                       0.0000000000E+00  0.0000000000E+00  0.0000000000E+00
           symrel      1  0  0   0  1  0   0  0  1      -1  0  0   0 -1  0   0  0 -1
                      -1  0  0   0  1  0   0  0 -1       1  0  0   0 -1  0   0  0  1
                      -1  0  0   0 -1  0   0  0  1       1  0  0   0  1  0   0  0 -1
                       1  0  0   0 -1  0   0  0 -1      -1  0  0   0  1  0   0  0  1
                       0  1  0   1  0  0   0  0  1       0 -1  0  -1  0  0   0  0 -1
                       0 -1  0   1  0  0   0  0 -1       0  1  0  -1  0  0   0  0  1
                       0 -1  0  -1  0  0   0  0  1       0  1  0   1  0  0   0  0 -1
                       0  1  0  -1  0  0   0  0 -1       0 -1  0   1  0  0   0  0  1
                       0  0  1   1  0  0   0  1  0       0  0 -1  -1  0  0   0 -1  0
                       0  0 -1   1  0  0   0 -1  0       0  0  1  -1  0  0   0  1  0
                       0  0 -1  -1  0  0   0  1  0       0  0  1   1  0  0   0 -1  0
                       0  0  1  -1  0  0   0 -1  0       0  0 -1   1  0  0   0  1  0
                       1  0  0   0  0  1   0  1  0      -1  0  0   0  0 -1   0 -1  0
                      -1  0  0   0  0  1   0 -1  0       1  0  0   0  0 -1   0  1  0
                      -1  0  0   0  0 -1   0  1  0       1  0  0   0  0  1   0 -1  0
                       1  0  0   0  0 -1   0 -1  0      -1  0  0   0  0  1   0  1  0
                       0  1  0   0  0  1   1  0  0       0 -1  0   0  0 -1  -1  0  0
                       0 -1  0   0  0  1  -1  0  0       0  1  0   0  0 -1   1  0  0
                       0 -1  0   0  0 -1   1  0  0       0  1  0   0  0  1  -1  0  0
                       0  1  0   0  0 -1  -1  0  0       0 -1  0   0  0  1   1  0  0
                       0  0  1   0  1  0   1  0  0       0  0 -1   0 -1  0  -1  0  0
                       0  0 -1   0  1  0  -1  0  0       0  0  1   0 -1  0   1  0  0
                       0  0 -1   0 -1  0   1  0  0       0  0  1   0  1  0  -1  0  0
                       0  0  1   0 -1  0  -1  0  0       0  0 -1   0  1  0   1  0  0
           tolwfr      1.00000000E-14
            typat      1
            znucl        2.00000

================================================================================


- Timing analysis has been suppressed with timopt=0



================================================================================

 Suggested references for the acknowledgment of ABINIT usage.

 The users of ABINIT have little formal obligations with respect to the ABINIT group
 (those specified in the GNU General Public License, http://www.gnu.org/copyleft/gpl.txt).
 However, it is common practice in the scientific literature,
 to acknowledge the efforts of people that have made the research possible.
 In this spirit, please find below suggested citations of work written by ABINIT developers,
 corresponding to implementations inside of ABINIT that you have used in the present run.
 Note also that it will be of great value to readers of publications presenting these results,
 to read papers enabling them to understand the theoretical formalism and details
 of the ABINIT implementation.
 For information on why they are suggested, see also http://www.abinit.org/about/?text=acknowledgments.

 [1] Libxc: A library of exchange and correlation functionals for density functional theory.
 M.A.L. Marques, M.J.T. Oliveira, T. Burnus, Computer Physics Communications 183, 2227 (2012).
 Comment : to be cited when LibXC is used (negative value of ixc)
 Strong suggestion to cite this paper.

 [2] ABINIT : First-principles approach of materials and nanosystem properties.
 X. Gonze, B. Amadon, P.-M. Anglade, J.-M. Beuken, F. Bottin, P. Boulanger, F. Bruneval,
 D. Caliste, R. Caracas, M. Cote, T. Deutsch, L. Genovese, Ph. Ghosez, M. Giantomassi
 S. Goedecker, D.R. Hamann, P. Hermet, F. Jollet, G. Jomard, S. Leroux, M. Mancini, S. Mazevet,
 M.J.T. Oliveira, G. Onida, Y. Pouillon, T. Rangel, G.-M. Rignanese, D. Sangalli, R. Shaltaf,
 M. Torrent, M.J. Verstraete, G. Zerah, J.W. Zwanziger
 Computer Phys. Comm. 180, 2582-2615 (2009).
 Comment : the third generic paper describing the ABINIT project.
 Note that a version of this paper, that is not formatted for Computer Phys. Comm. 
 is available at http://www.abinit.org/about/ABINIT_CPC_v10.pdf .
 The licence allows the authors to put it on the Web.

 [3] A brief introduction to the ABINIT software package.
 X. Gonze, G.-M. Rignanese, M. Verstraete, J.-M. Beuken, Y. Pouillon, R. Caracas, F. Jollet,
 M. Torrent, G. Zerah, M. Mikami, Ph. Ghosez, M. Veithen, J.-Y. Raty, V. Olevano, F. Bruneval,
 L. Reining, R. Godby, G. Onida, D.R. Hamann, and D.C. Allan.
 Z. Kristallogr. 220, 558-562 (2005).
 Comment : the second generic paper describing the ABINIT project. Note that this paper
 should be cited especially if you are using the GW part of ABINIT, as several authors
 of this part are not in the list of authors of the first or third paper.
 The .pdf of the latter paper is available at http://www.abinit.org/about/zfk_0505-06_558-562.pdf.
 Note that it should not redistributed (Copyright by Oldenburg Wissenshaftverlag,
 the licence allows the authors to put it on the Web).


 And optionally :

 [4] First-principles computation of material properties : the ABINIT software project. 
 X. Gonze, J.-M. Beuken, R. Caracas, F. Detraux, M. Fuchs, G.-M. Rignanese, L. Sindic,
 M. Verstraete, G. Zerah, F. Jollet, M. Torrent, A. Roy, M. Mikami, Ph. Ghosez, J.-Y. Raty, D.C. Allan.
 Computational Materials Science 25, 478-492 (2002). http://dx.doi.org/10.1016/S0927-0256(02)00325-7
 Comment : the original paper describing the ABINIT project.

 [5] Fast radix 2, 3, 4 and 5 kernels for Fast Fourier Transformations
 on computers with overlapping multiply-add instructions.
 S. Goedecker, SIAM J. on Scientific Computing 18, 1605 (1997).
-
- Proc.   0 individual time (sec): cpu=         13.1  wall=         13.1

================================================================================

 Calculation completed.
.Delivered  140 WARNINGs and 135 COMMENTs to log file.
+Overall time at end (sec) : cpu=         13.1  wall=         13.1
