
.Version 7.9.3 of ABINIT 
.(MPI version, prepared for a x86_64_linux_gnu4.7 computer) 

.Copyright (C) 1998-2014 ABINIT group . 
 ABINIT comes with ABSOLUTELY NO WARRANTY.
 It is free software, and you are welcome to redistribute it
 under certain conditions (GNU General Public License,
 see ~abinit/COPYING or http://www.gnu.org/copyleft/gpl.txt).

 ABINIT is a project of the Universite Catholique de Louvain,
 Corning Inc. and other collaborators, see ~abinit/doc/developers/contributors.txt .
 Please read ~abinit/doc/users/acknowledgments.html for suggested
 acknowledgments of the ABINIT effort.
 For more information, see http://www.abinit.org .

.Starting date : Sat 30 Aug 2014.
- ( at 22h39 )
  
- input  file    -> t11.in
- output file    -> t11.out
- root for input  files -> t11i
- root for output files -> t11o


 DATASET    1 : space group Fm -3 m (#225); Bravais cF (face-center cubic)
================================================================================
 Values of the parameters that define the memory need for DATASET  1.
   intxc =         0  ionmov =         0    iscf =         7 xclevel =         1
  lmnmax =         2   lnmax =         2   mband =        13  mffmem =         1
P  mgfft =        12   mkmem =         8 mpssoang=         3     mpw =        84
  mqgrid =      3001   natom =         1    nfft =      1728    nkpt =         8
  nloalg =         4  nspden =         1 nspinor =         1  nsppol =         1
    nsym =        48  n1xccc =      2501  ntypat =         1  occopt =         7
================================================================================
P This job should need less than                       1.942 Mbytes of memory.
  Rough estimation (10% accuracy) of disk space for files :
_ WF disk file :      0.135 Mbytes ; DEN or POT disk file :      0.015 Mbytes.
================================================================================


 DATASET    2 : space group Fm -3 m (#225); Bravais cF (face-center cubic)
================================================================================
 Values of the parameters that define the memory need for DATASET  2.
   intxc =         0  ionmov =         0    iscf =        -3 xclevel =         1
  lmnmax =         2   lnmax =         2   mband =        13  mffmem =         1
P  mgfft =        12   mkmem =        29 mpssoang=         3     mpw =        84
  mqgrid =      3001   natom =         1    nfft =      1728    nkpt =        29
  nloalg =         4  nspden =         1 nspinor =         1  nsppol =         1
    nsym =        48  n1xccc =      2501  ntypat =         1  occopt =         7
================================================================================
P This job should need less than                       2.137 Mbytes of memory.
  Rough estimation (10% accuracy) of disk space for files :
_ WF disk file :      0.485 Mbytes ; DEN or POT disk file :      0.015 Mbytes.
================================================================================

--------------------------------------------------------------------------------
------------- Echo of variables that govern the present computation ------------
--------------------------------------------------------------------------------
-
- outvars: echo of selected default values                                      
-   accesswff0 =  0 , fftalg0 =112 , wfoptalg0 =  0
-
- outvars: echo of global parameters not present in the input file              
-  max_nthreads =    0
-
 -outvars: echo values of preprocessed input variables --------
            acell      7.6530000000E+00  7.6530000000E+00  7.6530000000E+00 Bohr
              amu      2.69815390E+01
             ecut      6.00000000E+00 Hartree
-          fftalg         112
           getden1          0
           getden2          1
             iscf1          7
             iscf2         -3
           istwfk1       2    0    3    0    0    0    7    0
           istwfk2       2    0    0    0    3    0    0    0    0    0
                         0    0    0    0    0    0    0    0    0    0
                         7    0    0    0    0    0    0    0    0
           jdtset        1    2
              kpt1     0.00000000E+00  0.00000000E+00  0.00000000E+00
                       2.50000000E-01  0.00000000E+00  0.00000000E+00
                       5.00000000E-01  0.00000000E+00  0.00000000E+00
                       2.50000000E-01  2.50000000E-01  0.00000000E+00
                       5.00000000E-01  2.50000000E-01  0.00000000E+00
                      -2.50000000E-01  2.50000000E-01  0.00000000E+00
                       5.00000000E-01  5.00000000E-01  0.00000000E+00
                      -2.50000000E-01  5.00000000E-01  2.50000000E-01
              kpt2     0.00000000E+00  0.00000000E+00  0.00000000E+00
                       1.25000000E-01  0.00000000E+00  0.00000000E+00
                       2.50000000E-01  0.00000000E+00  0.00000000E+00
                       3.75000000E-01  0.00000000E+00  0.00000000E+00
                       5.00000000E-01  0.00000000E+00  0.00000000E+00
                       1.25000000E-01  1.25000000E-01  0.00000000E+00
                       2.50000000E-01  1.25000000E-01  0.00000000E+00
                       3.75000000E-01  1.25000000E-01  0.00000000E+00
                       5.00000000E-01  1.25000000E-01  0.00000000E+00
                      -3.75000000E-01  1.25000000E-01  0.00000000E+00
                      -2.50000000E-01  1.25000000E-01  0.00000000E+00
                      -1.25000000E-01  1.25000000E-01  0.00000000E+00
                       2.50000000E-01  2.50000000E-01  0.00000000E+00
                       3.75000000E-01  2.50000000E-01  0.00000000E+00
                       5.00000000E-01  2.50000000E-01  0.00000000E+00
                      -3.75000000E-01  2.50000000E-01  0.00000000E+00
                      -2.50000000E-01  2.50000000E-01  0.00000000E+00
                       3.75000000E-01  3.75000000E-01  0.00000000E+00
                       5.00000000E-01  3.75000000E-01  0.00000000E+00
                      -3.75000000E-01  3.75000000E-01  0.00000000E+00
                       5.00000000E-01  5.00000000E-01  0.00000000E+00
                       3.75000000E-01  2.50000000E-01  1.25000000E-01
                       5.00000000E-01  2.50000000E-01  1.25000000E-01
                      -3.75000000E-01  2.50000000E-01  1.25000000E-01
                       5.00000000E-01  3.75000000E-01  1.25000000E-01
                      -3.75000000E-01  3.75000000E-01  1.25000000E-01
                      -2.50000000E-01  3.75000000E-01  1.25000000E-01
                      -3.75000000E-01  5.00000000E-01  1.25000000E-01
                      -2.50000000E-01  5.00000000E-01  2.50000000E-01
         kptrlatt1       4    0    0      0    4    0      0    0    4
         kptrlatt2       8    0    0      0    8    0      0    0    8
          kptrlen1     2.16459528E+01
          kptrlen2     4.32919056E+01
P           mkmem1          8
P           mkmem2         29
            natom           1
            nband1         13
            nband2         13
           nbdbuf1          0
           nbdbuf2          2
           ndtset           2
            ngfft          12      12      12
             nkpt1          8
             nkpt2         29
             nsym          48
           ntypat           1
              occ1     2.000000  1.000000  0.000000  0.000000  0.000000  0.000000
                       0.000000  0.000000  0.000000  0.000000  0.000000  0.000000
                       0.000000
                       2.000000  1.000000  0.000000  0.000000  0.000000  0.000000
                       0.000000  0.000000  0.000000  0.000000  0.000000  0.000000
                       0.000000
                       2.000000  1.000000  0.000000  0.000000  0.000000  0.000000
                       0.000000  0.000000  0.000000  0.000000  0.000000  0.000000
                       0.000000
                       2.000000  1.000000  0.000000  0.000000  0.000000  0.000000
                       0.000000  0.000000  0.000000  0.000000  0.000000  0.000000
                       0.000000
                       2.000000  1.000000  0.000000  0.000000  0.000000  0.000000
                       0.000000  0.000000  0.000000  0.000000  0.000000  0.000000
                       0.000000
                       2.000000  1.000000  0.000000  0.000000  0.000000  0.000000
                       0.000000  0.000000  0.000000  0.000000  0.000000  0.000000
                       0.000000
                       2.000000  1.000000  0.000000  0.000000  0.000000  0.000000
                       0.000000  0.000000  0.000000  0.000000  0.000000  0.000000
                       0.000000
                       2.000000  1.000000  0.000000  0.000000  0.000000  0.000000
                       0.000000  0.000000  0.000000  0.000000  0.000000  0.000000
                       0.000000
              occ2     2.000000  1.000000  0.000000  0.000000  0.000000  0.000000
                       0.000000  0.000000  0.000000  0.000000  0.000000  0.000000
                       0.000000
                       2.000000  1.000000  0.000000  0.000000  0.000000  0.000000
                       0.000000  0.000000  0.000000  0.000000  0.000000  0.000000
                       0.000000
                       2.000000  1.000000  0.000000  0.000000  0.000000  0.000000
                       0.000000  0.000000  0.000000  0.000000  0.000000  0.000000
                       0.000000
                       2.000000  1.000000  0.000000  0.000000  0.000000  0.000000
                       0.000000  0.000000  0.000000  0.000000  0.000000  0.000000
                       0.000000
                       2.000000  1.000000  0.000000  0.000000  0.000000  0.000000
                       0.000000  0.000000  0.000000  0.000000  0.000000  0.000000
                       0.000000
                       2.000000  1.000000  0.000000  0.000000  0.000000  0.000000
                       0.000000  0.000000  0.000000  0.000000  0.000000  0.000000
                       0.000000
                       2.000000  1.000000  0.000000  0.000000  0.000000  0.000000
                       0.000000  0.000000  0.000000  0.000000  0.000000  0.000000
                       0.000000
                       2.000000  1.000000  0.000000  0.000000  0.000000  0.000000
                       0.000000  0.000000  0.000000  0.000000  0.000000  0.000000
                       0.000000
                       2.000000  1.000000  0.000000  0.000000  0.000000  0.000000
                       0.000000  0.000000  0.000000  0.000000  0.000000  0.000000
                       0.000000
                       2.000000  1.000000  0.000000  0.000000  0.000000  0.000000
                       0.000000  0.000000  0.000000  0.000000  0.000000  0.000000
                       0.000000
                       2.000000  1.000000  0.000000  0.000000  0.000000  0.000000
                       0.000000  0.000000  0.000000  0.000000  0.000000  0.000000
                       0.000000
                       2.000000  1.000000  0.000000  0.000000  0.000000  0.000000
                       0.000000  0.000000  0.000000  0.000000  0.000000  0.000000
                       0.000000
                       2.000000  1.000000  0.000000  0.000000  0.000000  0.000000
                       0.000000  0.000000  0.000000  0.000000  0.000000  0.000000
                       0.000000
                       2.000000  1.000000  0.000000  0.000000  0.000000  0.000000
                       0.000000  0.000000  0.000000  0.000000  0.000000  0.000000
                       0.000000
                       2.000000  1.000000  0.000000  0.000000  0.000000  0.000000
                       0.000000  0.000000  0.000000  0.000000  0.000000  0.000000
                       0.000000
                       2.000000  1.000000  0.000000  0.000000  0.000000  0.000000
                       0.000000  0.000000  0.000000  0.000000  0.000000  0.000000
                       0.000000
                       2.000000  1.000000  0.000000  0.000000  0.000000  0.000000
                       0.000000  0.000000  0.000000  0.000000  0.000000  0.000000
                       0.000000
                       2.000000  1.000000  0.000000  0.000000  0.000000  0.000000
                       0.000000  0.000000  0.000000  0.000000  0.000000  0.000000
                       0.000000
                       2.000000  1.000000  0.000000  0.000000  0.000000  0.000000
                       0.000000  0.000000  0.000000  0.000000  0.000000  0.000000
                       0.000000
                       2.000000  1.000000  0.000000  0.000000  0.000000  0.000000
                       0.000000  0.000000  0.000000  0.000000  0.000000  0.000000
                       0.000000
                       2.000000  1.000000  0.000000  0.000000  0.000000  0.000000
                       0.000000  0.000000  0.000000  0.000000  0.000000  0.000000
                       0.000000
                       2.000000  1.000000  0.000000  0.000000  0.000000  0.000000
                       0.000000  0.000000  0.000000  0.000000  0.000000  0.000000
                       0.000000
                       2.000000  1.000000  0.000000  0.000000  0.000000  0.000000
                       0.000000  0.000000  0.000000  0.000000  0.000000  0.000000
                       0.000000
                       2.000000  1.000000  0.000000  0.000000  0.000000  0.000000
                       0.000000  0.000000  0.000000  0.000000  0.000000  0.000000
                       0.000000
                       2.000000  1.000000  0.000000  0.000000  0.000000  0.000000
                       0.000000  0.000000  0.000000  0.000000  0.000000  0.000000
                       0.000000
                       2.000000  1.000000  0.000000  0.000000  0.000000  0.000000
                       0.000000  0.000000  0.000000  0.000000  0.000000  0.000000
                       0.000000
                       2.000000  1.000000  0.000000  0.000000  0.000000  0.000000
                       0.000000  0.000000  0.000000  0.000000  0.000000  0.000000
                       0.000000
                       2.000000  1.000000  0.000000  0.000000  0.000000  0.000000
                       0.000000  0.000000  0.000000  0.000000  0.000000  0.000000
                       0.000000
                       2.000000  1.000000  0.000000  0.000000  0.000000  0.000000
                       0.000000  0.000000  0.000000  0.000000  0.000000  0.000000
                       0.000000
           occopt           7
       prtbltztrp1          0
       prtbltztrp2          1
            rprim      0.0000000000E+00  5.0000000000E-01  5.0000000000E-01
                       5.0000000000E-01  0.0000000000E+00  5.0000000000E-01
                       5.0000000000E-01  5.0000000000E-01  0.0000000000E+00
          spgroup         225
           symrel      1  0  0   0  1  0   0  0  1      -1  0  0   0 -1  0   0  0 -1
                       0 -1  1   0 -1  0   1 -1  0       0  1 -1   0  1  0  -1  1  0
                      -1  0  0  -1  0  1  -1  1  0       1  0  0   1  0 -1   1 -1  0
                       0  1 -1   1  0 -1   0  0 -1       0 -1  1  -1  0  1   0  0  1
                      -1  0  0  -1  1  0  -1  0  1       1  0  0   1 -1  0   1  0 -1
                       0 -1  1   1 -1  0   0 -1  0       0  1 -1  -1  1  0   0  1  0
                       1  0  0   0  0  1   0  1  0      -1  0  0   0  0 -1   0 -1  0
                       0  1 -1   0  0 -1   1  0 -1       0 -1  1   0  0  1  -1  0  1
                      -1  0  1  -1  1  0  -1  0  0       1  0 -1   1 -1  0   1  0  0
                       0 -1  0   1 -1  0   0 -1  1       0  1  0  -1  1  0   0  1 -1
                       1  0 -1   0  0 -1   0  1 -1      -1  0  1   0  0  1   0 -1  1
                       0  1  0   0  0  1   1  0  0       0 -1  0   0  0 -1  -1  0  0
                       1  0 -1   0  1 -1   0  0 -1      -1  0  1   0 -1  1   0  0  1
                       0 -1  0   0 -1  1   1 -1  0       0  1  0   0  1 -1  -1  1  0
                      -1  0  1  -1  0  0  -1  1  0       1  0 -1   1  0  0   1 -1  0
                       0  1  0   1  0  0   0  0  1       0 -1  0  -1  0  0   0  0 -1
                       0  0 -1   0  1 -1   1  0 -1       0  0  1   0 -1  1  -1  0  1
                       1 -1  0   0 -1  1   0 -1  0      -1  1  0   0  1 -1   0  1  0
                       0  0  1   1  0  0   0  1  0       0  0 -1  -1  0  0   0 -1  0
                      -1  1  0  -1  0  0  -1  0  1       1 -1  0   1  0  0   1  0 -1
                       0  0  1   0  1  0   1  0  0       0  0 -1   0 -1  0  -1  0  0
                       1 -1  0   0 -1  0   0 -1  1      -1  1  0   0  1  0   0  1 -1
                       0  0 -1   1  0 -1   0  1 -1       0  0  1  -1  0  1   0 -1  1
                      -1  1  0  -1  0  1  -1  0  0       1 -1  0   1  0 -1   1  0  0
           toldfe1     1.00000000E-10 Hartree
           toldfe2     0.00000000E+00 Hartree
           tolwfr1     0.00000000E+00
           tolwfr2     1.00000000E-14
           tsmear      3.67493254E-03 Hartree
            typat      1
              wtk1       0.01563    0.12500    0.06250    0.09375    0.37500    0.18750
                         0.04688    0.09375
              wtk2       0.00195    0.01563    0.01563    0.01563    0.00781    0.01172
                         0.04688    0.04688    0.04688    0.04688    0.04688    0.02344
                         0.01172    0.04688    0.04688    0.04688    0.02344    0.01172
                         0.04688    0.02344    0.00586    0.04688    0.09375    0.04688
                         0.04688    0.09375    0.04688    0.02344    0.01172
            znucl       13.00000

================================================================================

 chkinp: Checking input parameters for consistency, jdtset=   1.

 chkinp: Checking input parameters for consistency, jdtset=   2.

================================================================================
== DATASET  1 ==================================================================
-   nproc =    1

 Exchange-correlation functional for the present dataset will be:
  LDA: new Teter (4/93) with spin-polarized option - ixc=1
 Citation for XC functional:
  S. Goedecker, M. Teter, J. Huetter, PRB 54, 1703 (1996)

 Real(R)+Recip(G) space primitive vectors, cartesian coordinates (Bohr,Bohr^-1):
 R(1)=  0.0000000  3.8265000  3.8265000  G(1)= -0.1306677  0.1306677  0.1306677
 R(2)=  3.8265000  0.0000000  3.8265000  G(2)=  0.1306677 -0.1306677  0.1306677
 R(3)=  3.8265000  3.8265000  0.0000000  G(3)=  0.1306677  0.1306677 -0.1306677
 Unit cell volume ucvol=  1.1205601E+02 bohr^3
 Angles (23,13,12)=  6.00000000E+01  6.00000000E+01  6.00000000E+01 degrees

 getcut: wavevector=  0.0000  0.0000  0.0000  ngfft=  12  12  12
         ecut(hartree)=      6.000   => boxcut(ratio)=   2.01105

--- Pseudopotential description ------------------------------------------------
- pspini: atom type   1  psp file is /home/gonze/ABINIT/ABINITv7.9.3/trunk/7.9.3-private/tests/Psps_for_tests/13al.pspnc
- pspatm: opening atomic psp file    /home/gonze/ABINIT/ABINITv7.9.3/trunk/7.9.3-private/tests/Psps_for_tests/13al.pspnc
-  Troullier-Martins psp for element  Al        Thu Oct 27 17:31:05 EDT 1994
- 13.00000   3.00000    940714                znucl, zion, pspdat
    1    1    2    2      2001   0.00000      pspcod,pspxc,lmax,lloc,mmax,r2well
    0   4.657  11.889    1   2.2761078        l,e99.0,e99.9,nproj,rcpsp
   0.00000000   0.00000000   0.00000000   0.00000000     rms, ekb1, ekb2, epsatm
    1   1.829   2.761    1   2.2761078        l,e99.0,e99.9,nproj,rcpsp
   0.00000000   0.00000000   0.00000000   0.00000000     rms, ekb1, ekb2, epsatm
    2   0.000   0.000    0   2.2761078        l,e99.0,e99.9,nproj,rcpsp
   0.00000000   0.00000000   0.00000000   0.00000000     rms, ekb1, ekb2, epsatm
    2.09673076353074    0.12648111154518    1.01742091001718   rchrg,fchrg,qchrg
 pspatm: epsatm=    0.22155260
         --- l  ekb(1:nproj) -->
             0    2.540658
             1    1.353815
 pspatm: atomic psp has been read  and splines computed

   6.64657794E-01                                ecore*ucvol(ha*bohr**3)
--------------------------------------------------------------------------------

P newkpt: treating     13 bands with npw=      33 for ikpt=   1 by node    0
P newkpt: treating     13 bands with npw=      74 for ikpt=   2 by node    0
P newkpt: treating     13 bands with npw=      38 for ikpt=   3 by node    0
P newkpt: treating     13 bands with npw=      76 for ikpt=   4 by node    0
P newkpt: treating     13 bands with npw=      80 for ikpt=   5 by node    0
P newkpt: treating     13 bands with npw=      79 for ikpt=   6 by node    0
P newkpt: treating     13 bands with npw=      40 for ikpt=   7 by node    0
P newkpt: treating     13 bands with npw=      84 for ikpt=   8 by node    0

_setup2: Arith. and geom. avg. npw (full set) are      78.578      78.511

================================================================================

     iter   Etot(hartree)      deltaE(h)  residm     vres2
 ETOT  1  -2.4226863669248    -2.423E+00 7.158E-03 5.346E-01
 ETOT  2  -2.4231783047185    -4.919E-04 3.337E-05 2.331E-02
 ETOT  3  -2.4232029106127    -2.461E-05 8.432E-06 3.190E-05
 ETOT  4  -2.4232029456861    -3.507E-08 1.546E-07 2.361E-07
 ETOT  5  -2.4232029459679    -2.818E-10 1.550E-08 1.114E-09
 ETOT  6  -2.4232029459694    -1.493E-12 1.017E-09 1.752E-12
 ETOT  7  -2.4232029459694     1.110E-14 1.727E-10 9.102E-15

 At SCF step    7, etot is converged : 
  for the second time, diff in etot=  1.110E-14 < toldfe=  1.000E-10

 Cartesian components of stress tensor (hartree/bohr^3)
  sigma(1 1)=  1.18763881E-04  sigma(3 2)=  0.00000000E+00
  sigma(2 2)=  1.18763881E-04  sigma(3 1)=  0.00000000E+00
  sigma(3 3)=  1.18763881E-04  sigma(2 1)=  0.00000000E+00

================================================================================

 ----iterations are completed or convergence reached----

 Mean square residual over all n,k,spin=   1.9197E-12; max=  1.7267E-10
   0.0000  0.0000  0.0000    1  3.52512E-16 kpt; spin; max resid(k); each band:
  3.37E-16 2.76E-20 2.76E-20 2.76E-20 2.27E-16 2.81E-16 9.10E-17 7.93E-19
  3.29E-19 6.52E-20 3.53E-16 2.97E-16 2.98E-16
   0.2500  0.0000  0.0000    1  3.25715E-16 kpt; spin; max resid(k); each band:
  3.26E-16 1.60E-16 1.03E-16 8.25E-17 2.86E-16 1.26E-16 1.23E-16 3.19E-16
  1.05E-16 1.54E-16 2.22E-16 2.44E-16 1.90E-16
   0.5000  0.0000  0.0000    1  2.50642E-16 kpt; spin; max resid(k); each band:
  2.26E-16 1.79E-17 1.28E-16 1.28E-16 3.62E-17 3.62E-17 1.80E-17 2.51E-16
  6.36E-17 6.36E-17 1.31E-16 1.29E-16 1.06E-16
   0.2500  0.2500  0.0000    1  2.48658E-16 kpt; spin; max resid(k); each band:
  2.40E-16 1.45E-16 1.45E-16 1.09E-16 1.69E-16 2.49E-16 2.41E-17 7.91E-17
  7.91E-17 1.34E-16 2.11E-16 1.93E-16 1.55E-16
   0.5000  0.2500  0.0000    1  6.32491E-15 kpt; spin; max resid(k); each band:
  2.97E-16 2.63E-16 1.77E-16 1.38E-16 2.37E-16 1.30E-16 1.56E-16 1.64E-16
  1.93E-16 6.38E-17 2.67E-16 1.84E-16 6.32E-15
  -0.2500  0.2500  0.0000    1  1.72666E-10 kpt; spin; max resid(k); each band:
  3.12E-16 1.31E-16 3.29E-16 1.24E-16 2.56E-16 5.69E-19 1.24E-16 9.10E-17
  2.90E-16 1.25E-16 2.05E-16 4.18E-16 1.73E-10
   0.5000  0.5000  0.0000    1  1.69994E-14 kpt; spin; max resid(k); each band:
  2.14E-17 2.30E-16 3.25E-18 3.68E-16 3.68E-16 2.30E-16 7.91E-18 6.63E-20
  4.22E-20 5.25E-16 3.71E-16 6.14E-15 1.70E-14
  -0.2500  0.5000  0.2500    1  2.20093E-11 kpt; spin; max resid(k); each band:
  1.00E-16 1.00E-16 1.60E-16 4.60E-16 2.73E-16 2.73E-16 1.33E-16 2.00E-16
  3.94E-19 1.67E-16 1.44E-12 2.20E-11 3.49E-12
 reduced coordinates (array xred) for    1 atoms
       0.000000000000      0.000000000000      0.000000000000
 rms dE/dt=  0.0000E+00; max dE/dt=  0.0000E+00; dE/dt below (all hartree)
    1       0.000000000000      0.000000000000      0.000000000000

 cartesian coordinates (angstrom) at end:
    1      0.00000000000000     0.00000000000000     0.00000000000000

 cartesian forces (hartree/bohr) at end:
    1     -0.00000000000000    -0.00000000000000    -0.00000000000000
 frms,max,avg= 0.0000000E+00 0.0000000E+00   0.000E+00  0.000E+00  0.000E+00 h/b

 cartesian forces (eV/Angstrom) at end:
    1     -0.00000000000000    -0.00000000000000    -0.00000000000000
 frms,max,avg= 0.0000000E+00 0.0000000E+00   0.000E+00  0.000E+00  0.000E+00 e/A
 length scales=  7.653000000000  7.653000000000  7.653000000000 bohr
              =  4.049793177339  4.049793177339  4.049793177339 angstroms
 prteigrs : about to open file t11o_DS1_EIG
 Fermi (or HOMO) energy (hartree) =   0.25568   Average Vxc (hartree)=  -0.37078
 Eigenvalues (hartree) for nkpt=   8  k points:
 kpt#   1, nband= 13, wtk=  0.01563, kpt=  0.0000  0.0000  0.0000 (reduced coord)
  -0.12680   0.75255   0.75255   0.75255   0.78126   0.78126   0.78126   0.89155
   1.00152   1.00152   1.07446   1.17888   1.17888
      occupation numbers for kpt#   1
   2.00000   0.00000   0.00000   0.00000   0.00000   0.00000   0.00000   0.00000
   0.00000   0.00000   0.00000   0.00000   0.00000
 kpt#   2, nband= 13, wtk=  0.12500, kpt=  0.2500  0.0000  0.0000 (reduced coord)
  -0.06489   0.40697   0.67767   0.67767   0.80291   0.82017   0.82017   0.96360
   0.97198   0.97198   1.17151   1.37569   1.46571
      occupation numbers for kpt#   2
   2.00000   0.00000   0.00000   0.00000   0.00000   0.00000   0.00000   0.00000
   0.00000   0.00000   0.00000   0.00000   0.00000
 kpt#   3, nband= 13, wtk=  0.06250, kpt=  0.5000  0.0000  0.0000 (reduced coord)
   0.11365   0.12000   0.68713   0.68713   0.70801   0.70801   0.82871   0.84047
   1.19683   1.19683   1.39809   1.39809   1.40874
      occupation numbers for kpt#   3
   2.00000   2.00000   0.00000   0.00000   0.00000   0.00000   0.00000   0.00000
   0.00000   0.00000   0.00000   0.00000   0.00000
 kpt#   4, nband= 13, wtk=  0.09375, kpt=  0.2500  0.2500  0.0000 (reduced coord)
  -0.04446   0.55278   0.55278   0.56268   0.58250   0.67373   1.07578   1.07624
   1.07624   1.24665   1.25483   1.29793   1.29793
      occupation numbers for kpt#   4
   2.00000   0.00000   0.00000   0.00000   0.00000   0.00000   0.00000   0.00000
   0.00000   0.00000   0.00000   0.00000   0.00000
 kpt#   5, nband= 13, wtk=  0.37500, kpt=  0.5000  0.2500  0.0000 (reduced coord)
   0.09643   0.25344   0.41405   0.53530   0.60069   0.86401   0.96428   1.06161
   1.18467   1.21712   1.41504   1.46959   1.53372
      occupation numbers for kpt#   5
   2.00000   1.61108   0.00000   0.00000   0.00000   0.00000   0.00000   0.00000
   0.00000   0.00000   0.00000   0.00000   0.00000
 kpt#   6, nband= 13, wtk=  0.18750, kpt= -0.2500  0.2500  0.0000 (reduced coord)
   0.03667   0.32726   0.37968   0.62414   0.69869   0.90900   0.91841   0.96108
   1.04734   1.21451   1.29833   1.37506   1.56482
      occupation numbers for kpt#   6
   2.00000   0.00000   0.00000   0.00000   0.00000   0.00000   0.00000   0.00000
   0.00000   0.00000   0.00000   0.00000   0.00000
 kpt#   7, nband= 13, wtk=  0.04688, kpt=  0.5000  0.5000  0.0000 (reduced coord)
   0.17428   0.22215   0.48109   0.48203   0.48203   0.60563   1.21659   1.27576
   1.27576   1.46859   1.46859   1.47888   1.49171
      occupation numbers for kpt#   7
   2.00000   2.00000   0.00000   0.00000   0.00000   0.00000   0.00000   0.00000
   0.00000   0.00000   0.00000   0.00000   0.00000
 kpt#   8, nband= 13, wtk=  0.09375, kpt= -0.2500  0.5000  0.2500 (reduced coord)
   0.25070   0.25070   0.28927   0.31554   0.86200   0.86200   0.86759   0.94698
   1.28532   1.46112   1.51708   1.51708   1.52388
      occupation numbers for kpt#   8
   1.94451   1.94451   0.00000   0.00000   0.00000   0.00000   0.00000   0.00000
   0.00000   0.00000   0.00000   0.00000   0.00000
 Total charge density [el/Bohr^3]
,     Maximum=    3.2481E-02  at reduced coord.    0.8333    0.8333    0.9167
,Next maximum=    3.2481E-02  at reduced coord.    0.4167    0.8333    0.9167
,     Minimum=    3.3043E-03  at reduced coord.    0.0000    0.0000    0.0000
,Next minimum=    6.6143E-03  at reduced coord.    0.0833    0.0000    0.0000
,  Integrated=    3.0000E+00

--------------------------------------------------------------------------------
 Components of total free energy (in Hartree) :

    Kinetic energy  =  8.51503646926563E-01
    Hartree energy  =  4.34956327073373E-03
    XC energy       = -1.20550311914040E+00
    Ewald energy    = -2.69592046694266E+00
    PspCore energy  =  5.93147839887427E-03
    Loc. psp. energy=  1.44816681151484E-01
    NL   psp  energy=  4.72217837689271E-01
    >>>>> Internal E= -2.42260437864614E+00

    -kT*entropy     = -5.98567323231667E-04
    >>>>>>>>> Etotal= -2.42320294596937E+00

 Other information on the energy :
    Total energy(eV)= -6.59387055334553E+01 ; Band energy (Ha)=   3.6845300761E-01
--------------------------------------------------------------------------------

 Cartesian components of stress tensor (hartree/bohr^3)
  sigma(1 1)=  1.18763881E-04  sigma(3 2)=  0.00000000E+00
  sigma(2 2)=  1.18763881E-04  sigma(3 1)=  0.00000000E+00
  sigma(3 3)=  1.18763881E-04  sigma(2 1)=  0.00000000E+00

-Cartesian components of stress tensor (GPa)         [Pressure= -3.4942E+00 GPa]
- sigma(1 1)=  3.49415344E+00  sigma(3 2)=  0.00000000E+00
- sigma(2 2)=  3.49415344E+00  sigma(3 1)=  0.00000000E+00
- sigma(3 3)=  3.49415344E+00  sigma(2 1)=  0.00000000E+00

================================================================================
== DATASET  2 ==================================================================
-   nproc =    1

 mkfilename : getden/=0, take file _DEN from output of DATASET   1.

 Exchange-correlation functional for the present dataset will be:
  LDA: new Teter (4/93) with spin-polarized option - ixc=1
 Citation for XC functional:
  S. Goedecker, M. Teter, J. Huetter, PRB 54, 1703 (1996)

 Real(R)+Recip(G) space primitive vectors, cartesian coordinates (Bohr,Bohr^-1):
 R(1)=  0.0000000  3.8265000  3.8265000  G(1)= -0.1306677  0.1306677  0.1306677
 R(2)=  3.8265000  0.0000000  3.8265000  G(2)=  0.1306677 -0.1306677  0.1306677
 R(3)=  3.8265000  3.8265000  0.0000000  G(3)=  0.1306677  0.1306677 -0.1306677
 Unit cell volume ucvol=  1.1205601E+02 bohr^3
 Angles (23,13,12)=  6.00000000E+01  6.00000000E+01  6.00000000E+01 degrees

 getcut: wavevector=  0.0000  0.0000  0.0000  ngfft=  12  12  12
         ecut(hartree)=      6.000   => boxcut(ratio)=   2.01105
--------------------------------------------------------------------------------

P newkpt: treating     13 bands with npw=      33 for ikpt=   1 by node    0
P newkpt: treating     13 bands with npw=      71 for ikpt=   2 by node    0
P newkpt: treating     13 bands with npw=      74 for ikpt=   3 by node    0
P newkpt: treating     13 bands with npw=      74 for ikpt=   4 by node    0
P newkpt: treating     13 bands with npw=      38 for ikpt=   5 by node    0
P newkpt: treating     13 bands with npw=      72 for ikpt=   6 by node    0
P newkpt: treating     13 bands with npw=      77 for ikpt=   7 by node    0
P newkpt: treating     13 bands with npw=      78 for ikpt=   8 by node    0
P newkpt: treating     13 bands with npw=      80 for ikpt=   9 by node    0
P newkpt: treating     13 bands with npw=      80 for ikpt=  10 by node    0
P newkpt: treating     13 bands with npw=      79 for ikpt=  11 by node    0
P newkpt: treating     13 bands with npw=      71 for ikpt=  12 by node    0
P newkpt: treating     13 bands with npw=      76 for ikpt=  13 by node    0
P newkpt: treating     13 bands with npw=      79 for ikpt=  14 by node    0
P newkpt: treating     13 bands with npw=      80 for ikpt=  15 by node    0
P newkpt: treating     13 bands with npw=      82 for ikpt=  16 by node    0
P newkpt: treating     13 bands with npw=      79 for ikpt=  17 by node    0
P newkpt: treating     13 bands with npw=      80 for ikpt=  18 by node    0
P newkpt: treating     13 bands with npw=      82 for ikpt=  19 by node    0
P newkpt: treating     13 bands with npw=      77 for ikpt=  20 by node    0
P newkpt: treating     13 bands with npw=      40 for ikpt=  21 by node    0
P newkpt: treating     13 bands with npw=      76 for ikpt=  22 by node    0
P newkpt: treating     13 bands with npw=      81 for ikpt=  23 by node    0
P newkpt: treating     13 bands with npw=      78 for ikpt=  24 by node    0
P newkpt: treating     13 bands with npw=      82 for ikpt=  25 by node    0
P newkpt: treating     13 bands with npw=      79 for ikpt=  26 by node    0
P newkpt: treating     13 bands with npw=      78 for ikpt=  27 by node    0
P newkpt: treating     13 bands with npw=      80 for ikpt=  28 by node    0
P newkpt: treating     13 bands with npw=      84 for ikpt=  29 by node    0


================================================================================

     iter   Etot(hartree)      deltaE(h)  residm     vres2
 prteigrs : about to open file t11o_DS2_EIG
 Non-SCF case, kpt    1 (  0.00000  0.00000  0.00000), residuals and eigenvalues=
  5.63E-16  2.59E-15  3.79E-15  3.71E-15  2.10E-15  8.91E-15  2.43E-15  6.78E-15
  8.88E-15  6.94E-16  8.11E-15  4.29E-15  5.04E-15
 -1.2680E-01  7.5255E-01  7.5255E-01  7.5255E-01  7.8126E-01  7.8126E-01
  7.8126E-01  8.9155E-01  1.0015E+00  1.0015E+00  1.0745E+00  1.1789E+00
  1.1789E+00
 Non-SCF case, kpt    2 (  0.12500  0.00000  0.00000), residuals and eigenvalues=
  5.33E-16  2.17E-16  7.85E-15  1.12E-15  4.19E-16  1.34E-15  8.28E-15  1.80E-15
  1.07E-15  7.73E-16  1.53E-15  3.27E-09  3.67E-15
 -1.1128E-01  5.8557E-01  7.0781E-01  7.0781E-01  8.1425E-01  8.4531E-01
  8.4531E-01  9.3515E-01  9.3515E-01  1.0134E+00  1.0439E+00  1.2126E+00
  1.2806E+00
  prteigrs : nnsclo,ikpt=   30    2 max resid (incl. the buffer)=  3.27371E-09
 Non-SCF case, kpt    3 (  0.25000  0.00000  0.00000), residuals and eigenvalues=
  7.55E-15  7.32E-15  1.82E-15  3.88E-15  3.61E-15  4.62E-15  1.67E-15  5.66E-15
  1.43E-15  3.85E-16  4.51E-15  8.57E-10  5.96E-12
 -6.4890E-02  4.0697E-01  6.7767E-01  6.7767E-01  8.0291E-01  8.2017E-01
  8.2017E-01  9.6360E-01  9.7198E-01  9.7198E-01  1.1715E+00  1.3757E+00
  1.4657E+00
  prteigrs : nnsclo,ikpt=   30    3 max resid (incl. the buffer)=  8.57157E-10
 Non-SCF case, kpt    4 (  0.37500  0.00000  0.00000), residuals and eigenvalues=
  1.42E-15  5.46E-15  8.94E-16  1.50E-15  2.56E-15  2.26E-15  2.61E-15  2.31E-15
  3.11E-15  3.90E-15  8.66E-15  7.98E-09  2.61E-08
  1.1525E-02  2.4935E-01  6.7333E-01  6.7333E-01  7.4817E-01  7.4817E-01
  8.0622E-01  8.8886E-01  1.1006E+00  1.1006E+00  1.3103E+00  1.5172E+00
  1.5172E+00
  prteigrs : nnsclo,ikpt=   30    4 max resid (incl. the buffer)=  2.61112E-08
 Non-SCF case, kpt    5 (  0.50000  0.00000  0.00000), residuals and eigenvalues=
  4.67E-15  2.65E-16  1.18E-15  8.03E-16  3.60E-15  2.21E-15  3.46E-15  4.10E-15
  7.06E-15  4.42E-15  5.79E-15  1.85E-14  2.47E-15
  1.1365E-01  1.2000E-01  6.8713E-01  6.8713E-01  7.0801E-01  7.0801E-01
  8.2871E-01  8.4047E-01  1.1968E+00  1.1968E+00  1.3981E+00  1.3981E+00
  1.4087E+00
  prteigrs : nnsclo,ikpt=   30    5 max resid (incl. the buffer)=  1.84904E-14
 Non-SCF case, kpt    6 (  0.12500  0.12500  0.00000), residuals and eigenvalues=
  7.08E-16  1.24E-15  2.67E-15  3.87E-16  3.88E-16  7.07E-15  7.99E-15  4.60E-16
  3.86E-15  7.66E-15  2.58E-15  7.39E-13  7.44E-13
 -1.0611E-01  6.4140E-01  6.4140E-01  6.6088E-01  7.3933E-01  8.2152E-01
  9.1889E-01  9.1889E-01  1.0195E+00  1.0240E+00  1.1269E+00  1.2051E+00
  1.2051E+00
  prteigrs : nnsclo,ikpt=   30    6 max resid (incl. the buffer)=  7.43571E-13
 Non-SCF case, kpt    7 (  0.25000  0.12500  0.00000), residuals and eigenvalues=
  1.83E-15  1.69E-16  2.97E-16  2.28E-16  7.41E-15  1.95E-15  2.01E-15  4.24E-15
  1.76E-15  5.06E-15  5.22E-15  5.37E-10  2.32E-11
 -7.0060E-02  4.7516E-01  6.0169E-01  6.6154E-01  7.0246E-01  7.9300E-01
  9.3737E-01  9.4505E-01  1.0371E+00  1.0796E+00  1.1784E+00  1.3255E+00
  1.3265E+00
  prteigrs : nnsclo,ikpt=   30    7 max resid (incl. the buffer)=  5.37203E-10
 Non-SCF case, kpt    8 (  0.37500  0.12500  0.00000), residuals and eigenvalues=
  1.17E-15  2.72E-16  2.36E-16  2.88E-16  5.88E-15  1.90E-15  1.43E-15  4.99E-15
  5.71E-16  2.99E-15  9.16E-15  2.62E-09  3.04E-06
 -3.7106E-03  3.1154E-01  5.8870E-01  6.1711E-01  6.5355E-01  8.7436E-01
  8.9522E-01  9.4938E-01  1.0066E+00  1.1501E+00  1.3242E+00  1.4853E+00
  1.5306E+00
  prteigrs : nnsclo,ikpt=   30    8 max resid (incl. the buffer)=  3.03632E-06
 Non-SCF case, kpt    9 (  0.50000  0.12500  0.00000), residuals and eigenvalues=
  2.39E-16  8.01E-16  2.65E-16  1.72E-16  6.83E-16  2.54E-16  4.49E-15  1.04E-15
  5.89E-15  6.46E-15  2.07E-15  6.82E-15  4.17E-15
  9.1680E-02  1.7117E-01  5.5731E-01  6.0218E-01  6.6941E-01  8.1853E-01
  9.1018E-01  9.6936E-01  1.0726E+00  1.2010E+00  1.3993E+00  1.4182E+00
  1.4605E+00
 Non-SCF case, kpt   10 ( -0.37500  0.12500  0.00000), residuals and eigenvalues=
  1.35E-15  3.23E-15  7.55E-15  1.20E-15  1.74E-15  2.75E-15  1.63E-15  8.90E-15
  2.68E-15  5.22E-15  2.14E-15  4.00E-13  2.45E-08
  5.6784E-02  2.1494E-01  5.2493E-01  6.4194E-01  7.1254E-01  7.8818E-01
  8.8504E-01  9.9961E-01  1.0708E+00  1.1417E+00  1.3403E+00  1.4505E+00
  1.5571E+00
  prteigrs : nnsclo,ikpt=   30   10 max resid (incl. the buffer)=  2.44703E-08
 Non-SCF case, kpt   11 ( -0.25000  0.12500  0.00000), residuals and eigenvalues=
  1.35E-15  5.23E-15  1.63E-16  7.03E-16  1.55E-15  7.94E-16  1.55E-15  9.35E-15
  7.54E-16  1.78E-15  3.27E-15  2.21E-10  5.06E-09
 -2.9141E-02  3.6291E-01  5.2107E-01  7.0634E-01  7.8112E-01  7.8512E-01
  8.7206E-01  9.2947E-01  1.0088E+00  1.0905E+00  1.2861E+00  1.4115E+00
  1.4647E+00
  prteigrs : nnsclo,ikpt=   30   11 max resid (incl. the buffer)=  5.06241E-09
 Non-SCF case, kpt   12 ( -0.12500  0.12500  0.00000), residuals and eigenvalues=
  3.71E-16  2.25E-15  7.91E-17  1.20E-15  6.42E-16  1.96E-15  3.98E-16  3.73E-16
  3.74E-15  6.80E-15  8.65E-15  1.07E-13  1.78E-12
 -8.5452E-02  5.1838E-01  5.5933E-01  7.8100E-01  7.9266E-01  8.4651E-01
  8.5767E-01  8.6883E-01  9.2745E-01  1.1289E+00  1.1305E+00  1.2482E+00
  1.2935E+00
  prteigrs : nnsclo,ikpt=   30   12 max resid (incl. the buffer)=  1.78224E-12
 Non-SCF case, kpt   13 (  0.25000  0.25000  0.00000), residuals and eigenvalues=
  2.12E-15  1.46E-15  2.92E-15  4.00E-16  2.02E-15  6.78E-16  4.38E-15  9.94E-16
  8.97E-15  9.81E-15  2.65E-15  4.89E-15  2.49E-15
 -4.4457E-02  5.5278E-01  5.5278E-01  5.6268E-01  5.8250E-01  6.7373E-01
  1.0758E+00  1.0762E+00  1.0762E+00  1.2466E+00  1.2548E+00  1.2979E+00
  1.2979E+00
 Non-SCF case, kpt   14 (  0.37500  0.25000  0.00000), residuals and eigenvalues=
  9.47E-17  3.52E-16  5.51E-16  9.53E-16  2.84E-16  4.54E-15  3.11E-15  1.02E-15
  1.00E-15  1.73E-15  5.43E-15  1.20E-13  8.82E-11
  1.1405E-02  3.9938E-01  4.8459E-01  5.3074E-01  5.8914E-01  7.2846E-01
  1.0230E+00  1.0954E+00  1.1967E+00  1.2055E+00  1.3918E+00  1.4350E+00
  1.4706E+00
  prteigrs : nnsclo,ikpt=   30   14 max resid (incl. the buffer)=  8.81806E-11
 Non-SCF case, kpt   15 (  0.50000  0.25000  0.00000), residuals and eigenvalues=
  5.01E-16  4.22E-15  1.66E-15  2.24E-16  5.13E-16  1.32E-15  6.62E-15  5.20E-15
  2.98E-15  4.93E-15  2.99E-15  4.51E-12  4.10E-10
  9.6432E-02  2.5344E-01  4.1405E-01  5.3530E-01  6.0069E-01  8.6401E-01
  9.6428E-01  1.0616E+00  1.1847E+00  1.2171E+00  1.4150E+00  1.4696E+00
  1.5337E+00
  prteigrs : nnsclo,ikpt=   30   15 max resid (incl. the buffer)=  4.10473E-10
 Non-SCF case, kpt   16 ( -0.37500  0.25000  0.00000), residuals and eigenvalues=
  1.45E-15  1.82E-16  3.22E-15  4.02E-16  3.37E-15  6.78E-15  4.74E-16  2.98E-15
  1.07E-15  8.88E-15  3.82E-15  1.90E-09  8.96E-06
  1.3126E-01  2.0862E-01  3.7271E-01  5.6643E-01  6.3638E-01  9.2638E-01
  9.9001E-01  1.0412E+00  1.0668E+00  1.1791E+00  1.3051E+00  1.5185E+00
  1.6112E+00
  prteigrs : nnsclo,ikpt=   30   16 max resid (incl. the buffer)=  8.96435E-06
 Non-SCF case, kpt   17 ( -0.25000  0.25000  0.00000), residuals and eigenvalues=
  9.63E-15  4.00E-15  5.42E-15  2.99E-15  2.28E-15  1.38E-15  1.73E-15  4.60E-16
  1.64E-15  6.87E-15  2.11E-15  1.76E-14  1.18E-06
  3.6673E-02  3.2726E-01  3.7968E-01  6.2414E-01  6.9869E-01  9.0900E-01
  9.1841E-01  9.6108E-01  1.0473E+00  1.2145E+00  1.2983E+00  1.3751E+00
  1.5648E+00
  prteigrs : nnsclo,ikpt=   30   17 max resid (incl. the buffer)=  1.17515E-06
 Non-SCF case, kpt   18 (  0.37500  0.37500  0.00000), residuals and eigenvalues=
  2.07E-16  4.91E-16  5.55E-16  2.20E-15  5.48E-16  2.24E-15  5.51E-15  1.21E-15
  3.41E-15  5.22E-15  8.63E-15  2.54E-12  3.03E-08
  5.6504E-02  3.7539E-01  4.9967E-01  4.9967E-01  5.0181E-01  6.2283E-01
  1.1564E+00  1.2054E+00  1.2054E+00  1.3944E+00  1.4663E+00  1.4663E+00
  1.4960E+00
  prteigrs : nnsclo,ikpt=   30   18 max resid (incl. the buffer)=  3.02885E-08
 Non-SCF case, kpt   19 (  0.50000  0.37500  0.00000), residuals and eigenvalues=
  7.25E-15  8.06E-15  7.95E-15  2.31E-16  2.04E-15  1.83E-15  9.44E-15  4.17E-15
  1.26E-15  3.53E-15  4.16E-15  7.66E-14  8.51E-07
  1.2995E-01  2.9457E-01  3.6192E-01  4.9532E-01  5.5058E-01  6.9451E-01
  1.1257E+00  1.1979E+00  1.2380E+00  1.3872E+00  1.4789E+00  1.4929E+00
  1.5731E+00
  prteigrs : nnsclo,ikpt=   30   19 max resid (incl. the buffer)=  8.51198E-07
 Non-SCF case, kpt   20 ( -0.37500  0.37500  0.00000), residuals and eigenvalues=
  2.13E-15  2.17E-15  5.54E-15  8.35E-17  7.56E-15  1.37E-15  8.67E-15  5.54E-15
  8.69E-15  8.26E-15  5.93E-15  6.85E-15  2.16E-07
  2.1248E-01  2.3219E-01  2.6466E-01  5.1765E-01  5.8209E-01  8.4982E-01
  1.0761E+00  1.1000E+00  1.1263E+00  1.2836E+00  1.4815E+00  1.4868E+00
  1.6249E+00
  prteigrs : nnsclo,ikpt=   30   20 max resid (incl. the buffer)=  2.16394E-07
 Non-SCF case, kpt   21 (  0.50000  0.50000  0.00000), residuals and eigenvalues=
  5.10E-16  4.37E-16  4.78E-16  4.00E-15  3.86E-15  1.32E-15  2.75E-15  4.02E-15
  1.81E-15  6.23E-15  4.13E-15  1.67E-15  6.68E-15
  1.7428E-01  2.2215E-01  4.8109E-01  4.8203E-01  4.8203E-01  6.0563E-01
  1.2166E+00  1.2758E+00  1.2758E+00  1.4686E+00  1.4686E+00  1.4789E+00
  1.4917E+00
 Non-SCF case, kpt   22 (  0.37500  0.25000  0.12500), residuals and eigenvalues=
  9.16E-15  4.04E-16  2.31E-15  2.70E-15  4.85E-15  1.35E-15  1.06E-15  2.61E-15
  3.38E-15  8.96E-16  2.60E-15  3.73E-11  2.16E-10
 -2.4039E-02  4.2314E-01  4.7064E-01  5.9982E-01  7.2845E-01  7.8069E-01
  9.0081E-01  1.0204E+00  1.0769E+00  1.1981E+00  1.2454E+00  1.4141E+00
  1.4221E+00
  prteigrs : nnsclo,ikpt=   30   22 max resid (incl. the buffer)=  2.15762E-10
 Non-SCF case, kpt   23 (  0.50000  0.25000  0.12500), residuals and eigenvalues=
  1.19E-16  1.44E-16  1.43E-15  2.71E-16  4.33E-15  1.14E-15  3.51E-15  7.63E-15
  7.52E-15  7.60E-16  1.86E-15  1.09E-13  1.06E-07
  5.1695E-02  2.8605E-01  4.4735E-01  5.2160E-01  7.4664E-01  8.2230E-01
  8.9831E-01  1.0425E+00  1.1409E+00  1.1670E+00  1.3450E+00  1.4491E+00
  1.5414E+00
  prteigrs : nnsclo,ikpt=   30   23 max resid (incl. the buffer)=  1.06469E-07
 Non-SCF case, kpt   24 ( -0.37500  0.25000  0.12500), residuals and eigenvalues=
  4.27E-16  7.77E-15  2.01E-15  2.40E-15  9.28E-15  3.56E-16  2.25E-15  3.85E-15
  2.24E-15  6.64E-15  1.44E-15  5.88E-14  2.06E-08
  1.5217E-01  1.5980E-01  4.6461E-01  4.7546E-01  7.6220E-01  7.8578E-01
  1.0156E+00  1.0334E+00  1.1215E+00  1.1234E+00  1.3883E+00  1.4376E+00
  1.6088E+00
  prteigrs : nnsclo,ikpt=   30   24 max resid (incl. the buffer)=  2.06049E-08
 Non-SCF case, kpt   25 (  0.50000  0.37500  0.12500), residuals and eigenvalues=
  1.69E-16  1.17E-16  2.55E-15  3.59E-15  1.12E-15  2.87E-15  3.30E-16  1.82E-15
  1.16E-15  5.06E-15  3.92E-15  3.09E-15  4.56E-06
  7.6492E-02  3.6575E-01  3.9182E-01  4.1843E-01  6.7276E-01  7.3541E-01
  9.8629E-01  1.1923E+00  1.1944E+00  1.3210E+00  1.4034E+00  1.4229E+00
  1.5567E+00
  prteigrs : nnsclo,ikpt=   30   25 max resid (incl. the buffer)=  4.56025E-06
 Non-SCF case, kpt   26 ( -0.37500  0.37500  0.12500), residuals and eigenvalues=
  9.31E-16  4.10E-16  1.77E-15  6.54E-15  1.10E-15  1.05E-15  6.96E-15  4.90E-16
  2.76E-15  2.16E-15  8.46E-15  2.69E-12  3.08E-07
  1.6914E-01  2.4724E-01  3.3390E-01  4.1117E-01  7.1319E-01  8.5945E-01
  9.3505E-01  1.0674E+00  1.2089E+00  1.3261E+00  1.4332E+00  1.4941E+00
  1.5874E+00
  prteigrs : nnsclo,ikpt=   30   26 max resid (incl. the buffer)=  3.07727E-07
 Non-SCF case, kpt   27 ( -0.25000  0.37500  0.12500), residuals and eigenvalues=
  9.52E-15  2.00E-15  7.31E-17  5.39E-15  3.77E-15  2.07E-15  2.00E-15  5.64E-16
  1.15E-15  1.97E-15  1.91E-15  6.60E-15  1.14E-07
  1.3605E-01  2.6991E-01  3.2171E-01  4.5197E-01  7.5610E-01  8.8050E-01
  9.1518E-01  1.0388E+00  1.1552E+00  1.2704E+00  1.4073E+00  1.4080E+00
  1.6258E+00
  prteigrs : nnsclo,ikpt=   30   27 max resid (incl. the buffer)=  1.13925E-07
 Non-SCF case, kpt   28 ( -0.37500  0.50000  0.12500), residuals and eigenvalues=
  6.52E-15  2.58E-15  1.03E-16  7.53E-15  7.31E-16  2.82E-15  6.22E-16  2.89E-15
  2.45E-15  4.73E-15  3.40E-15  8.76E-14  2.59E-05
  1.9334E-01  2.4179E-01  3.4679E-01  3.9741E-01  6.5404E-01  7.1940E-01
  1.0986E+00  1.1088E+00  1.2819E+00  1.4430E+00  1.4826E+00  1.5024E+00
  1.5759E+00
  prteigrs : nnsclo,ikpt=   30   28 max resid (incl. the buffer)=  2.58837E-05
 Non-SCF case, kpt   29 ( -0.25000  0.50000  0.25000), residuals and eigenvalues=
  7.85E-16  5.33E-16  4.83E-16  1.91E-15  8.10E-16  7.60E-16  6.44E-15  8.41E-16
  7.96E-16  8.64E-15  6.91E-15  5.19E-14  7.93E-15
  2.5070E-01  2.5070E-01  2.8927E-01  3.1554E-01  8.6200E-01  8.6200E-01
  8.6759E-01  9.4698E-01  1.2853E+00  1.4611E+00  1.5171E+00  1.5171E+00
  1.5239E+00
  prteigrs : nnsclo,ikpt=   30   29 max resid (incl. the buffer)=  5.19195E-14
================================================================================

 ----iterations are completed or convergence reached----

 Mean square residual over all n,k,spin=   1.2027E-07; max=  8.9644E-06
   0.0000  0.0000  0.0000    1  8.91110E-15 kpt; spin; max resid(k); each band:
  5.63E-16 2.59E-15 3.79E-15 3.71E-15 2.10E-15 8.91E-15 2.43E-15 6.78E-15
  8.88E-15 6.94E-16 8.11E-15 4.29E-15 5.04E-15
   0.1250  0.0000  0.0000    1  3.27371E-09 kpt; spin; max resid(k); each band:
  5.33E-16 2.17E-16 7.85E-15 1.12E-15 4.19E-16 1.34E-15 8.28E-15 1.80E-15
  1.07E-15 7.73E-16 1.53E-15 3.27E-09 3.67E-15
   0.2500  0.0000  0.0000    1  8.57157E-10 kpt; spin; max resid(k); each band:
  7.55E-15 7.32E-15 1.82E-15 3.88E-15 3.61E-15 4.62E-15 1.67E-15 5.66E-15
  1.43E-15 3.85E-16 4.51E-15 8.57E-10 5.96E-12
   0.3750  0.0000  0.0000    1  2.61112E-08 kpt; spin; max resid(k); each band:
  1.42E-15 5.46E-15 8.94E-16 1.50E-15 2.56E-15 2.26E-15 2.61E-15 2.31E-15
  3.11E-15 3.90E-15 8.66E-15 7.98E-09 2.61E-08
   0.5000  0.0000  0.0000    1  1.84904E-14 kpt; spin; max resid(k); each band:
  4.67E-15 2.65E-16 1.18E-15 8.03E-16 3.60E-15 2.21E-15 3.46E-15 4.10E-15
  7.06E-15 4.42E-15 5.79E-15 1.85E-14 2.47E-15
   0.1250  0.1250  0.0000    1  7.43571E-13 kpt; spin; max resid(k); each band:
  7.08E-16 1.24E-15 2.67E-15 3.87E-16 3.88E-16 7.07E-15 7.99E-15 4.60E-16
  3.86E-15 7.66E-15 2.58E-15 7.39E-13 7.44E-13
   0.2500  0.1250  0.0000    1  5.37203E-10 kpt; spin; max resid(k); each band:
  1.83E-15 1.69E-16 2.97E-16 2.28E-16 7.41E-15 1.95E-15 2.01E-15 4.24E-15
  1.76E-15 5.06E-15 5.22E-15 5.37E-10 2.32E-11
   0.3750  0.1250  0.0000    1  3.03632E-06 kpt; spin; max resid(k); each band:
  1.17E-15 2.72E-16 2.36E-16 2.88E-16 5.88E-15 1.90E-15 1.43E-15 4.99E-15
  5.71E-16 2.99E-15 9.16E-15 2.62E-09 3.04E-06
   0.5000  0.1250  0.0000    1  6.81908E-15 kpt; spin; max resid(k); each band:
  2.39E-16 8.01E-16 2.65E-16 1.72E-16 6.83E-16 2.54E-16 4.49E-15 1.04E-15
  5.89E-15 6.46E-15 2.07E-15 6.82E-15 4.17E-15
  -0.3750  0.1250  0.0000    1  2.44703E-08 kpt; spin; max resid(k); each band:
  1.35E-15 3.23E-15 7.55E-15 1.20E-15 1.74E-15 2.75E-15 1.63E-15 8.90E-15
  2.68E-15 5.22E-15 2.14E-15 4.00E-13 2.45E-08
  -0.2500  0.1250  0.0000    1  5.06241E-09 kpt; spin; max resid(k); each band:
  1.35E-15 5.23E-15 1.63E-16 7.03E-16 1.55E-15 7.94E-16 1.55E-15 9.35E-15
  7.54E-16 1.78E-15 3.27E-15 2.21E-10 5.06E-09
  -0.1250  0.1250  0.0000    1  1.78224E-12 kpt; spin; max resid(k); each band:
  3.71E-16 2.25E-15 7.91E-17 1.20E-15 6.42E-16 1.96E-15 3.98E-16 3.73E-16
  3.74E-15 6.80E-15 8.65E-15 1.07E-13 1.78E-12
   0.2500  0.2500  0.0000    1  9.80684E-15 kpt; spin; max resid(k); each band:
  2.12E-15 1.46E-15 2.92E-15 4.00E-16 2.02E-15 6.78E-16 4.38E-15 9.94E-16
  8.97E-15 9.81E-15 2.65E-15 4.89E-15 2.49E-15
   0.3750  0.2500  0.0000    1  8.81806E-11 kpt; spin; max resid(k); each band:
  9.47E-17 3.52E-16 5.51E-16 9.53E-16 2.84E-16 4.54E-15 3.11E-15 1.02E-15
  1.00E-15 1.73E-15 5.43E-15 1.20E-13 8.82E-11
   0.5000  0.2500  0.0000    1  4.10473E-10 kpt; spin; max resid(k); each band:
  5.01E-16 4.22E-15 1.66E-15 2.24E-16 5.13E-16 1.32E-15 6.62E-15 5.20E-15
  2.98E-15 4.93E-15 2.99E-15 4.51E-12 4.10E-10
  -0.3750  0.2500  0.0000    1  8.96435E-06 kpt; spin; max resid(k); each band:
  1.45E-15 1.82E-16 3.22E-15 4.02E-16 3.37E-15 6.78E-15 4.74E-16 2.98E-15
  1.07E-15 8.88E-15 3.82E-15 1.90E-09 8.96E-06
  -0.2500  0.2500  0.0000    1  1.17515E-06 kpt; spin; max resid(k); each band:
  9.63E-15 4.00E-15 5.42E-15 2.99E-15 2.28E-15 1.38E-15 1.73E-15 4.60E-16
  1.64E-15 6.87E-15 2.11E-15 1.76E-14 1.18E-06
   0.3750  0.3750  0.0000    1  3.02885E-08 kpt; spin; max resid(k); each band:
  2.07E-16 4.91E-16 5.55E-16 2.20E-15 5.48E-16 2.24E-15 5.51E-15 1.21E-15
  3.41E-15 5.22E-15 8.63E-15 2.54E-12 3.03E-08
   0.5000  0.3750  0.0000    1  8.51198E-07 kpt; spin; max resid(k); each band:
  7.25E-15 8.06E-15 7.95E-15 2.31E-16 2.04E-15 1.83E-15 9.44E-15 4.17E-15
  1.26E-15 3.53E-15 4.16E-15 7.66E-14 8.51E-07
  -0.3750  0.3750  0.0000    1  2.16394E-07 kpt; spin; max resid(k); each band:
  2.13E-15 2.17E-15 5.54E-15 8.35E-17 7.56E-15 1.37E-15 8.67E-15 5.54E-15
  8.69E-15 8.26E-15 5.93E-15 6.85E-15 2.16E-07
   0.5000  0.5000  0.0000    1  6.67936E-15 kpt; spin; max resid(k); each band:
  5.10E-16 4.37E-16 4.78E-16 4.00E-15 3.86E-15 1.32E-15 2.75E-15 4.02E-15
  1.81E-15 6.23E-15 4.13E-15 1.67E-15 6.68E-15
   0.3750  0.2500  0.1250    1  2.15762E-10 kpt; spin; max resid(k); each band:
  9.16E-15 4.04E-16 2.31E-15 2.70E-15 4.85E-15 1.35E-15 1.06E-15 2.61E-15
  3.38E-15 8.96E-16 2.60E-15 3.73E-11 2.16E-10
   0.5000  0.2500  0.1250    1  1.06469E-07 kpt; spin; max resid(k); each band:
  1.19E-16 1.44E-16 1.43E-15 2.71E-16 4.33E-15 1.14E-15 3.51E-15 7.63E-15
  7.52E-15 7.60E-16 1.86E-15 1.09E-13 1.06E-07
  -0.3750  0.2500  0.1250    1  2.06049E-08 kpt; spin; max resid(k); each band:
  4.27E-16 7.77E-15 2.01E-15 2.40E-15 9.28E-15 3.56E-16 2.25E-15 3.85E-15
  2.24E-15 6.64E-15 1.44E-15 5.88E-14 2.06E-08
   0.5000  0.3750  0.1250    1  4.56025E-06 kpt; spin; max resid(k); each band:
  1.69E-16 1.17E-16 2.55E-15 3.59E-15 1.12E-15 2.87E-15 3.30E-16 1.82E-15
  1.16E-15 5.06E-15 3.92E-15 3.09E-15 4.56E-06
  -0.3750  0.3750  0.1250    1  3.07727E-07 kpt; spin; max resid(k); each band:
  9.31E-16 4.10E-16 1.77E-15 6.54E-15 1.10E-15 1.05E-15 6.96E-15 4.90E-16
  2.76E-15 2.16E-15 8.46E-15 2.69E-12 3.08E-07
  -0.2500  0.3750  0.1250    1  1.13925E-07 kpt; spin; max resid(k); each band:
  9.52E-15 2.00E-15 7.31E-17 5.39E-15 3.77E-15 2.07E-15 2.00E-15 5.64E-16
  1.15E-15 1.97E-15 1.91E-15 6.60E-15 1.14E-07
  -0.3750  0.5000  0.1250    1  2.58837E-05 kpt; spin; max resid(k); each band:
  6.52E-15 2.58E-15 1.03E-16 7.53E-15 7.31E-16 2.82E-15 6.22E-16 2.89E-15
  2.45E-15 4.73E-15 3.40E-15 8.76E-14 2.59E-05
  -0.2500  0.5000  0.2500    1  5.19195E-14 kpt; spin; max resid(k); each band:
  7.85E-16 5.33E-16 4.83E-16 1.91E-15 8.10E-16 7.60E-16 6.44E-15 8.41E-16
  7.96E-16 8.64E-15 6.91E-15 5.19E-14 7.93E-15
 reduced coordinates (array xred) for    1 atoms
       0.000000000000      0.000000000000      0.000000000000

 cartesian coordinates (angstrom) at end:
    1      0.00000000000000     0.00000000000000     0.00000000000000
 length scales=  7.653000000000  7.653000000000  7.653000000000 bohr
              =  4.049793177339  4.049793177339  4.049793177339 angstroms
 prteigrs : about to open file t11o_DS2_EIG
 Eigenvalues (hartree) for nkpt=  29  k points:
 kpt#   1, nband= 13, wtk=  0.00195, kpt=  0.0000  0.0000  0.0000 (reduced coord)
  -0.12680   0.75255   0.75255   0.75255   0.78126   0.78126   0.78126   0.89155
   1.00152   1.00152   1.07446   1.17888   1.17888
      occupation numbers for kpt#   1
   2.00000   0.00000   0.00000   0.00000   0.00000   0.00000   0.00000   0.00000
   0.00000   0.00000   0.00000   0.00000   0.00000
 kpt#   2, nband= 13, wtk=  0.01563, kpt=  0.1250  0.0000  0.0000 (reduced coord)
  -0.11128   0.58557   0.70781   0.70781   0.81425   0.84531   0.84531   0.93515
   0.93515   1.01343   1.04385   1.21259   1.28059
      occupation numbers for kpt#   2
   2.00000   0.00000   0.00000   0.00000   0.00000   0.00000   0.00000   0.00000
   0.00000   0.00000   0.00000   0.00000   0.00000
 kpt#   3, nband= 13, wtk=  0.01563, kpt=  0.2500  0.0000  0.0000 (reduced coord)
  -0.06489   0.40697   0.67767   0.67767   0.80291   0.82017   0.82017   0.96360
   0.97198   0.97198   1.17151   1.37569   1.46571
      occupation numbers for kpt#   3
   2.00000   0.00000   0.00000   0.00000   0.00000   0.00000   0.00000   0.00000
   0.00000   0.00000   0.00000   0.00000   0.00000
 kpt#   4, nband= 13, wtk=  0.01563, kpt=  0.3750  0.0000  0.0000 (reduced coord)
   0.01153   0.24935   0.67333   0.67333   0.74817   0.74817   0.80622   0.88886
   1.10063   1.10063   1.31034   1.51718   1.51718
      occupation numbers for kpt#   4
   2.00000   2.00000   0.00000   0.00000   0.00000   0.00000   0.00000   0.00000
   0.00000   0.00000   0.00000   0.00000   0.00000
 kpt#   5, nband= 13, wtk=  0.00781, kpt=  0.5000  0.0000  0.0000 (reduced coord)
   0.11365   0.12000   0.68713   0.68713   0.70801   0.70801   0.82871   0.84047
   1.19683   1.19683   1.39809   1.39809   1.40874
      occupation numbers for kpt#   5
   2.00000   2.00000   0.00000   0.00000   0.00000   0.00000   0.00000   0.00000
   0.00000   0.00000   0.00000   0.00000   0.00000
 kpt#   6, nband= 13, wtk=  0.01172, kpt=  0.1250  0.1250  0.0000 (reduced coord)
  -0.10611   0.64140   0.64140   0.66088   0.73933   0.82152   0.91889   0.91889
   1.01946   1.02400   1.12689   1.20508   1.20508
      occupation numbers for kpt#   6
   2.00000   0.00000   0.00000   0.00000   0.00000   0.00000   0.00000   0.00000
   0.00000   0.00000   0.00000   0.00000   0.00000
 kpt#   7, nband= 13, wtk=  0.04688, kpt=  0.2500  0.1250  0.0000 (reduced coord)
  -0.07006   0.47516   0.60169   0.66154   0.70246   0.79300   0.93737   0.94505
   1.03715   1.07959   1.17842   1.32555   1.32646
      occupation numbers for kpt#   7
   2.00000   0.00000   0.00000   0.00000   0.00000   0.00000   0.00000   0.00000
   0.00000   0.00000   0.00000   0.00000   0.00000
 kpt#   8, nband= 13, wtk=  0.04688, kpt=  0.3750  0.1250  0.0000 (reduced coord)
  -0.00371   0.31154   0.58870   0.61711   0.65355   0.87436   0.89522   0.94938
   1.00661   1.15007   1.32424   1.48529   1.53059
      occupation numbers for kpt#   8
   2.00000   0.00000   0.00000   0.00000   0.00000   0.00000   0.00000   0.00000
   0.00000   0.00000   0.00000   0.00000   0.00000
 kpt#   9, nband= 13, wtk=  0.04688, kpt=  0.5000  0.1250  0.0000 (reduced coord)
   0.09168   0.17117   0.55731   0.60218   0.66941   0.81853   0.91018   0.96936
   1.07262   1.20096   1.39926   1.41815   1.46053
      occupation numbers for kpt#   9
   2.00000   2.00000   0.00000   0.00000   0.00000   0.00000   0.00000   0.00000
   0.00000   0.00000   0.00000   0.00000   0.00000
 kpt#  10, nband= 13, wtk=  0.04688, kpt= -0.3750  0.1250  0.0000 (reduced coord)
   0.05678   0.21494   0.52493   0.64194   0.71254   0.78818   0.88504   0.99961
   1.07076   1.14174   1.34035   1.45045   1.55712
      occupation numbers for kpt#  10
   2.00000   2.00000   0.00000   0.00000   0.00000   0.00000   0.00000   0.00000
   0.00000   0.00000   0.00000   0.00000   0.00000
 kpt#  11, nband= 13, wtk=  0.04688, kpt= -0.2500  0.1250  0.0000 (reduced coord)
  -0.02914   0.36291   0.52107   0.70634   0.78112   0.78512   0.87206   0.92947
   1.00879   1.09046   1.28606   1.41149   1.46465
      occupation numbers for kpt#  11
   2.00000   0.00000   0.00000   0.00000   0.00000   0.00000   0.00000   0.00000
   0.00000   0.00000   0.00000   0.00000   0.00000
 kpt#  12, nband= 13, wtk=  0.02344, kpt= -0.1250  0.1250  0.0000 (reduced coord)
  -0.08545   0.51838   0.55933   0.78100   0.79266   0.84651   0.85767   0.86883
   0.92745   1.12886   1.13050   1.24815   1.29347
      occupation numbers for kpt#  12
   2.00000   0.00000   0.00000   0.00000   0.00000   0.00000   0.00000   0.00000
   0.00000   0.00000   0.00000   0.00000   0.00000
 kpt#  13, nband= 13, wtk=  0.01172, kpt=  0.2500  0.2500  0.0000 (reduced coord)
  -0.04446   0.55278   0.55278   0.56268   0.58250   0.67373   1.07578   1.07624
   1.07624   1.24665   1.25483   1.29793   1.29793
      occupation numbers for kpt#  13
   2.00000   0.00000   0.00000   0.00000   0.00000   0.00000   0.00000   0.00000
   0.00000   0.00000   0.00000   0.00000   0.00000
 kpt#  14, nband= 13, wtk=  0.04688, kpt=  0.3750  0.2500  0.0000 (reduced coord)
   0.01141   0.39938   0.48459   0.53074   0.58914   0.72846   1.02301   1.09543
   1.19669   1.20548   1.39176   1.43498   1.47059
      occupation numbers for kpt#  14
   2.00000   0.00000   0.00000   0.00000   0.00000   0.00000   0.00000   0.00000
   0.00000   0.00000   0.00000   0.00000   0.00000
 kpt#  15, nband= 13, wtk=  0.04688, kpt=  0.5000  0.2500  0.0000 (reduced coord)
   0.09643   0.25344   0.41405   0.53530   0.60069   0.86401   0.96428   1.06161
   1.18467   1.21712   1.41504   1.46959   1.53372
      occupation numbers for kpt#  15
   2.00000   2.00000   0.00000   0.00000   0.00000   0.00000   0.00000   0.00000
   0.00000   0.00000   0.00000   0.00000   0.00000
 kpt#  16, nband= 13, wtk=  0.04688, kpt= -0.3750  0.2500  0.0000 (reduced coord)
   0.13126   0.20862   0.37271   0.56643   0.63638   0.92638   0.99001   1.04122
   1.06681   1.17905   1.30511   1.51847   1.61121
      occupation numbers for kpt#  16
   2.00000   2.00000   0.00000   0.00000   0.00000   0.00000   0.00000   0.00000
   0.00000   0.00000   0.00000   0.00000   0.00000
 kpt#  17, nband= 13, wtk=  0.02344, kpt= -0.2500  0.2500  0.0000 (reduced coord)
   0.03667   0.32726   0.37968   0.62414   0.69869   0.90900   0.91841   0.96108
   1.04734   1.21451   1.29833   1.37506   1.56482
      occupation numbers for kpt#  17
   2.00000   0.00000   0.00000   0.00000   0.00000   0.00000   0.00000   0.00000
   0.00000   0.00000   0.00000   0.00000   0.00000
 kpt#  18, nband= 13, wtk=  0.01172, kpt=  0.3750  0.3750  0.0000 (reduced coord)
   0.05650   0.37539   0.49967   0.49967   0.50181   0.62283   1.15641   1.20538
   1.20538   1.39438   1.46627   1.46627   1.49596
      occupation numbers for kpt#  18
   2.00000   0.00000   0.00000   0.00000   0.00000   0.00000   0.00000   0.00000
   0.00000   0.00000   0.00000   0.00000   0.00000
 kpt#  19, nband= 13, wtk=  0.04688, kpt=  0.5000  0.3750  0.0000 (reduced coord)
   0.12995   0.29457   0.36192   0.49532   0.55058   0.69451   1.12572   1.19791
   1.23797   1.38720   1.47885   1.49287   1.57312
      occupation numbers for kpt#  19
   2.00000   0.00001   0.00000   0.00000   0.00000   0.00000   0.00000   0.00000
   0.00000   0.00000   0.00000   0.00000   0.00000
 kpt#  20, nband= 13, wtk=  0.02344, kpt= -0.3750  0.3750  0.0000 (reduced coord)
   0.21248   0.23219   0.26466   0.51765   0.58209   0.84982   1.07610   1.09997
   1.12627   1.28358   1.48147   1.48683   1.62489
      occupation numbers for kpt#  20
   2.00000   2.00000   2.00000   0.00000   0.00000   0.00000   0.00000   0.00000
   0.00000   0.00000   0.00000   0.00000   0.00000
 kpt#  21, nband= 13, wtk=  0.00586, kpt=  0.5000  0.5000  0.0000 (reduced coord)
   0.17428   0.22215   0.48109   0.48203   0.48203   0.60563   1.21659   1.27576
   1.27576   1.46859   1.46859   1.47888   1.49171
      occupation numbers for kpt#  21
   2.00000   2.00000   0.00000   0.00000   0.00000   0.00000   0.00000   0.00000
   0.00000   0.00000   0.00000   0.00000   0.00000
 kpt#  22, nband= 13, wtk=  0.04688, kpt=  0.3750  0.2500  0.1250 (reduced coord)
  -0.02404   0.42314   0.47064   0.59982   0.72845   0.78069   0.90081   1.02035
   1.07694   1.19805   1.24541   1.41407   1.42211
      occupation numbers for kpt#  22
   2.00000   0.00000   0.00000   0.00000   0.00000   0.00000   0.00000   0.00000
   0.00000   0.00000   0.00000   0.00000   0.00000
 kpt#  23, nband= 13, wtk=  0.09375, kpt=  0.5000  0.2500  0.1250 (reduced coord)
   0.05170   0.28605   0.44735   0.52160   0.74664   0.82230   0.89831   1.04248
   1.14086   1.16697   1.34504   1.44913   1.54138
      occupation numbers for kpt#  23
   2.00000   0.28896   0.00000   0.00000   0.00000   0.00000   0.00000   0.00000
   0.00000   0.00000   0.00000   0.00000   0.00000
 kpt#  24, nband= 13, wtk=  0.04688, kpt= -0.3750  0.2500  0.1250 (reduced coord)
   0.15217   0.15980   0.46461   0.47546   0.76220   0.78578   1.01558   1.03338
   1.12153   1.12344   1.38834   1.43757   1.60883
      occupation numbers for kpt#  24
   2.00000   2.00000   0.00000   0.00000   0.00000   0.00000   0.00000   0.00000
   0.00000   0.00000   0.00000   0.00000   0.00000
 kpt#  25, nband= 13, wtk=  0.04688, kpt=  0.5000  0.3750  0.1250 (reduced coord)
   0.07649   0.36575   0.39182   0.41843   0.67276   0.73541   0.98629   1.19232
   1.19445   1.32105   1.40341   1.42289   1.55674
      occupation numbers for kpt#  25
   2.00000   0.00000   0.00000   0.00000   0.00000   0.00000   0.00000   0.00000
   0.00000   0.00000   0.00000   0.00000   0.00000
 kpt#  26, nband= 13, wtk=  0.09375, kpt= -0.3750  0.3750  0.1250 (reduced coord)
   0.16914   0.24724   0.33390   0.41117   0.71319   0.85945   0.93505   1.06739
   1.20890   1.32610   1.43316   1.49411   1.58740
      occupation numbers for kpt#  26
   2.00000   2.00000   0.00000   0.00000   0.00000   0.00000   0.00000   0.00000
   0.00000   0.00000   0.00000   0.00000   0.00000
 kpt#  27, nband= 13, wtk=  0.04688, kpt= -0.2500  0.3750  0.1250 (reduced coord)
   0.13605   0.26991   0.32171   0.45197   0.75610   0.88050   0.91518   1.03880
   1.15521   1.27044   1.40726   1.40798   1.62576
      occupation numbers for kpt#  27
   2.00000   2.00000   0.00000   0.00000   0.00000   0.00000   0.00000   0.00000
   0.00000   0.00000   0.00000   0.00000   0.00000
 kpt#  28, nband= 13, wtk=  0.02344, kpt= -0.3750  0.5000  0.1250 (reduced coord)
   0.19334   0.24179   0.34679   0.39741   0.65404   0.71940   1.09858   1.10875
   1.28193   1.44300   1.48257   1.50238   1.57587
      occupation numbers for kpt#  28
   2.00000   2.00000   0.00000   0.00000   0.00000   0.00000   0.00000   0.00000
   0.00000   0.00000   0.00000   0.00000   0.00000
 kpt#  29, nband= 13, wtk=  0.01172, kpt= -0.2500  0.5000  0.2500 (reduced coord)
   0.25070   0.25070   0.28927   0.31554   0.86200   0.86200   0.86759   0.94698
   1.28532   1.46112   1.51708   1.51708   1.52388
      occupation numbers for kpt#  29
   2.00000   2.00000   0.02158   0.00000   0.00000   0.00000   0.00000   0.00000
   0.00000   0.00000   0.00000   0.00000   0.00000
 Total charge density [el/Bohr^3]
,     Maximum=    3.2217E-02  at reduced coord.    0.8333    0.8333    0.9167
,Next maximum=    3.2217E-02  at reduced coord.    0.4167    0.8333    0.9167
,     Minimum=    3.4741E-03  at reduced coord.    0.0000    0.0000    0.0000
,Next minimum=    6.7815E-03  at reduced coord.    0.0833    0.0000    0.0000
,  Integrated=    3.0000E+00

--------------------------------------------------------------------------------
 Components of total free energy (in Hartree) :

    Kinetic energy  =  8.37054376515599E-01
    Hartree energy  =  4.34956327073373E-03
    XC energy       = -1.20550311914040E+00
    Ewald energy    = -2.69592046694266E+00
    PspCore energy  =  5.93147839887427E-03
    Loc. psp. energy=  1.44816681151484E-01
    NL   psp  energy=  4.79469143872233E-01
    >>>>> Internal E= -2.42980234287414E+00

    -kT*entropy     = -1.12525917051401E-04
    >>>>>>>>> Etotal= -2.42991486879119E+00

 "Double-counting" decomposition of free energy:
    Band energy     =  3.57548832327212E-01
    Ewald energy    = -2.69592046694266E+00
    PspCore energy  =  5.93147839887427E-03
    Dble-C XC-energy= -1.01068399097322E-01
    >>>>> Internal E= -2.43350855531390E+00

    -kT*entropy     = -1.12525917051401E-04
    >>>> Etotal (DC)= -2.43362108123095E+00
--------------------------------------------------------------------------------

== END DATASET(S) ==============================================================
================================================================================
  
 -outvars: echo values of variables after computation  --------
            acell      7.6530000000E+00  7.6530000000E+00  7.6530000000E+00 Bohr
              amu      2.69815390E+01
             ecut      6.00000000E+00 Hartree
           etotal1    -2.4232029460E+00
           etotal2    -2.4232029460E+00
            fcart1    -0.0000000000E+00 -0.0000000000E+00 -0.0000000000E+00
-          fftalg         112
           getden1          0
           getden2          1
             iscf1          7
             iscf2         -3
           istwfk1       2    0    3    0    0    0    7    0
           istwfk2       2    0    0    0    3    0    0    0    0    0
                         0    0    0    0    0    0    0    0    0    0
                         7    0    0    0    0    0    0    0    0
           jdtset        1    2
              kpt1     0.00000000E+00  0.00000000E+00  0.00000000E+00
                       2.50000000E-01  0.00000000E+00  0.00000000E+00
                       5.00000000E-01  0.00000000E+00  0.00000000E+00
                       2.50000000E-01  2.50000000E-01  0.00000000E+00
                       5.00000000E-01  2.50000000E-01  0.00000000E+00
                      -2.50000000E-01  2.50000000E-01  0.00000000E+00
                       5.00000000E-01  5.00000000E-01  0.00000000E+00
                      -2.50000000E-01  5.00000000E-01  2.50000000E-01
              kpt2     0.00000000E+00  0.00000000E+00  0.00000000E+00
                       1.25000000E-01  0.00000000E+00  0.00000000E+00
                       2.50000000E-01  0.00000000E+00  0.00000000E+00
                       3.75000000E-01  0.00000000E+00  0.00000000E+00
                       5.00000000E-01  0.00000000E+00  0.00000000E+00
                       1.25000000E-01  1.25000000E-01  0.00000000E+00
                       2.50000000E-01  1.25000000E-01  0.00000000E+00
                       3.75000000E-01  1.25000000E-01  0.00000000E+00
                       5.00000000E-01  1.25000000E-01  0.00000000E+00
                      -3.75000000E-01  1.25000000E-01  0.00000000E+00
                      -2.50000000E-01  1.25000000E-01  0.00000000E+00
                      -1.25000000E-01  1.25000000E-01  0.00000000E+00
                       2.50000000E-01  2.50000000E-01  0.00000000E+00
                       3.75000000E-01  2.50000000E-01  0.00000000E+00
                       5.00000000E-01  2.50000000E-01  0.00000000E+00
                      -3.75000000E-01  2.50000000E-01  0.00000000E+00
                      -2.50000000E-01  2.50000000E-01  0.00000000E+00
                       3.75000000E-01  3.75000000E-01  0.00000000E+00
                       5.00000000E-01  3.75000000E-01  0.00000000E+00
                      -3.75000000E-01  3.75000000E-01  0.00000000E+00
                       5.00000000E-01  5.00000000E-01  0.00000000E+00
                       3.75000000E-01  2.50000000E-01  1.25000000E-01
                       5.00000000E-01  2.50000000E-01  1.25000000E-01
                      -3.75000000E-01  2.50000000E-01  1.25000000E-01
                       5.00000000E-01  3.75000000E-01  1.25000000E-01
                      -3.75000000E-01  3.75000000E-01  1.25000000E-01
                      -2.50000000E-01  3.75000000E-01  1.25000000E-01
                      -3.75000000E-01  5.00000000E-01  1.25000000E-01
                      -2.50000000E-01  5.00000000E-01  2.50000000E-01
         kptrlatt1       4    0    0      0    4    0      0    0    4
         kptrlatt2       8    0    0      0    8    0      0    0    8
          kptrlen1     2.16459528E+01
          kptrlen2     4.32919056E+01
P           mkmem1          8
P           mkmem2         29
            natom           1
            nband1         13
            nband2         13
           nbdbuf1          0
           nbdbuf2          2
           ndtset           2
            ngfft          12      12      12
             nkpt1          8
             nkpt2         29
             nsym          48
           ntypat           1
              occ1     2.000000  0.000000  0.000000  0.000000  0.000000  0.000000
                       0.000000  0.000000  0.000000  0.000000  0.000000  0.000000
                       0.000000
                       2.000000  0.000000  0.000000  0.000000  0.000000  0.000000
                       0.000000  0.000000  0.000000  0.000000  0.000000  0.000000
                       0.000000
                       2.000000  2.000000  0.000000  0.000000  0.000000  0.000000
                       0.000000  0.000000  0.000000  0.000000  0.000000  0.000000
                       0.000000
                       2.000000  0.000000  0.000000  0.000000  0.000000  0.000000
                       0.000000  0.000000  0.000000  0.000000  0.000000  0.000000
                       0.000000
                       2.000000  1.611079  0.000000  0.000000  0.000000  0.000000
                       0.000000  0.000000  0.000000  0.000000  0.000000  0.000000
                       0.000000
                       2.000000  0.000000  0.000000  0.000000  0.000000  0.000000
                       0.000000  0.000000  0.000000  0.000000  0.000000  0.000000
                       0.000000
                       2.000000  2.000000  0.000000  0.000000  0.000000  0.000000
                       0.000000  0.000000  0.000000  0.000000  0.000000  0.000000
                       0.000000
                       1.944509  1.944509  0.000000  0.000000  0.000000  0.000000
                       0.000000  0.000000  0.000000  0.000000  0.000000  0.000000
                       0.000000
              occ2     2.000000  0.000000  0.000000  0.000000  0.000000  0.000000
                       0.000000  0.000000  0.000000  0.000000  0.000000  0.000000
                       0.000000
                       2.000000  0.000000  0.000000  0.000000  0.000000  0.000000
                       0.000000  0.000000  0.000000  0.000000  0.000000  0.000000
                       0.000000
                       2.000000  0.000000  0.000000  0.000000  0.000000  0.000000
                       0.000000  0.000000  0.000000  0.000000  0.000000  0.000000
                       0.000000
                       2.000000  2.000000  0.000000  0.000000  0.000000  0.000000
                       0.000000  0.000000  0.000000  0.000000  0.000000  0.000000
                       0.000000
                       2.000000  2.000000  0.000000  0.000000  0.000000  0.000000
                       0.000000  0.000000  0.000000  0.000000  0.000000  0.000000
                       0.000000
                       2.000000  0.000000  0.000000  0.000000  0.000000  0.000000
                       0.000000  0.000000  0.000000  0.000000  0.000000  0.000000
                       0.000000
                       2.000000  0.000000  0.000000  0.000000  0.000000  0.000000
                       0.000000  0.000000  0.000000  0.000000  0.000000  0.000000
                       0.000000
                       2.000000  0.000000  0.000000  0.000000  0.000000  0.000000
                       0.000000  0.000000  0.000000  0.000000  0.000000  0.000000
                       0.000000
                       2.000000  2.000000  0.000000  0.000000  0.000000  0.000000
                       0.000000  0.000000  0.000000  0.000000  0.000000  0.000000
                       0.000000
                       2.000000  2.000000  0.000000  0.000000  0.000000  0.000000
                       0.000000  0.000000  0.000000  0.000000  0.000000  0.000000
                       0.000000
                       2.000000  0.000000  0.000000  0.000000  0.000000  0.000000
                       0.000000  0.000000  0.000000  0.000000  0.000000  0.000000
                       0.000000
                       2.000000  0.000000  0.000000  0.000000  0.000000  0.000000
                       0.000000  0.000000  0.000000  0.000000  0.000000  0.000000
                       0.000000
                       2.000000  0.000000  0.000000  0.000000  0.000000  0.000000
                       0.000000  0.000000  0.000000  0.000000  0.000000  0.000000
                       0.000000
                       2.000000  0.000000  0.000000  0.000000  0.000000  0.000000
                       0.000000  0.000000  0.000000  0.000000  0.000000  0.000000
                       0.000000
                       2.000000  2.000000  0.000000  0.000000  0.000000  0.000000
                       0.000000  0.000000  0.000000  0.000000  0.000000  0.000000
                       0.000000
                       2.000000  2.000000  0.000000  0.000000  0.000000  0.000000
                       0.000000  0.000000  0.000000  0.000000  0.000000  0.000000
                       0.000000
                       2.000000  0.000000  0.000000  0.000000  0.000000  0.000000
                       0.000000  0.000000  0.000000  0.000000  0.000000  0.000000
                       0.000000
                       2.000000  0.000000  0.000000  0.000000  0.000000  0.000000
                       0.000000  0.000000  0.000000  0.000000  0.000000  0.000000
                       0.000000
                       2.000000  0.000014  0.000000  0.000000  0.000000  0.000000
                       0.000000  0.000000  0.000000  0.000000  0.000000  0.000000
                       0.000000
                       2.000000  2.000000  2.000000  0.000000  0.000000  0.000000
                       0.000000  0.000000  0.000000  0.000000  0.000000  0.000000
                       0.000000
                       2.000000  2.000000  0.000000  0.000000  0.000000  0.000000
                       0.000000  0.000000  0.000000  0.000000  0.000000  0.000000
                       0.000000
                       2.000000  0.000000  0.000000  0.000000  0.000000  0.000000
                       0.000000  0.000000  0.000000  0.000000  0.000000  0.000000
                       0.000000
                       2.000000  0.288962  0.000000  0.000000  0.000000  0.000000
                       0.000000  0.000000  0.000000  0.000000  0.000000  0.000000
                       0.000000
                       2.000000  2.000000  0.000000  0.000000  0.000000  0.000000
                       0.000000  0.000000  0.000000  0.000000  0.000000  0.000000
                       0.000000
                       2.000000  0.000000  0.000000  0.000000  0.000000  0.000000
                       0.000000  0.000000  0.000000  0.000000  0.000000  0.000000
                       0.000000
                       2.000000  2.000000  0.000000  0.000000  0.000000  0.000000
                       0.000000  0.000000  0.000000  0.000000  0.000000  0.000000
                       0.000000
                       2.000000  2.000000  0.000000  0.000000  0.000000  0.000000
                       0.000000  0.000000  0.000000  0.000000  0.000000  0.000000
                       0.000000
                       2.000000  2.000000  0.000000  0.000000  0.000000  0.000000
                       0.000000  0.000000  0.000000  0.000000  0.000000  0.000000
                       0.000000
                       2.000000  2.000000  0.021580  0.000000  0.000000  0.000000
                       0.000000  0.000000  0.000000  0.000000  0.000000  0.000000
                       0.000000
           occopt           7
       prtbltztrp1          0
       prtbltztrp2          1
            rprim      0.0000000000E+00  5.0000000000E-01  5.0000000000E-01
                       5.0000000000E-01  0.0000000000E+00  5.0000000000E-01
                       5.0000000000E-01  5.0000000000E-01  0.0000000000E+00
          spgroup         225
           strten1     1.1876388146E-04  1.1876388146E-04  1.1876388146E-04
                       0.0000000000E+00  0.0000000000E+00  0.0000000000E+00
           symrel      1  0  0   0  1  0   0  0  1      -1  0  0   0 -1  0   0  0 -1
                       0 -1  1   0 -1  0   1 -1  0       0  1 -1   0  1  0  -1  1  0
                      -1  0  0  -1  0  1  -1  1  0       1  0  0   1  0 -1   1 -1  0
                       0  1 -1   1  0 -1   0  0 -1       0 -1  1  -1  0  1   0  0  1
                      -1  0  0  -1  1  0  -1  0  1       1  0  0   1 -1  0   1  0 -1
                       0 -1  1   1 -1  0   0 -1  0       0  1 -1  -1  1  0   0  1  0
                       1  0  0   0  0  1   0  1  0      -1  0  0   0  0 -1   0 -1  0
                       0  1 -1   0  0 -1   1  0 -1       0 -1  1   0  0  1  -1  0  1
                      -1  0  1  -1  1  0  -1  0  0       1  0 -1   1 -1  0   1  0  0
                       0 -1  0   1 -1  0   0 -1  1       0  1  0  -1  1  0   0  1 -1
                       1  0 -1   0  0 -1   0  1 -1      -1  0  1   0  0  1   0 -1  1
                       0  1  0   0  0  1   1  0  0       0 -1  0   0  0 -1  -1  0  0
                       1  0 -1   0  1 -1   0  0 -1      -1  0  1   0 -1  1   0  0  1
                       0 -1  0   0 -1  1   1 -1  0       0  1  0   0  1 -1  -1  1  0
                      -1  0  1  -1  0  0  -1  1  0       1  0 -1   1  0  0   1 -1  0
                       0  1  0   1  0  0   0  0  1       0 -1  0  -1  0  0   0  0 -1
                       0  0 -1   0  1 -1   1  0 -1       0  0  1   0 -1  1  -1  0  1
                       1 -1  0   0 -1  1   0 -1  0      -1  1  0   0  1 -1   0  1  0
                       0  0  1   1  0  0   0  1  0       0  0 -1  -1  0  0   0 -1  0
                      -1  1  0  -1  0  0  -1  0  1       1 -1  0   1  0  0   1  0 -1
                       0  0  1   0  1  0   1  0  0       0  0 -1   0 -1  0  -1  0  0
                       1 -1  0   0 -1  0   0 -1  1      -1  1  0   0  1  0   0  1 -1
                       0  0 -1   1  0 -1   0  1 -1       0  0  1  -1  0  1   0 -1  1
                      -1  1  0  -1  0  1  -1  0  0       1 -1  0   1  0 -1   1  0  0
           toldfe1     1.00000000E-10 Hartree
           toldfe2     0.00000000E+00 Hartree
           tolwfr1     0.00000000E+00
           tolwfr2     1.00000000E-14
           tsmear      3.67493254E-03 Hartree
            typat      1
              wtk1       0.01563    0.12500    0.06250    0.09375    0.37500    0.18750
                         0.04688    0.09375
              wtk2       0.00195    0.01563    0.01563    0.01563    0.00781    0.01172
                         0.04688    0.04688    0.04688    0.04688    0.04688    0.02344
                         0.01172    0.04688    0.04688    0.04688    0.02344    0.01172
                         0.04688    0.02344    0.00586    0.04688    0.09375    0.04688
                         0.04688    0.09375    0.04688    0.02344    0.01172
            znucl       13.00000

================================================================================


- Timing analysis has been suppressed with timopt=0



================================================================================

 Suggested references for the acknowledgment of ABINIT usage.

 The users of ABINIT have little formal obligations with respect to the ABINIT group
 (those specified in the GNU General Public License, http://www.gnu.org/copyleft/gpl.txt).
 However, it is common practice in the scientific literature,
 to acknowledge the efforts of people that have made the research possible.
 In this spirit, please find below suggested citations of work written by ABINIT developers,
 corresponding to implementations inside of ABINIT that you have used in the present run.
 Note also that it will be of great value to readers of publications presenting these results,
 to read papers enabling them to understand the theoretical formalism and details
 of the ABINIT implementation.
 For information on why they are suggested, see also http://www.abinit.org/about/?text=acknowledgments.

 [1] ABINIT : First-principles approach of materials and nanosystem properties.
 X. Gonze, B. Amadon, P.-M. Anglade, J.-M. Beuken, F. Bottin, P. Boulanger, F. Bruneval,
 D. Caliste, R. Caracas, M. Cote, T. Deutsch, L. Genovese, Ph. Ghosez, M. Giantomassi
 S. Goedecker, D.R. Hamann, P. Hermet, F. Jollet, G. Jomard, S. Leroux, M. Mancini, S. Mazevet,
 M.J.T. Oliveira, G. Onida, Y. Pouillon, T. Rangel, G.-M. Rignanese, D. Sangalli, R. Shaltaf,
 M. Torrent, M.J. Verstraete, G. Zerah, J.W. Zwanziger
 Computer Phys. Comm. 180, 2582-2615 (2009).
 Comment : the third generic paper describing the ABINIT project.
 Note that a version of this paper, that is not formatted for Computer Phys. Comm. 
 is available at http://www.abinit.org/about/ABINIT_CPC_v10.pdf .
 The licence allows the authors to put it on the Web.

 [2] A brief introduction to the ABINIT software package.
 X. Gonze, G.-M. Rignanese, M. Verstraete, J.-M. Beuken, Y. Pouillon, R. Caracas, F. Jollet,
 M. Torrent, G. Zerah, M. Mikami, Ph. Ghosez, M. Veithen, J.-Y. Raty, V. Olevano, F. Bruneval,
 L. Reining, R. Godby, G. Onida, D.R. Hamann, and D.C. Allan.
 Z. Kristallogr. 220, 558-562 (2005).
 Comment : the second generic paper describing the ABINIT project. Note that this paper
 should be cited especially if you are using the GW part of ABINIT, as several authors
 of this part are not in the list of authors of the first or third paper.
 The .pdf of the latter paper is available at http://www.abinit.org/about/zfk_0505-06_558-562.pdf.
 Note that it should not redistributed (Copyright by Oldenburg Wissenshaftverlag,
 the licence allows the authors to put it on the Web).


 And optionally :

 [3] First-principles computation of material properties : the ABINIT software project. 
 X. Gonze, J.-M. Beuken, R. Caracas, F. Detraux, M. Fuchs, G.-M. Rignanese, L. Sindic,
 M. Verstraete, G. Zerah, F. Jollet, M. Torrent, A. Roy, M. Mikami, Ph. Ghosez, J.-Y. Raty, D.C. Allan.
 Computational Materials Science 25, 478-492 (2002). http://dx.doi.org/10.1016/S0927-0256(02)00325-7
 Comment : the original paper describing the ABINIT project.

 [4] Fast radix 2, 3, 4 and 5 kernels for Fast Fourier Transformations
 on computers with overlapping multiply-add instructions.
 S. Goedecker, SIAM J. on Scientific Computing 18, 1605 (1997).
-
- Proc.   0 individual time (sec): cpu=          1.3  wall=          1.3

================================================================================

 Calculation completed.
.Delivered    0 WARNINGs and   0 COMMENTs to log file.
+Overall time at end (sec) : cpu=          1.3  wall=          1.3
