
.Version 7.9.3 of ABINIT 
.(MPI version, prepared for a x86_64_linux_gnu4.7 computer) 

.Copyright (C) 1998-2014 ABINIT group . 
 ABINIT comes with ABSOLUTELY NO WARRANTY.
 It is free software, and you are welcome to redistribute it
 under certain conditions (GNU General Public License,
 see ~abinit/COPYING or http://www.gnu.org/copyleft/gpl.txt).

 ABINIT is a project of the Universite Catholique de Louvain,
 Corning Inc. and other collaborators, see ~abinit/doc/developers/contributors.txt .
 Please read ~abinit/doc/users/acknowledgments.html for suggested
 acknowledgments of the ABINIT effort.
 For more information, see http://www.abinit.org .

.Starting date : Sat 30 Aug 2014.
- ( at 22h40 )
  
- input  file    -> t35.in
- output file    -> t35.out
- root for input  files -> t35i
- root for output files -> t35o


 DATASET   11 : space group Fm -3 m (#225); Bravais cF (face-center cubic)
================================================================================
 Values of the parameters that define the memory need for DATASET 11.
   intxc =         0  ionmov =         0    iscf =         5 xclevel =         1
  lmnmax =         3   lnmax =         3   mband =         4  mffmem =         1
P  mgfft =        12   mkmem =        32 mpssoang=         3     mpw =        22
  mqgrid =      3001   natom =         1    nfft =      1728    nkpt =        32
  nloalg =         4  nspden =         1 nspinor =         1  nsppol =         1
    nsym =        48  n1xccc =         0  ntypat =         1  occopt =         4
================================================================================
P This job should need less than                       1.671 Mbytes of memory.
  Rough estimation (10% accuracy) of disk space for files :
_ WF disk file :      0.045 Mbytes ; DEN or POT disk file :      0.015 Mbytes.
================================================================================


 DATASET   12 : space group Fm -3 m (#225); Bravais cF (face-center cubic)
================================================================================
 Values of the parameters that define the memory need for DATASET 12 (RF).
   intxc =         0    iscf =         7 xclevel =         1  lmnmax =         3
   lnmax =         3   mband =         4  mffmem =         1   mgfft =        12
P  mkmem =        32  mkqmem =        32  mk1mem =        32 mpssoang=         3
     mpw =        22  mqgrid =      3001   natom =         1    nfft =      1728
    nkpt =        32  nloalg =         4  nspden =         1 nspinor =         1
  nsppol =         1    nsym =        48  n1xccc =         0  ntypat =         1
  occopt =         4
================================================================================
P This job should need less than                       1.712 Mbytes of memory.
  Rough estimation (10% accuracy) of disk space for files :
_ WF disk file :      0.045 Mbytes ; DEN or POT disk file :      0.015 Mbytes.
================================================================================


 DATASET   21 : space group Fm -3 m (#225); Bravais cF (face-center cubic)
================================================================================
 Values of the parameters that define the memory need for DATASET 21.
   intxc =         0  ionmov =         0    iscf =        -2 xclevel =         1
  lmnmax =         3   lnmax =         3   mband =         4  mffmem =         1
P  mgfft =        12   mkmem =        32 mpssoang=         3     mpw =        22
  mqgrid =      3001   natom =         1    nfft =      1728    nkpt =        32
  nloalg =         4  nspden =         1 nspinor =         1  nsppol =         1
    nsym =        48  n1xccc =         0  ntypat =         1  occopt =         4
================================================================================
P This job should need less than                       1.539 Mbytes of memory.
  Rough estimation (10% accuracy) of disk space for files :
_ WF disk file :      0.045 Mbytes ; DEN or POT disk file :      0.015 Mbytes.
================================================================================


 DATASET   22 : space group Fm -3 m (#225); Bravais cF (face-center cubic)
================================================================================
 Values of the parameters that define the memory need for DATASET 22 (RF).
   intxc =         0    iscf =         7 xclevel =         1  lmnmax =         3
   lnmax =         3   mband =         4  mffmem =         1   mgfft =        12
P  mkmem =        32  mkqmem =        32  mk1mem =        32 mpssoang=         3
     mpw =        22  mqgrid =      3001   natom =         1    nfft =      1728
    nkpt =        32  nloalg =         4  nspden =         1 nspinor =         1
  nsppol =         1    nsym =        48  n1xccc =         0  ntypat =         1
  occopt =         4
================================================================================
P This job should need less than                       1.809 Mbytes of memory.
  Rough estimation (10% accuracy) of disk space for files :
_ WF disk file :      0.045 Mbytes ; DEN or POT disk file :      0.015 Mbytes.
================================================================================


 DATASET   31 : space group Fm -3 m (#225); Bravais cF (face-center cubic)
================================================================================
 Values of the parameters that define the memory need for DATASET 31.
   intxc =         0  ionmov =         0    iscf =        -2 xclevel =         1
  lmnmax =         3   lnmax =         3   mband =         4  mffmem =         1
P  mgfft =        12   mkmem =        32 mpssoang=         3     mpw =        22
  mqgrid =      3001   natom =         1    nfft =      1728    nkpt =        32
  nloalg =         4  nspden =         1 nspinor =         1  nsppol =         1
    nsym =        48  n1xccc =         0  ntypat =         1  occopt =         4
================================================================================
P This job should need less than                       1.539 Mbytes of memory.
  Rough estimation (10% accuracy) of disk space for files :
_ WF disk file :      0.045 Mbytes ; DEN or POT disk file :      0.015 Mbytes.
================================================================================


 DATASET   32 : space group Fm -3 m (#225); Bravais cF (face-center cubic)
================================================================================
 Values of the parameters that define the memory need for DATASET 32 (RF).
   intxc =         0    iscf =         7 xclevel =         1  lmnmax =         3
   lnmax =         3   mband =         4  mffmem =         1   mgfft =        12
P  mkmem =        32  mkqmem =        32  mk1mem =        32 mpssoang=         3
     mpw =        22  mqgrid =      3001   natom =         1    nfft =      1728
    nkpt =        32  nloalg =         4  nspden =         1 nspinor =         1
  nsppol =         1    nsym =        48  n1xccc =         0  ntypat =         1
  occopt =         4
================================================================================
P This job should need less than                       1.809 Mbytes of memory.
  Rough estimation (10% accuracy) of disk space for files :
_ WF disk file :      0.045 Mbytes ; DEN or POT disk file :      0.015 Mbytes.
================================================================================


 DATASET   41 : space group Fm -3 m (#225); Bravais cF (face-center cubic)
================================================================================
 Values of the parameters that define the memory need for DATASET 41.
   intxc =         0  ionmov =         0    iscf =        -2 xclevel =         1
  lmnmax =         3   lnmax =         3   mband =         4  mffmem =         1
P  mgfft =        12   mkmem =        32 mpssoang=         3     mpw =        22
  mqgrid =      3001   natom =         1    nfft =      1728    nkpt =        32
  nloalg =         4  nspden =         1 nspinor =         1  nsppol =         1
    nsym =        48  n1xccc =         0  ntypat =         1  occopt =         4
================================================================================
P This job should need less than                       1.539 Mbytes of memory.
  Rough estimation (10% accuracy) of disk space for files :
_ WF disk file :      0.045 Mbytes ; DEN or POT disk file :      0.015 Mbytes.
================================================================================


 DATASET   42 : space group Fm -3 m (#225); Bravais cF (face-center cubic)
================================================================================
 Values of the parameters that define the memory need for DATASET 42 (RF).
   intxc =         0    iscf =         7 xclevel =         1  lmnmax =         3
   lnmax =         3   mband =         4  mffmem =         1   mgfft =        12
P  mkmem =        32  mkqmem =        32  mk1mem =        32 mpssoang=         3
     mpw =        22  mqgrid =      3001   natom =         1    nfft =      1728
    nkpt =        32  nloalg =         4  nspden =         1 nspinor =         1
  nsppol =         1    nsym =        48  n1xccc =         0  ntypat =         1
  occopt =         4
================================================================================
P This job should need less than                       1.809 Mbytes of memory.
  Rough estimation (10% accuracy) of disk space for files :
_ WF disk file :      0.045 Mbytes ; DEN or POT disk file :      0.015 Mbytes.
================================================================================


 DATASET   51 : space group Fm -3 m (#225); Bravais cF (face-center cubic)
================================================================================
 Values of the parameters that define the memory need for DATASET 51.
   intxc =         0  ionmov =         0    iscf =        -2 xclevel =         1
  lmnmax =         3   lnmax =         3   mband =         4  mffmem =         1
P  mgfft =        12   mkmem =        32 mpssoang=         3     mpw =        22
  mqgrid =      3001   natom =         1    nfft =      1728    nkpt =        32
  nloalg =         4  nspden =         1 nspinor =         1  nsppol =         1
    nsym =        48  n1xccc =         0  ntypat =         1  occopt =         4
================================================================================
P This job should need less than                       1.539 Mbytes of memory.
  Rough estimation (10% accuracy) of disk space for files :
_ WF disk file :      0.045 Mbytes ; DEN or POT disk file :      0.015 Mbytes.
================================================================================


 DATASET   52 : space group Fm -3 m (#225); Bravais cF (face-center cubic)
================================================================================
 Values of the parameters that define the memory need for DATASET 52 (RF).
   intxc =         0    iscf =         7 xclevel =         1  lmnmax =         3
   lnmax =         3   mband =         4  mffmem =         1   mgfft =        12
P  mkmem =        32  mkqmem =        32  mk1mem =        32 mpssoang=         3
     mpw =        22  mqgrid =      3001   natom =         1    nfft =      1728
    nkpt =        32  nloalg =         4  nspden =         1 nspinor =         1
  nsppol =         1    nsym =        48  n1xccc =         0  ntypat =         1
  occopt =         4
================================================================================
P This job should need less than                       1.809 Mbytes of memory.
  Rough estimation (10% accuracy) of disk space for files :
_ WF disk file :      0.045 Mbytes ; DEN or POT disk file :      0.015 Mbytes.
================================================================================


 DATASET   61 : space group Fm -3 m (#225); Bravais cF (face-center cubic)
================================================================================
 Values of the parameters that define the memory need for DATASET 61.
   intxc =         0  ionmov =         0    iscf =        -2 xclevel =         1
  lmnmax =         3   lnmax =         3   mband =         4  mffmem =         1
P  mgfft =        12   mkmem =        32 mpssoang=         3     mpw =        22
  mqgrid =      3001   natom =         1    nfft =      1728    nkpt =        32
  nloalg =         4  nspden =         1 nspinor =         1  nsppol =         1
    nsym =        48  n1xccc =         0  ntypat =         1  occopt =         4
================================================================================
P This job should need less than                       1.539 Mbytes of memory.
  Rough estimation (10% accuracy) of disk space for files :
_ WF disk file :      0.045 Mbytes ; DEN or POT disk file :      0.015 Mbytes.
================================================================================


 DATASET   62 : space group Fm -3 m (#225); Bravais cF (face-center cubic)
================================================================================
 Values of the parameters that define the memory need for DATASET 62 (RF).
   intxc =         0    iscf =         7 xclevel =         1  lmnmax =         3
   lnmax =         3   mband =         4  mffmem =         1   mgfft =        12
P  mkmem =        32  mkqmem =        32  mk1mem =        32 mpssoang=         3
     mpw =        22  mqgrid =      3001   natom =         1    nfft =      1728
    nkpt =        32  nloalg =         4  nspden =         1 nspinor =         1
  nsppol =         1    nsym =        48  n1xccc =         0  ntypat =         1
  occopt =         4
================================================================================
P This job should need less than                       1.809 Mbytes of memory.
  Rough estimation (10% accuracy) of disk space for files :
_ WF disk file :      0.045 Mbytes ; DEN or POT disk file :      0.015 Mbytes.
================================================================================

--------------------------------------------------------------------------------
------------- Echo of variables that govern the present computation ------------
--------------------------------------------------------------------------------
-
- outvars: echo of selected default values                                      
-   accesswff0 =  0 , fftalg0 =112 , wfoptalg0 =  0
-
- outvars: echo of global parameters not present in the input file              
-  max_nthreads =    0
-
 -outvars: echo values of preprocessed input variables --------
            acell      7.6000000000E+00  7.6000000000E+00  7.6000000000E+00 Bohr
              amu      2.69815390E+01
             ecut      2.50000000E+00 Hartree
-          fftalg         112
           getden11         0
           getden12        11
           getden21        11
           getden22        11
           getden31        11
           getden32        11
           getden41        11
           getden42        11
           getden51        11
           getden52        11
           getden61        11
           getden62        11
           getwfk11         0
           getwfk12        11
           getwfk21        11
           getwfk22        11
           getwfk31        11
           getwfk32        11
           getwfk41        11
           getwfk42        11
           getwfk51        11
           getwfk52        11
           getwfk61        11
           getwfk62        11
           getwfq11         0
           getwfq12         0
           getwfq21         0
           getwfq22        -1
           getwfq31         0
           getwfq32        -1
           getwfq41         0
           getwfq42        -1
           getwfq51         0
           getwfq52        -1
           getwfq61         0
           getwfq62        -1
             iscf11         5
             iscf12         7
             iscf21        -2
             iscf22         7
             iscf31        -2
             iscf32         7
             iscf41        -2
             iscf42         7
             iscf51        -2
             iscf52         7
             iscf61        -2
             iscf62         7
              ixc           7
           jdtset       11   12   21   22   31   32   41   42   51   52
                        61   62
              kpt     -2.50000000E-01  5.00000000E-01  0.00000000E+00
                       5.00000000E-01 -2.50000000E-01  0.00000000E+00
                      -2.50000000E-01 -2.50000000E-01  2.50000000E-01
                      -2.50000000E-01  0.00000000E+00  0.00000000E+00
                       5.00000000E-01  2.50000000E-01  0.00000000E+00
                      -2.50000000E-01  2.50000000E-01  2.50000000E-01
                       2.50000000E-01  5.00000000E-01  0.00000000E+00
                       5.00000000E-01  5.00000000E-01  2.50000000E-01
                      -2.50000000E-01  5.00000000E-01  5.00000000E-01
                       0.00000000E+00 -2.50000000E-01  0.00000000E+00
                       2.50000000E-01 -2.50000000E-01  2.50000000E-01
                       5.00000000E-01 -2.50000000E-01  5.00000000E-01
                      -2.50000000E-01 -2.50000000E-01 -2.50000000E-01
                       2.50000000E-01  0.00000000E+00  0.00000000E+00
                       5.00000000E-01  0.00000000E+00  2.50000000E-01
                      -2.50000000E-01  0.00000000E+00  5.00000000E-01
                       0.00000000E+00  2.50000000E-01  0.00000000E+00
                       2.50000000E-01  2.50000000E-01  2.50000000E-01
                       5.00000000E-01  2.50000000E-01  5.00000000E-01
                      -2.50000000E-01  2.50000000E-01 -2.50000000E-01
                       0.00000000E+00  5.00000000E-01  2.50000000E-01
                       2.50000000E-01  5.00000000E-01  5.00000000E-01
                       5.00000000E-01  5.00000000E-01 -2.50000000E-01
                       0.00000000E+00 -2.50000000E-01  5.00000000E-01
                       2.50000000E-01 -2.50000000E-01 -2.50000000E-01
                       0.00000000E+00  0.00000000E+00  2.50000000E-01
                       2.50000000E-01  0.00000000E+00  5.00000000E-01
                       5.00000000E-01  0.00000000E+00 -2.50000000E-01
                       0.00000000E+00  2.50000000E-01  5.00000000E-01
                       2.50000000E-01  2.50000000E-01 -2.50000000E-01
                       0.00000000E+00  5.00000000E-01 -2.50000000E-01
                       0.00000000E+00  0.00000000E+00 -2.50000000E-01
           kptopt           3
         kptrlatt        2   -2    2     -2    2    2     -2   -2    2
          kptrlen      1.52000000E+01
P           mkmem          32
P          mkqmem          32
P          mk1mem          32
            natom           1
            nband           4
           nbdbuf           2
           ndtset          12
            ngfft          12      12      12
             nkpt          32
             nqpt11         0
             nqpt12         1
             nqpt21         1
             nqpt22         1
             nqpt31         1
             nqpt32         1
             nqpt41         1
             nqpt42         1
             nqpt51         1
             nqpt52         1
             nqpt61         1
             nqpt62         1
             nsym          48
           ntypat           1
              occ      2.000000  1.000000  0.000000  0.000000
                       2.000000  1.000000  0.000000  0.000000
                       2.000000  1.000000  0.000000  0.000000
                       2.000000  1.000000  0.000000  0.000000
                       2.000000  1.000000  0.000000  0.000000
                       2.000000  1.000000  0.000000  0.000000
                       2.000000  1.000000  0.000000  0.000000
                       2.000000  1.000000  0.000000  0.000000
                       2.000000  1.000000  0.000000  0.000000
                       2.000000  1.000000  0.000000  0.000000
                       2.000000  1.000000  0.000000  0.000000
                       2.000000  1.000000  0.000000  0.000000
                       2.000000  1.000000  0.000000  0.000000
                       2.000000  1.000000  0.000000  0.000000
                       2.000000  1.000000  0.000000  0.000000
                       2.000000  1.000000  0.000000  0.000000
                       2.000000  1.000000  0.000000  0.000000
                       2.000000  1.000000  0.000000  0.000000
                       2.000000  1.000000  0.000000  0.000000
                       2.000000  1.000000  0.000000  0.000000
                       2.000000  1.000000  0.000000  0.000000
                       2.000000  1.000000  0.000000  0.000000
                       2.000000  1.000000  0.000000  0.000000
                       2.000000  1.000000  0.000000  0.000000
                       2.000000  1.000000  0.000000  0.000000
                       2.000000  1.000000  0.000000  0.000000
                       2.000000  1.000000  0.000000  0.000000
                       2.000000  1.000000  0.000000  0.000000
                       2.000000  1.000000  0.000000  0.000000
                       2.000000  1.000000  0.000000  0.000000
                       2.000000  1.000000  0.000000  0.000000
                       2.000000  1.000000  0.000000  0.000000
           occopt           4
        optdriver11         0
        optdriver12         1
        optdriver21         0
        optdriver22         1
        optdriver31         0
        optdriver32         1
        optdriver41         0
        optdriver42         1
        optdriver51         0
        optdriver52         1
        optdriver61         0
        optdriver62         1
              qpt11    0.00000000E+00  0.00000000E+00  0.00000000E+00
              qpt12    0.00000000E+00  0.00000000E+00  0.00000000E+00
              qpt21    0.00000000E+00  2.50000000E-01 -2.50000000E-01
              qpt22    0.00000000E+00  2.50000000E-01 -2.50000000E-01
              qpt31    0.00000000E+00  0.00000000E+00  5.00000000E-01
              qpt32    0.00000000E+00  0.00000000E+00  5.00000000E-01
              qpt41   -2.50000000E-01  0.00000000E+00 -2.50000000E-01
              qpt42   -2.50000000E-01  0.00000000E+00 -2.50000000E-01
              qpt51    5.00000000E-01  2.50000000E-01 -2.50000000E-01
              qpt52    5.00000000E-01  2.50000000E-01 -2.50000000E-01
              qpt61    5.00000000E-01  0.00000000E+00  5.00000000E-01
              qpt62    5.00000000E-01  0.00000000E+00  5.00000000E-01
            rfdir11         0       0       0
            rfdir12         1       1       1
            rfdir21         0       0       0
            rfdir22         1       1       1
            rfdir31         0       0       0
            rfdir32         1       1       1
            rfdir41         0       0       0
            rfdir42         1       1       1
            rfdir51         0       0       0
            rfdir52         1       1       1
            rfdir61         0       0       0
            rfdir62         1       1       1
           rfphon11         0
           rfphon12         1
           rfphon21         0
           rfphon22         1
           rfphon31         0
           rfphon32         1
           rfphon41         0
           rfphon42         1
           rfphon51         0
           rfphon52         1
           rfphon61         0
           rfphon62         1
            rprim      0.0000000000E+00  5.0000000000E-01  5.0000000000E-01
                       5.0000000000E-01  0.0000000000E+00  5.0000000000E-01
                       5.0000000000E-01  5.0000000000E-01  0.0000000000E+00
           shiftk      5.00000000E-01  5.00000000E-01  5.00000000E-01
          spgroup         225
           symrel      1  0  0   0  1  0   0  0  1      -1  0  0   0 -1  0   0  0 -1
                       0 -1  1   0 -1  0   1 -1  0       0  1 -1   0  1  0  -1  1  0
                      -1  0  0  -1  0  1  -1  1  0       1  0  0   1  0 -1   1 -1  0
                       0  1 -1   1  0 -1   0  0 -1       0 -1  1  -1  0  1   0  0  1
                      -1  0  0  -1  1  0  -1  0  1       1  0  0   1 -1  0   1  0 -1
                       0 -1  1   1 -1  0   0 -1  0       0  1 -1  -1  1  0   0  1  0
                       1  0  0   0  0  1   0  1  0      -1  0  0   0  0 -1   0 -1  0
                       0  1 -1   0  0 -1   1  0 -1       0 -1  1   0  0  1  -1  0  1
                      -1  0  1  -1  1  0  -1  0  0       1  0 -1   1 -1  0   1  0  0
                       0 -1  0   1 -1  0   0 -1  1       0  1  0  -1  1  0   0  1 -1
                       1  0 -1   0  0 -1   0  1 -1      -1  0  1   0  0  1   0 -1  1
                       0  1  0   0  0  1   1  0  0       0 -1  0   0  0 -1  -1  0  0
                       1  0 -1   0  1 -1   0  0 -1      -1  0  1   0 -1  1   0  0  1
                       0 -1  0   0 -1  1   1 -1  0       0  1  0   0  1 -1  -1  1  0
                      -1  0  1  -1  0  0  -1  1  0       1  0 -1   1  0  0   1 -1  0
                       0  1  0   1  0  0   0  0  1       0 -1  0  -1  0  0   0  0 -1
                       0  0 -1   0  1 -1   1  0 -1       0  0  1   0 -1  1  -1  0  1
                       1 -1  0   0 -1  1   0 -1  0      -1  1  0   0  1 -1   0  1  0
                       0  0  1   1  0  0   0  1  0       0  0 -1  -1  0  0   0 -1  0
                      -1  1  0  -1  0  0  -1  0  1       1 -1  0   1  0  0   1  0 -1
                       0  0  1   0  1  0   1  0  0       0  0 -1   0 -1  0  -1  0  0
                       1 -1  0   0 -1  0   0 -1  1      -1  1  0   0  1  0   0  1 -1
                       0  0 -1   1  0 -1   0  1 -1       0  0  1  -1  0  1   0 -1  1
                      -1  1  0  -1  0  1  -1  0  0       1 -1  0   1  0 -1   1  0  0
           tolvrs11    0.00000000E+00
           tolvrs12    1.00000000E-10
           tolvrs21    0.00000000E+00
           tolvrs22    1.00000000E-10
           tolvrs31    0.00000000E+00
           tolvrs32    1.00000000E-10
           tolvrs41    0.00000000E+00
           tolvrs42    1.00000000E-10
           tolvrs51    0.00000000E+00
           tolvrs52    1.00000000E-10
           tolvrs61    0.00000000E+00
           tolvrs62    1.00000000E-10
           tolwfr11    1.00000000E-22
           tolwfr12    0.00000000E+00
           tolwfr21    1.00000000E-22
           tolwfr22    0.00000000E+00
           tolwfr31    1.00000000E-22
           tolwfr32    0.00000000E+00
           tolwfr41    1.00000000E-22
           tolwfr42    0.00000000E+00
           tolwfr51    1.00000000E-22
           tolwfr52    0.00000000E+00
           tolwfr61    1.00000000E-22
           tolwfr62    0.00000000E+00
            typat      1
              wtk        0.03125    0.03125    0.03125    0.03125    0.03125    0.03125
                         0.03125    0.03125    0.03125    0.03125    0.03125    0.03125
                         0.03125    0.03125    0.03125    0.03125    0.03125    0.03125
                         0.03125    0.03125    0.03125    0.03125    0.03125    0.03125
                         0.03125    0.03125    0.03125    0.03125    0.03125    0.03125
                         0.03125    0.03125
            znucl       13.00000

================================================================================

 chkinp: Checking input parameters for consistency, jdtset=  11.

 chkinp: Checking input parameters for consistency, jdtset=  12.

 chkinp: Checking input parameters for consistency, jdtset=  21.

 chkinp: Checking input parameters for consistency, jdtset=  22.

 chkinp: Checking input parameters for consistency, jdtset=  31.

 chkinp: Checking input parameters for consistency, jdtset=  32.

 chkinp: Checking input parameters for consistency, jdtset=  41.

 chkinp: Checking input parameters for consistency, jdtset=  42.

 chkinp: Checking input parameters for consistency, jdtset=  51.

 chkinp: Checking input parameters for consistency, jdtset=  52.

 chkinp: Checking input parameters for consistency, jdtset=  61.

 chkinp: Checking input parameters for consistency, jdtset=  62.

================================================================================
== DATASET 11 ==================================================================
-   nproc =    1

 Exchange-correlation functional for the present dataset will be:
  LDA: Perdew-Wang 92 LSD fit to Ceperley-Alder data - ixc=7
 Citation for XC functional:
  J.P.Perdew and Y.Wang, PRB 45, 13244 (1992)

 Real(R)+Recip(G) space primitive vectors, cartesian coordinates (Bohr,Bohr^-1):
 R(1)=  0.0000000  3.8000000  3.8000000  G(1)= -0.1315789  0.1315789  0.1315789
 R(2)=  3.8000000  0.0000000  3.8000000  G(2)=  0.1315789 -0.1315789  0.1315789
 R(3)=  3.8000000  3.8000000  0.0000000  G(3)=  0.1315789  0.1315789 -0.1315789
 Unit cell volume ucvol=  1.0974400E+02 bohr^3
 Angles (23,13,12)=  6.00000000E+01  6.00000000E+01  6.00000000E+01 degrees

 getcut: wavevector=  0.0000  0.0000  0.0000  ngfft=  12  12  12
         ecut(hartree)=      2.500   => boxcut(ratio)=   3.13724

 getcut : COMMENT -
  Note that boxcut > 2.2 ; recall that boxcut=Gcut(box)/Gcut(sphere) = 2
  is sufficient for exact treatment of convolution.
  Such a large boxcut is a waste : you could raise ecut
  e.g. ecut=    6.151415 Hartrees makes boxcut=2


--- Pseudopotential description ------------------------------------------------
- pspini: atom type   1  psp file is /home/gonze/ABINIT/ABINITv7.9.3/trunk/7.9.3-private/tests/Psps_for_tests/13al.981214.fhi
- pspatm: opening atomic psp file    /home/gonze/ABINIT/ABINITv7.9.3/trunk/7.9.3-private/tests/Psps_for_tests/13al.981214.fhi
- Aluminum, fhi98PP : Hamann-type, LDA CA PerdewWang, l=2 local
- 13.00000   3.00000    981214                znucl, zion, pspdat
    6    7    2    2       493   0.00000      pspcod,pspxc,lmax,lloc,mmax,r2well
  No XC core correction.
  1.024700          amesh (Hamman grid)
 pspatm: epsatm=    1.36305739
         --- l  ekb(1:nproj) -->
             0    1.768744
             1    0.900554
 pspatm: atomic psp has been read  and splines computed

   4.08917216E+00                                ecore*ucvol(ha*bohr**3)
--------------------------------------------------------------------------------

P newkpt: treating      4 bands with npw=      22 for ikpt=   1 by node    0
P newkpt: treating      4 bands with npw=      22 for ikpt=   2 by node    0
P newkpt: treating      4 bands with npw=      22 for ikpt=   3 by node    0
P newkpt: treating      4 bands with npw=      18 for ikpt=   4 by node    0
P newkpt: treating      4 bands with npw=      22 for ikpt=   5 by node    0
P newkpt: treating      4 bands with npw=      22 for ikpt=   6 by node    0
P newkpt: treating      4 bands with npw=      22 for ikpt=   7 by node    0
P newkpt: treating      4 bands with npw=      22 for ikpt=   8 by node    0
P newkpt: treating      4 bands with npw=      22 for ikpt=   9 by node    0
P newkpt: treating      4 bands with npw=      18 for ikpt=  10 by node    0
P newkpt: treating      4 bands with npw=      22 for ikpt=  11 by node    0
P newkpt: treating      4 bands with npw=      22 for ikpt=  12 by node    0
P newkpt: treating      4 bands with npw=      18 for ikpt=  13 by node    0
P newkpt: treating      4 bands with npw=      18 for ikpt=  14 by node    0
P newkpt: treating      4 bands with npw=      22 for ikpt=  15 by node    0
P newkpt: treating      4 bands with npw=      22 for ikpt=  16 by node    0
P newkpt: treating      4 bands with npw=      18 for ikpt=  17 by node    0
P newkpt: treating      4 bands with npw=      18 for ikpt=  18 by node    0
P newkpt: treating      4 bands with npw=      22 for ikpt=  19 by node    0
P newkpt: treating      4 bands with npw=      22 for ikpt=  20 by node    0
P newkpt: treating      4 bands with npw=      22 for ikpt=  21 by node    0
P newkpt: treating      4 bands with npw=      22 for ikpt=  22 by node    0
P newkpt: treating      4 bands with npw=      22 for ikpt=  23 by node    0
P newkpt: treating      4 bands with npw=      22 for ikpt=  24 by node    0
P newkpt: treating      4 bands with npw=      22 for ikpt=  25 by node    0
P newkpt: treating      4 bands with npw=      18 for ikpt=  26 by node    0
P newkpt: treating      4 bands with npw=      22 for ikpt=  27 by node    0
P newkpt: treating      4 bands with npw=      22 for ikpt=  28 by node    0
P newkpt: treating      4 bands with npw=      22 for ikpt=  29 by node    0
P newkpt: treating      4 bands with npw=      22 for ikpt=  30 by node    0
P newkpt: treating      4 bands with npw=      22 for ikpt=  31 by node    0
P newkpt: treating      4 bands with npw=      18 for ikpt=  32 by node    0

_setup2: Arith. and geom. avg. npw (full set) are      21.000      20.924

================================================================================

     iter   Etot(hartree)      deltaE(h)  residm     vres2
 ETOT  1  -2.0706686996467    -2.071E+00 3.779E-04 1.420E-01
 ETOT  2  -2.0708504705696    -1.818E-04 2.058E-11 7.651E-03
 ETOT  3  -2.0708591796550    -8.709E-06 1.869E-07 5.398E-04
 ETOT  4  -2.0708593102244    -1.306E-07 8.879E-10 1.175E-05
 ETOT  5  -2.0708593160092    -5.785E-09 1.412E-10 2.484E-06
 ETOT  6  -2.0708593161153    -1.061E-10 2.610E-12 5.270E-09
 ETOT  7  -2.0708593161178    -2.486E-12 2.591E-14 6.810E-11
 ETOT  8  -2.0708593161178    -3.286E-14 4.615E-16 3.471E-10
 ETOT  9  -2.0708593161178    -1.332E-15 3.165E-17 2.788E-12
 ETOT 10  -2.0708593161178     1.155E-14 8.931E-19 6.245E-14
 ETOT 11  -2.0708593161178    -1.732E-14 1.007E-21 5.319E-14
 ETOT 12  -2.0708593161179    -1.554E-14 8.770E-22 5.916E-16
 ETOT 13  -2.0708593161178     1.776E-14 5.038E-23 1.585E-17

 At SCF step   13   max residual=  5.04E-23 < tolwfr=  1.00E-22 =>converged.

 Cartesian components of stress tensor (hartree/bohr^3)
  sigma(1 1)=  2.26934445E-04  sigma(3 2)=  0.00000000E+00
  sigma(2 2)=  2.26934445E-04  sigma(3 1)=  0.00000000E+00
  sigma(3 3)=  2.26934445E-04  sigma(2 1)=  0.00000000E+00

================================================================================

 ----iterations are completed or convergence reached----

 Mean square residual over all n,k,spin=   3.5968E-23; max=  5.8101E-23
  -0.2500  0.5000  0.0000    1  5.03829E-23 kpt; spin; max resid(k); each band:
  4.41E-23 5.04E-23 4.15E-23 1.32E-24
   0.5000 -0.2500  0.0000    1  5.03826E-23 kpt; spin; max resid(k); each band:
  4.41E-23 5.04E-23 4.15E-23 5.73E-24
  -0.2500 -0.2500  0.2500    1  5.03826E-23 kpt; spin; max resid(k); each band:
  4.41E-23 5.04E-23 4.15E-23 1.33E-24
  -0.2500  0.0000  0.0000    1  4.82730E-23 kpt; spin; max resid(k); each band:
  1.64E-23 4.62E-23 4.83E-23 4.81E-23
   0.5000  0.2500  0.0000    1  5.03829E-23 kpt; spin; max resid(k); each band:
  4.41E-23 5.04E-23 4.15E-23 1.24E-24
  -0.2500  0.2500  0.2500    1  5.03810E-23 kpt; spin; max resid(k); each band:
  4.41E-23 5.04E-23 4.15E-23 1.32E-24
   0.2500  0.5000  0.0000    1  5.03822E-23 kpt; spin; max resid(k); each band:
  4.41E-23 5.04E-23 4.15E-23 1.24E-24
   0.5000  0.5000  0.2500    1  5.03823E-23 kpt; spin; max resid(k); each band:
  4.41E-23 5.04E-23 4.15E-23 8.62E-24
  -0.2500  0.5000  0.5000    1  5.03823E-23 kpt; spin; max resid(k); each band:
  4.41E-23 5.04E-23 4.15E-23 1.24E-24
   0.0000 -0.2500  0.0000    1  4.84121E-23 kpt; spin; max resid(k); each band:
  1.64E-23 4.62E-23 4.81E-23 4.84E-23
   0.2500 -0.2500  0.2500    1  5.03829E-23 kpt; spin; max resid(k); each band:
  4.41E-23 5.04E-23 4.15E-23 1.27E-24
   0.5000 -0.2500  0.5000    1  5.03813E-23 kpt; spin; max resid(k); each band:
  4.41E-23 5.04E-23 4.15E-23 1.29E-24
  -0.2500 -0.2500 -0.2500    1  5.81015E-23 kpt; spin; max resid(k); each band:
  1.64E-23 4.62E-23 5.81E-23 5.80E-23
   0.2500  0.0000  0.0000    1  4.84867E-23 kpt; spin; max resid(k); each band:
  1.64E-23 4.62E-23 4.83E-23 4.85E-23
   0.5000  0.0000  0.2500    1  5.03847E-23 kpt; spin; max resid(k); each band:
  4.41E-23 5.04E-23 4.15E-23 1.25E-24
  -0.2500  0.0000  0.5000    1  5.03842E-23 kpt; spin; max resid(k); each band:
  4.41E-23 5.04E-23 4.15E-23 1.27E-24
   0.0000  0.2500  0.0000    1  4.89000E-23 kpt; spin; max resid(k); each band:
  1.64E-23 4.62E-23 4.84E-23 4.89E-23
   0.2500  0.2500  0.2500    1  4.81192E-23 kpt; spin; max resid(k); each band:
  1.64E-23 4.62E-23 4.81E-23 4.81E-23
   0.5000  0.2500  0.5000    1  5.03818E-23 kpt; spin; max resid(k); each band:
  4.41E-23 5.04E-23 4.15E-23 1.25E-24
  -0.2500  0.2500 -0.2500    1  5.03821E-23 kpt; spin; max resid(k); each band:
  4.41E-23 5.04E-23 4.15E-23 1.38E-24
   0.0000  0.5000  0.2500    1  5.03822E-23 kpt; spin; max resid(k); each band:
  4.41E-23 5.04E-23 4.15E-23 1.32E-24
   0.2500  0.5000  0.5000    1  5.03823E-23 kpt; spin; max resid(k); each band:
  4.41E-23 5.04E-23 4.15E-23 1.26E-24
   0.5000  0.5000 -0.2500    1  5.03831E-23 kpt; spin; max resid(k); each band:
  4.41E-23 5.04E-23 4.15E-23 6.36E-24
   0.0000 -0.2500  0.5000    1  5.03803E-23 kpt; spin; max resid(k); each band:
  4.41E-23 5.04E-23 4.15E-23 1.24E-24
   0.2500 -0.2500 -0.2500    1  5.03814E-23 kpt; spin; max resid(k); each band:
  4.41E-23 5.04E-23 4.15E-23 1.27E-24
   0.0000  0.0000  0.2500    1  4.84642E-23 kpt; spin; max resid(k); each band:
  1.64E-23 4.62E-23 4.83E-23 4.85E-23
   0.2500  0.0000  0.5000    1  5.03846E-23 kpt; spin; max resid(k); each band:
  4.41E-23 5.04E-23 4.15E-23 1.24E-24
   0.5000  0.0000 -0.2500    1  5.03820E-23 kpt; spin; max resid(k); each band:
  4.41E-23 5.04E-23 4.15E-23 1.24E-24
   0.0000  0.2500  0.5000    1  5.03827E-23 kpt; spin; max resid(k); each band:
  4.41E-23 5.04E-23 4.15E-23 1.35E-24
   0.2500  0.2500 -0.2500    1  5.03824E-23 kpt; spin; max resid(k); each band:
  4.41E-23 5.04E-23 4.15E-23 1.33E-24
   0.0000  0.5000 -0.2500    1  5.03818E-23 kpt; spin; max resid(k); each band:
  4.41E-23 5.04E-23 4.15E-23 1.28E-24
   0.0000  0.0000 -0.2500    1  4.83136E-23 kpt; spin; max resid(k); each band:
  1.64E-23 4.62E-23 4.83E-23 4.82E-23
 reduced coordinates (array xred) for    1 atoms
       0.000000000000      0.000000000000      0.000000000000
 rms dE/dt=  0.0000E+00; max dE/dt=  0.0000E+00; dE/dt below (all hartree)
    1       0.000000000000      0.000000000000      0.000000000000

 cartesian coordinates (angstrom) at end:
    1      0.00000000000000     0.00000000000000     0.00000000000000

 cartesian forces (hartree/bohr) at end:
    1     -0.00000000000000    -0.00000000000000    -0.00000000000000
 frms,max,avg= 0.0000000E+00 0.0000000E+00   0.000E+00  0.000E+00  0.000E+00 h/b

 cartesian forces (eV/Angstrom) at end:
    1     -0.00000000000000    -0.00000000000000    -0.00000000000000
 frms,max,avg= 0.0000000E+00 0.0000000E+00   0.000E+00  0.000E+00  0.000E+00 e/A
 length scales=  7.600000000000  7.600000000000  7.600000000000 bohr
              =  4.021746785284  4.021746785284  4.021746785284 angstroms
 prteigrs : about to open file t35o_DS11_EIG
 Fermi (or HOMO) energy (hartree) =   0.26850   Average Vxc (hartree)=  -0.34665
 Eigenvalues (hartree) for nkpt=  32  k points:
 kpt#   1, nband=  4, wtk=  0.03125, kpt= -0.2500  0.5000  0.0000 (reduced coord)
   0.09736   0.25722   0.42393   0.54050
      occupation numbers for kpt#   1
   2.00000   1.33333   0.00000   0.00000
 kpt#   2, nband=  4, wtk=  0.03125, kpt=  0.5000 -0.2500  0.0000 (reduced coord)
   0.09736   0.25722   0.42393   0.54050
      occupation numbers for kpt#   2
   2.00000   1.33333   0.00000   0.00000
 kpt#   3, nband=  4, wtk=  0.03125, kpt= -0.2500 -0.2500  0.2500 (reduced coord)
   0.09736   0.25722   0.42393   0.54050
      occupation numbers for kpt#   3
   2.00000   1.33333   0.00000   0.00000
 kpt#   4, nband=  4, wtk=  0.03125, kpt= -0.2500  0.0000  0.0000 (reduced coord)
  -0.06100   0.41670   0.69420   0.69420
      occupation numbers for kpt#   4
   2.00000   0.00000   0.00000   0.00000
 kpt#   5, nband=  4, wtk=  0.03125, kpt=  0.5000  0.2500  0.0000 (reduced coord)
   0.09736   0.25722   0.42393   0.54050
      occupation numbers for kpt#   5
   2.00000   1.33333   0.00000   0.00000
 kpt#   6, nband=  4, wtk=  0.03125, kpt= -0.2500  0.2500  0.2500 (reduced coord)
   0.09736   0.25722   0.42393   0.54050
      occupation numbers for kpt#   6
   2.00000   1.33333   0.00000   0.00000
 kpt#   7, nband=  4, wtk=  0.03125, kpt=  0.2500  0.5000  0.0000 (reduced coord)
   0.09736   0.25722   0.42393   0.54050
      occupation numbers for kpt#   7
   2.00000   1.33333   0.00000   0.00000
 kpt#   8, nband=  4, wtk=  0.03125, kpt=  0.5000  0.5000  0.2500 (reduced coord)
   0.09736   0.25722   0.42393   0.54050
      occupation numbers for kpt#   8
   2.00000   1.33333   0.00000   0.00000
 kpt#   9, nband=  4, wtk=  0.03125, kpt= -0.2500  0.5000  0.5000 (reduced coord)
   0.09736   0.25722   0.42393   0.54050
      occupation numbers for kpt#   9
   2.00000   1.33333   0.00000   0.00000
 kpt#  10, nband=  4, wtk=  0.03125, kpt=  0.0000 -0.2500  0.0000 (reduced coord)
  -0.06100   0.41670   0.69420   0.69420
      occupation numbers for kpt#  10
   2.00000   0.00000   0.00000   0.00000
 kpt#  11, nband=  4, wtk=  0.03125, kpt=  0.2500 -0.2500  0.2500 (reduced coord)
   0.09736   0.25722   0.42393   0.54050
      occupation numbers for kpt#  11
   2.00000   1.33333   0.00000   0.00000
 kpt#  12, nband=  4, wtk=  0.03125, kpt=  0.5000 -0.2500  0.5000 (reduced coord)
   0.09736   0.25722   0.42393   0.54050
      occupation numbers for kpt#  12
   2.00000   1.33333   0.00000   0.00000
 kpt#  13, nband=  4, wtk=  0.03125, kpt= -0.2500 -0.2500 -0.2500 (reduced coord)
  -0.06100   0.41670   0.69420   0.69420
      occupation numbers for kpt#  13
   2.00000   0.00000   0.00000   0.00000
 kpt#  14, nband=  4, wtk=  0.03125, kpt=  0.2500  0.0000  0.0000 (reduced coord)
  -0.06100   0.41670   0.69420   0.69420
      occupation numbers for kpt#  14
   2.00000   0.00000   0.00000   0.00000
 kpt#  15, nband=  4, wtk=  0.03125, kpt=  0.5000  0.0000  0.2500 (reduced coord)
   0.09736   0.25722   0.42393   0.54050
      occupation numbers for kpt#  15
   2.00000   1.33333   0.00000   0.00000
 kpt#  16, nband=  4, wtk=  0.03125, kpt= -0.2500  0.0000  0.5000 (reduced coord)
   0.09736   0.25722   0.42393   0.54050
      occupation numbers for kpt#  16
   2.00000   1.33333   0.00000   0.00000
 kpt#  17, nband=  4, wtk=  0.03125, kpt=  0.0000  0.2500  0.0000 (reduced coord)
  -0.06100   0.41670   0.69420   0.69420
      occupation numbers for kpt#  17
   2.00000   0.00000   0.00000   0.00000
 kpt#  18, nband=  4, wtk=  0.03125, kpt=  0.2500  0.2500  0.2500 (reduced coord)
  -0.06100   0.41670   0.69420   0.69420
      occupation numbers for kpt#  18
   2.00000   0.00000   0.00000   0.00000
 kpt#  19, nband=  4, wtk=  0.03125, kpt=  0.5000  0.2500  0.5000 (reduced coord)
   0.09736   0.25722   0.42393   0.54050
      occupation numbers for kpt#  19
   2.00000   1.33333   0.00000   0.00000
 kpt#  20, nband=  4, wtk=  0.03125, kpt= -0.2500  0.2500 -0.2500 (reduced coord)
   0.09736   0.25722   0.42393   0.54050
      occupation numbers for kpt#  20
   2.00000   1.33333   0.00000   0.00000
 kpt#  21, nband=  4, wtk=  0.03125, kpt=  0.0000  0.5000  0.2500 (reduced coord)
   0.09736   0.25722   0.42393   0.54050
      occupation numbers for kpt#  21
   2.00000   1.33333   0.00000   0.00000
 kpt#  22, nband=  4, wtk=  0.03125, kpt=  0.2500  0.5000  0.5000 (reduced coord)
   0.09736   0.25722   0.42393   0.54050
      occupation numbers for kpt#  22
   2.00000   1.33333   0.00000   0.00000
 kpt#  23, nband=  4, wtk=  0.03125, kpt=  0.5000  0.5000 -0.2500 (reduced coord)
   0.09736   0.25722   0.42393   0.54050
      occupation numbers for kpt#  23
   2.00000   1.33333   0.00000   0.00000
 kpt#  24, nband=  4, wtk=  0.03125, kpt=  0.0000 -0.2500  0.5000 (reduced coord)
   0.09736   0.25722   0.42393   0.54050
      occupation numbers for kpt#  24
   2.00000   1.33333   0.00000   0.00000
 kpt#  25, nband=  4, wtk=  0.03125, kpt=  0.2500 -0.2500 -0.2500 (reduced coord)
   0.09736   0.25722   0.42393   0.54050
      occupation numbers for kpt#  25
   2.00000   1.33333   0.00000   0.00000
 kpt#  26, nband=  4, wtk=  0.03125, kpt=  0.0000  0.0000  0.2500 (reduced coord)
  -0.06100   0.41670   0.69420   0.69420
      occupation numbers for kpt#  26
   2.00000   0.00000   0.00000   0.00000
 kpt#  27, nband=  4, wtk=  0.03125, kpt=  0.2500  0.0000  0.5000 (reduced coord)
   0.09736   0.25722   0.42393   0.54050
      occupation numbers for kpt#  27
   2.00000   1.33333   0.00000   0.00000
 kpt#  28, nband=  4, wtk=  0.03125, kpt=  0.5000  0.0000 -0.2500 (reduced coord)
   0.09736   0.25722   0.42393   0.54050
      occupation numbers for kpt#  28
   2.00000   1.33333   0.00000   0.00000
 kpt#  29, nband=  4, wtk=  0.03125, kpt=  0.0000  0.2500  0.5000 (reduced coord)
   0.09736   0.25722   0.42393   0.54050
      occupation numbers for kpt#  29
   2.00000   1.33333   0.00000   0.00000
 kpt#  30, nband=  4, wtk=  0.03125, kpt=  0.2500  0.2500 -0.2500 (reduced coord)
   0.09736   0.25722   0.42393   0.54050
      occupation numbers for kpt#  30
   2.00000   1.33333   0.00000   0.00000
 kpt#  31, nband=  4, wtk=  0.03125, kpt=  0.0000  0.5000 -0.2500 (reduced coord)
   0.09736   0.25722   0.42393   0.54050
      occupation numbers for kpt#  31
   2.00000   1.33333   0.00000   0.00000
 kpt#  32, nband=  4, wtk=  0.03125, kpt=  0.0000  0.0000 -0.2500 (reduced coord)
  -0.06100   0.41670   0.69420   0.69420
      occupation numbers for kpt#  32
   2.00000   0.00000   0.00000   0.00000
 Total charge density [el/Bohr^3]
,     Maximum=    3.2386E-02  at reduced coord.    0.0000    0.5000    0.5000
,Next maximum=    3.2386E-02  at reduced coord.    0.5000    0.0000    0.5000
,     Minimum=    1.0220E-02  at reduced coord.    0.0000    0.0000    0.0000
,Next minimum=    1.2521E-02  at reduced coord.    0.0833    0.0000    0.0000
,  Integrated=    3.0000E+00

--------------------------------------------------------------------------------
 Components of total free energy (in Hartree) :

    Kinetic energy  =  8.30392229136718E-01
    Hartree energy  =  3.42093688003172E-03
    XC energy       = -8.03389783826951E-01
    Ewald energy    = -2.71472096493581E+00
    PspCore energy  =  3.72610088794072E-02
    Loc. psp. energy=  1.04303458072185E-01
    NL   psp  energy=  4.78250417808703E-01
    >>>>> Internal E= -2.06448269798572E+00

    -kT*entropy     = -6.37661813212434E-03
    >>>>>>>>> Etotal= -2.07085931611784E+00

 Other information on the energy :
    Total energy(eV)= -5.63509477709397E+01 ; Band energy (Ha)=   3.7276547209E-01
--------------------------------------------------------------------------------

 Cartesian components of stress tensor (hartree/bohr^3)
  sigma(1 1)=  2.26934445E-04  sigma(3 2)=  0.00000000E+00
  sigma(2 2)=  2.26934445E-04  sigma(3 1)=  0.00000000E+00
  sigma(3 3)=  2.26934445E-04  sigma(2 1)=  0.00000000E+00

-Cartesian components of stress tensor (GPa)         [Pressure= -6.6766E+00 GPa]
- sigma(1 1)=  6.67664076E+00  sigma(3 2)=  0.00000000E+00
- sigma(2 2)=  6.67664076E+00  sigma(3 1)=  0.00000000E+00
- sigma(3 3)=  6.67664076E+00  sigma(2 1)=  0.00000000E+00

================================================================================
== DATASET 12 ==================================================================
-   nproc =    1

 mkfilename : getwfk/=0, take file _WFK from output of DATASET  11.

 mkfilename : getden/=0, take file _DEN from output of DATASET  11.

 Exchange-correlation functional for the present dataset will be:
  LDA: Perdew-Wang 92 LSD fit to Ceperley-Alder data - ixc=7
 Citation for XC functional:
  J.P.Perdew and Y.Wang, PRB 45, 13244 (1992)

 Real(R)+Recip(G) space primitive vectors, cartesian coordinates (Bohr,Bohr^-1):
 R(1)=  0.0000000  3.8000000  3.8000000  G(1)= -0.1315789  0.1315789  0.1315789
 R(2)=  3.8000000  0.0000000  3.8000000  G(2)=  0.1315789 -0.1315789  0.1315789
 R(3)=  3.8000000  3.8000000  0.0000000  G(3)=  0.1315789  0.1315789 -0.1315789
 Unit cell volume ucvol=  1.0974400E+02 bohr^3
 Angles (23,13,12)=  6.00000000E+01  6.00000000E+01  6.00000000E+01 degrees
 setup1 : take into account q-point for computing boxcut.

 getcut: wavevector=  0.0000  0.0000  0.0000  ngfft=  12  12  12
         ecut(hartree)=      2.500   => boxcut(ratio)=   3.13724

 getcut : COMMENT -
  Note that boxcut > 2.2 ; recall that boxcut=Gcut(box)/Gcut(sphere) = 2
  is sufficient for exact treatment of convolution.
  Such a large boxcut is a waste : you could raise ecut
  e.g. ecut=    6.151415 Hartrees makes boxcut=2

--------------------------------------------------------------------------------

-inwffil : will read wavefunctions from disk file t35o_DS11_WFK
P newkpt: treating      4 bands with npw=      22 for ikpt=   1 by node    0
P newkpt: treating      4 bands with npw=      22 for ikpt=   2 by node    0
P newkpt: treating      4 bands with npw=      22 for ikpt=   3 by node    0
P newkpt: treating      4 bands with npw=      18 for ikpt=   4 by node    0
P newkpt: treating      4 bands with npw=      22 for ikpt=   5 by node    0
P newkpt: treating      4 bands with npw=      22 for ikpt=   6 by node    0
P newkpt: treating      4 bands with npw=      22 for ikpt=   7 by node    0
P newkpt: treating      4 bands with npw=      22 for ikpt=   8 by node    0
P newkpt: treating      4 bands with npw=      22 for ikpt=   9 by node    0
P newkpt: treating      4 bands with npw=      18 for ikpt=  10 by node    0
P newkpt: treating      4 bands with npw=      22 for ikpt=  11 by node    0
P newkpt: treating      4 bands with npw=      22 for ikpt=  12 by node    0
P newkpt: treating      4 bands with npw=      18 for ikpt=  13 by node    0
P newkpt: treating      4 bands with npw=      18 for ikpt=  14 by node    0
P newkpt: treating      4 bands with npw=      22 for ikpt=  15 by node    0
P newkpt: treating      4 bands with npw=      22 for ikpt=  16 by node    0
P newkpt: treating      4 bands with npw=      18 for ikpt=  17 by node    0
P newkpt: treating      4 bands with npw=      18 for ikpt=  18 by node    0
P newkpt: treating      4 bands with npw=      22 for ikpt=  19 by node    0
P newkpt: treating      4 bands with npw=      22 for ikpt=  20 by node    0
P newkpt: treating      4 bands with npw=      22 for ikpt=  21 by node    0
P newkpt: treating      4 bands with npw=      22 for ikpt=  22 by node    0
P newkpt: treating      4 bands with npw=      22 for ikpt=  23 by node    0
P newkpt: treating      4 bands with npw=      22 for ikpt=  24 by node    0
P newkpt: treating      4 bands with npw=      22 for ikpt=  25 by node    0
P newkpt: treating      4 bands with npw=      18 for ikpt=  26 by node    0
P newkpt: treating      4 bands with npw=      22 for ikpt=  27 by node    0
P newkpt: treating      4 bands with npw=      22 for ikpt=  28 by node    0
P newkpt: treating      4 bands with npw=      22 for ikpt=  29 by node    0
P newkpt: treating      4 bands with npw=      22 for ikpt=  30 by node    0
P newkpt: treating      4 bands with npw=      22 for ikpt=  31 by node    0
P newkpt: treating      4 bands with npw=      18 for ikpt=  32 by node    0


 ==>  initialize data related to q vector <== 

 The list of irreducible perturbations for this q vector is:
    1)    idir= 1    ipert=   1

================================================================================

 The perturbation idir=   2  ipert=   1 is
 symmetric of a previously calculated perturbation.
 So, its SCF calculation is not needed.


 The perturbation idir=   3  ipert=   1 is
 symmetric of a previously calculated perturbation.
 So, its SCF calculation is not needed.


--------------------------------------------------------------------------------
 Perturbation wavevector (in red.coord.)   0.000000  0.000000  0.000000
 Perturbation : displacement of atom   1   along direction   1
 Found     4 symmetries that leave the perturbation invariant.
 symkpt : the number of k-points, thanks to the symmetries,
 is reduced to     6 .

--------------------------------------------------------------------------------

-inwffil : will read wavefunctions from disk file t35o_DS11_WFK
- newkpt: read input wf with ikpt,npw=   1      22, make ikpt,npw=   1      22
- newkpt: read input wf with ikpt,npw=   2      22, make ikpt,npw=   2      22
- newkpt: read input wf with ikpt,npw=   4      18, make ikpt,npw=   3      18
- newkpt: read input wf with ikpt,npw=   6      22, make ikpt,npw=   4      22
- newkpt: read input wf with ikpt,npw=  10      18, make ikpt,npw=   5      18
- newkpt: read input wf with ikpt,npw=  21      22, make ikpt,npw=   6      22

--------------------------------------------------------------------------------

-inwffil : will read wavefunctions from disk file t35o_DS11_WFK
- newkpt: read input wf with ikpt,npw=   1      22, make ikpt,npw=   1      22
- newkpt: read input wf with ikpt,npw=   2      22, make ikpt,npw=   2      22
- newkpt: read input wf with ikpt,npw=   4      18, make ikpt,npw=   3      18
- newkpt: read input wf with ikpt,npw=   6      22, make ikpt,npw=   4      22
- newkpt: read input wf with ikpt,npw=  10      18, make ikpt,npw=   5      18
- newkpt: read input wf with ikpt,npw=  21      22, make ikpt,npw=   6      22

 loper3 : total number of electrons, from k and k+q
  fully or partially occupied states are    3.000000E+00 and    3.000000E+00.
 Initialisation of the first-order wave-functions :
  ireadwf=   0
P newkpt: treating      4 bands with npw=      22 for ikpt=   1 by node    0
P newkpt: treating      4 bands with npw=      22 for ikpt=   2 by node    0
P newkpt: treating      4 bands with npw=      18 for ikpt=   3 by node    0
P newkpt: treating      4 bands with npw=      22 for ikpt=   4 by node    0
P newkpt: treating      4 bands with npw=      18 for ikpt=   5 by node    0
P newkpt: treating      4 bands with npw=      22 for ikpt=   6 by node    0


     iter   2DEtotal(Ha)        deltaE(Ha) residm    vres2
-ETOT  1  1.89263718018129E-03 -3.332E+00 5.573E-04 1.931E+00
 ETOT  2  4.96777969187789E-05 -1.843E-03 8.980E-07 3.908E-02
 ETOT  3  1.06695276169688E-06 -4.861E-05 2.658E-08 3.895E-05
 ETOT  4  9.75292043570164E-07 -9.166E-08 9.028E-11 1.997E-07
 ETOT  5  9.74646561680004E-07 -6.455E-10 6.750E-13 6.904E-10
 ETOT  6  9.74644934537139E-07 -1.627E-12 1.265E-15 6.896E-13

 At SCF step    6       vres2   =  6.90E-13 < tolvrs=  1.00E-10 =>converged.
================================================================================

 ----iterations are completed or convergence reached----

 Mean square residual over all n,k,spin=  -5.0000E-02; max=  1.2652E-15
  -0.2500  0.5000  0.0000    1  1.20277E-15 kpt; spin; max resid(k); each band:
  1.20E-15 2.08E-16-1.00E-01-1.00E-01
   0.5000 -0.2500  0.0000    1  1.26516E-15 kpt; spin; max resid(k); each band:
  1.27E-15 2.55E-16-1.00E-01-1.00E-01
  -0.2500  0.0000  0.0000    1  3.05190E-16 kpt; spin; max resid(k); each band:
  1.05E-16 3.05E-16-1.00E-01-1.00E-01
  -0.2500  0.2500  0.2500    1  5.66411E-16 kpt; spin; max resid(k); each band:
  2.53E-16 5.66E-16-1.00E-01-1.00E-01
   0.0000 -0.2500  0.0000    1  3.38506E-16 kpt; spin; max resid(k); each band:
  3.39E-16 3.40E-18-1.00E-01-1.00E-01
   0.0000  0.5000  0.2500    1  1.13619E-15 kpt; spin; max resid(k); each band:
  1.14E-15 4.74E-16-1.00E-01-1.00E-01

 Thirteen components of 2nd-order total energy (hartree) are
 1,2,3: 0th-order hamiltonian combined with 1st-order wavefunctions
     kin0=   3.53015565E+00 eigvalue=  -3.95949939E-01  local=  -1.61385526E+00
 4,5,6: 1st-order hamiltonian combined with 1st and 0th-order wfs
 loc psp =   6.01131282E+00  Hartree=   2.02189926E-01     xc=  -2.31546053E-01
 note that "loc psp" includes a xc core correction that could be resolved
 7,8,9: eventually, occupation + non-local contributions
    edocc=   4.39957499E-01     enl0=   1.40327777E+00   enl1=  -1.26797719E+01
 1-9 gives the relaxation energy (to be shifted if some occ is /=2.0)
   erelax=  -3.33422953E+00
 10,11,12 Non-relaxation  contributions : frozen-wavefunctions and Ewald
 fr.local=  -3.00565675E+00 fr.nonlo=   6.33988726E+00  Ewald=   0.00000000E+00
 13,14 Frozen wf xc core corrections (1) and (2)
 frxc 1  =   0.00000000E+00  frxc 2 =   0.00000000E+00
 Resulting in :
 2DEtotal=    0.9746449345E-06 Ha. Also 2DEtotal=    0.265214374409E-04 eV
    (2DErelax=   -3.3342295295E+00 Ha. 2DEnonrelax=    3.3342305042E+00 Ha)
    (  non-var. 2DEtotal :    9.3808597246E-07 Ha)

================================================================================

 ---- first-order wavefunction calculations are completed ----


 ==> Compute Derivative Database <==
  
  2nd-order matrix (non-cartesian coordinates, masses not included,
   asr not included )
     j1       j2             matrix element
  dir pert dir pert     real part     imaginary part
  
   1    1   1    1         0.0000009381         0.0000000000
   1    1   2    1         0.0000004690         0.0000000000
   1    1   3    1         0.0000004690         0.0000000000
   1    1   2    3         0.0000000000         0.0000000000
   1    1   3    3         0.0000000000         0.0000000000
  
   2    1   1    1         0.0000004690         0.0000000000
   2    1   2    1         0.0000009381         0.0000000000
   2    1   3    1         0.0000004690         0.0000000000
   2    1   1    3         0.0000000000         0.0000000000
   2    1   3    3         0.0000000000         0.0000000000
  
   3    1   1    1         0.0000004690         0.0000000000
   3    1   2    1         0.0000004690         0.0000000000
   3    1   3    1         0.0000009381         0.0000000000
   3    1   1    3         0.0000000000         0.0000000000
   3    1   2    3         0.0000000000         0.0000000000
  
   1    3   2    1         0.0000000000         0.0000000000
   1    3   3    1         0.0000000000         0.0000000000
  
   2    3   1    1         0.0000000000         0.0000000000
   2    3   3    1         0.0000000000         0.0000000000
  
   3    3   1    1         0.0000000000         0.0000000000
   3    3   2    1         0.0000000000         0.0000000000
  
  
  Dynamical matrix, in cartesian coordinates,
   if specified in the inputs, asr has been imposed
     j1       j2             matrix element
  dir pert dir pert     real part    imaginary part
  
   1    1   1    1         0.0000000325         0.0000000000
   1    1   2    1         0.0000000000         0.0000000000
   1    1   3    1         0.0000000000         0.0000000000
  
   2    1   1    1         0.0000000000         0.0000000000
   2    1   2    1         0.0000000325         0.0000000000
   2    1   3    1        -0.0000000000         0.0000000000
  
   3    1   1    1         0.0000000000         0.0000000000
   3    1   2    1        -0.0000000000         0.0000000000
   3    1   3    1         0.0000000325         0.0000000000
 
  Phonon wavevector (reduced coordinates) :  0.00000  0.00000  0.00000
 Phonon energies in Hartree :
   8.126619E-07  8.126625E-07  8.126642E-07
 Phonon frequencies in cm-1    :
-  1.783587E-01  1.783588E-01  1.783592E-01

================================================================================
== DATASET 21 ==================================================================
-   nproc =    1

 mkfilename : getwfk/=0, take file _WFK from output of DATASET  11.

 mkfilename : getden/=0, take file _DEN from output of DATASET  11.

 Exchange-correlation functional for the present dataset will be:
  LDA: Perdew-Wang 92 LSD fit to Ceperley-Alder data - ixc=7
 Citation for XC functional:
  J.P.Perdew and Y.Wang, PRB 45, 13244 (1992)

 Real(R)+Recip(G) space primitive vectors, cartesian coordinates (Bohr,Bohr^-1):
 R(1)=  0.0000000  3.8000000  3.8000000  G(1)= -0.1315789  0.1315789  0.1315789
 R(2)=  3.8000000  0.0000000  3.8000000  G(2)=  0.1315789 -0.1315789  0.1315789
 R(3)=  3.8000000  3.8000000  0.0000000  G(3)=  0.1315789  0.1315789 -0.1315789
 Unit cell volume ucvol=  1.0974400E+02 bohr^3
 Angles (23,13,12)=  6.00000000E+01  6.00000000E+01  6.00000000E+01 degrees

 getcut: wavevector=  0.0000  0.0000  0.0000  ngfft=  12  12  12
         ecut(hartree)=      2.500   => boxcut(ratio)=   3.13724

 getcut : COMMENT -
  Note that boxcut > 2.2 ; recall that boxcut=Gcut(box)/Gcut(sphere) = 2
  is sufficient for exact treatment of convolution.
  Such a large boxcut is a waste : you could raise ecut
  e.g. ecut=    6.151415 Hartrees makes boxcut=2

--------------------------------------------------------------------------------

-inwffil : will read wavefunctions from disk file t35o_DS11_WFK
- newkpt: read input wf with ikpt,npw=  13      18, make ikpt,npw=   1      18
- newkpt: read input wf with ikpt,npw=  28      22, make ikpt,npw=   2      22
- newkpt: read input wf with ikpt,npw=   4      18, make ikpt,npw=   3      18
- newkpt: read input wf with ikpt,npw=  20      22, make ikpt,npw=   4      22
- newkpt: read input wf with ikpt,npw=  23      22, make ikpt,npw=   5      22
- newkpt: read input wf with ikpt,npw=   1      22, make ikpt,npw=   6      22
- newkpt: read input wf with ikpt,npw=  25      22, make ikpt,npw=   7      22
- newkpt: read input wf with ikpt,npw=   2      22, make ikpt,npw=   8      22
- newkpt: read input wf with ikpt,npw=   3      22, make ikpt,npw=   9      22
- newkpt: read input wf with ikpt,npw=  32      18, make ikpt,npw=  10      18
- newkpt: read input wf with ikpt,npw=  14      18, make ikpt,npw=  11      18
- newkpt: read input wf with ikpt,npw=  15      22, make ikpt,npw=  12      22
- newkpt: read input wf with ikpt,npw=  16      22, make ikpt,npw=  13      22
- newkpt: read input wf with ikpt,npw=  30      22, make ikpt,npw=  14      22
- newkpt: read input wf with ikpt,npw=   5      22, make ikpt,npw=  15      22
- newkpt: read input wf with ikpt,npw=   6      22, make ikpt,npw=  16      22
- newkpt: read input wf with ikpt,npw=  31      22, make ikpt,npw=  17      22
- newkpt: read input wf with ikpt,npw=   7      22, make ikpt,npw=  18      22
- newkpt: read input wf with ikpt,npw=   8      22, make ikpt,npw=  19      22
- newkpt: read input wf with ikpt,npw=   9      22, make ikpt,npw=  20      22
- newkpt: read input wf with ikpt,npw=  10      18, make ikpt,npw=  21      18
- newkpt: read input wf with ikpt,npw=  11      22, make ikpt,npw=  22      22
- newkpt: read input wf with ikpt,npw=  12      22, make ikpt,npw=  23      22
- newkpt: read input wf with ikpt,npw=  26      18, make ikpt,npw=  24      18
- newkpt: read input wf with ikpt,npw=  27      22, make ikpt,npw=  25      22
- newkpt: read input wf with ikpt,npw=  17      18, make ikpt,npw=  26      18
- newkpt: read input wf with ikpt,npw=  18      18, make ikpt,npw=  27      18
- newkpt: read input wf with ikpt,npw=  19      22, make ikpt,npw=  28      22
- newkpt: read input wf with ikpt,npw=  21      22, make ikpt,npw=  29      22
- newkpt: read input wf with ikpt,npw=  22      22, make ikpt,npw=  30      22
- newkpt: read input wf with ikpt,npw=  24      22, make ikpt,npw=  31      22
- newkpt: read input wf with ikpt,npw=  29      22, make ikpt,npw=  32      22


================================================================================
 prteigrs : about to open file t35o_DS21_EIG
 Non-SCF case, kpt    1 ( -0.25000  0.75000 -0.25000), residuals and eigenvalues=
  1.48E-23  4.05E-23  4.78E-23  4.78E-23
 -6.0995E-02  4.1670E-01  6.9420E-01  6.9420E-01
 Non-SCF case, kpt    2 (  0.50000 -0.00000 -0.25000), residuals and eigenvalues=
  1.47E-23  1.81E-23  1.99E-23  5.49E-24
  9.7362E-02  2.5722E-01  4.2393E-01  5.4050E-01
 Non-SCF case, kpt    3 ( -0.25000 -0.00000 -0.00000), residuals and eigenvalues=
  1.48E-23  4.05E-23  3.58E-23  3.57E-23
 -6.0995E-02  4.1670E-01  6.9420E-01  6.9420E-01
 Non-SCF case, kpt    4 ( -0.25000  0.25000 -0.25000), residuals and eigenvalues=
  1.47E-23  1.81E-23  1.99E-23  5.49E-24
  9.7362E-02  2.5722E-01  4.2393E-01  5.4050E-01
 Non-SCF case, kpt    5 (  0.50000  0.50000 -0.25000), residuals and eigenvalues=
  1.47E-23  1.81E-23  1.99E-23  7.02E-24
  9.7362E-02  2.5722E-01  4.2393E-01  5.4050E-01
 Non-SCF case, kpt    6 ( -0.25000  0.50000 -0.00000), residuals and eigenvalues=
  1.47E-23  1.81E-23  1.99E-23  5.49E-24
  9.7362E-02  2.5722E-01  4.2393E-01  5.4050E-01
 Non-SCF case, kpt    7 (  0.25000  0.75000 -0.25000), residuals and eigenvalues=
  1.47E-23  1.81E-23  1.99E-23  5.57E-24
  9.7362E-02  2.5722E-01  4.2393E-01  5.4050E-01
 Non-SCF case, kpt    8 (  0.50000  0.75000 -0.00000), residuals and eigenvalues=
  1.47E-23  1.81E-23  1.99E-23  6.73E-24
  9.7362E-02  2.5722E-01  4.2393E-01  5.4050E-01
 Non-SCF case, kpt    9 ( -0.25000  0.75000  0.25000), residuals and eigenvalues=
  1.47E-23  1.81E-23  1.99E-23  5.49E-24
  9.7362E-02  2.5722E-01  4.2393E-01  5.4050E-01
 Non-SCF case, kpt   10 (  0.00000 -0.00000 -0.25000), residuals and eigenvalues=
  1.48E-23  4.05E-23  3.59E-23  3.58E-23
 -6.0995E-02  4.1670E-01  6.9420E-01  6.9420E-01
 Non-SCF case, kpt   11 (  0.25000 -0.00000 -0.00000), residuals and eigenvalues=
  1.48E-23  4.05E-23  3.59E-23  3.61E-23
 -6.0995E-02  4.1670E-01  6.9420E-01  6.9420E-01
 Non-SCF case, kpt   12 (  0.50000 -0.00000  0.25000), residuals and eigenvalues=
  1.47E-23  1.81E-23  1.99E-23  5.51E-24
  9.7362E-02  2.5722E-01  4.2393E-01  5.4050E-01
 Non-SCF case, kpt   13 ( -0.25000 -0.00000 -0.50000), residuals and eigenvalues=
  1.47E-23  1.81E-23  1.99E-23  5.57E-24
  9.7362E-02  2.5722E-01  4.2393E-01  5.4050E-01
 Non-SCF case, kpt   14 (  0.25000  0.25000 -0.25000), residuals and eigenvalues=
  1.47E-23  1.81E-23  1.99E-23  5.49E-24
  9.7362E-02  2.5722E-01  4.2393E-01  5.4050E-01
 Non-SCF case, kpt   15 (  0.50000  0.25000 -0.00000), residuals and eigenvalues=
  1.47E-23  1.81E-23  1.99E-23  5.50E-24
  9.7362E-02  2.5722E-01  4.2393E-01  5.4050E-01
 Non-SCF case, kpt   16 ( -0.25000  0.25000  0.25000), residuals and eigenvalues=
  1.47E-23  1.81E-23  1.99E-23  5.58E-24
  9.7362E-02  2.5722E-01  4.2393E-01  5.4050E-01
 Non-SCF case, kpt   17 (  0.00000  0.50000 -0.25000), residuals and eigenvalues=
  1.47E-23  1.81E-23  1.99E-23  5.58E-24
  9.7362E-02  2.5722E-01  4.2393E-01  5.4050E-01
 Non-SCF case, kpt   18 (  0.25000  0.50000 -0.00000), residuals and eigenvalues=
  1.47E-23  1.81E-23  1.99E-23  5.54E-24
  9.7362E-02  2.5722E-01  4.2393E-01  5.4050E-01
 Non-SCF case, kpt   19 (  0.50000  0.50000  0.25000), residuals and eigenvalues=
  1.47E-23  1.81E-23  1.99E-23  7.95E-24
  9.7362E-02  2.5722E-01  4.2393E-01  5.4050E-01
 Non-SCF case, kpt   20 ( -0.25000  0.50000 -0.50000), residuals and eigenvalues=
  1.47E-23  1.81E-23  1.99E-23  5.54E-24
  9.7362E-02  2.5722E-01  4.2393E-01  5.4050E-01
 Non-SCF case, kpt   21 (  0.00000  0.75000 -0.00000), residuals and eigenvalues=
  1.48E-23  4.05E-23  3.56E-23  3.60E-23
 -6.0995E-02  4.1670E-01  6.9420E-01  6.9420E-01
 Non-SCF case, kpt   22 (  0.25000  0.75000  0.25000), residuals and eigenvalues=
  1.47E-23  1.81E-23  1.99E-23  5.57E-24
  9.7362E-02  2.5722E-01  4.2393E-01  5.4050E-01
 Non-SCF case, kpt   23 (  0.50000  0.75000 -0.50000), residuals and eigenvalues=
  1.47E-23  1.81E-23  1.99E-23  5.58E-24
  9.7362E-02  2.5722E-01  4.2393E-01  5.4050E-01
 Non-SCF case, kpt   24 (  0.00000 -0.00000  0.25000), residuals and eigenvalues=
  1.48E-23  4.05E-23  3.58E-23  3.61E-23
 -6.0995E-02  4.1670E-01  6.9420E-01  6.9420E-01
 Non-SCF case, kpt   25 (  0.25000 -0.00000 -0.50000), residuals and eigenvalues=
  1.47E-23  1.81E-23  1.99E-23  5.54E-24
  9.7362E-02  2.5722E-01  4.2393E-01  5.4050E-01
 Non-SCF case, kpt   26 (  0.00000  0.25000 -0.00000), residuals and eigenvalues=
  1.48E-23  4.05E-23  3.60E-23  3.66E-23
 -6.0995E-02  4.1670E-01  6.9420E-01  6.9420E-01
 Non-SCF case, kpt   27 (  0.25000  0.25000  0.25000), residuals and eigenvalues=
  1.48E-23  4.05E-23  3.57E-23  3.57E-23
 -6.0995E-02  4.1670E-01  6.9420E-01  6.9420E-01
 Non-SCF case, kpt   28 (  0.50000  0.25000 -0.50000), residuals and eigenvalues=
  1.47E-23  1.81E-23  1.99E-23  5.51E-24
  9.7362E-02  2.5722E-01  4.2393E-01  5.4050E-01
 Non-SCF case, kpt   29 (  0.00000  0.50000  0.25000), residuals and eigenvalues=
  1.47E-23  1.81E-23  1.99E-23  5.49E-24
  9.7362E-02  2.5722E-01  4.2393E-01  5.4050E-01
 Non-SCF case, kpt   30 (  0.25000  0.50000 -0.50000), residuals and eigenvalues=
  1.47E-23  1.81E-23  1.99E-23  5.55E-24
  9.7362E-02  2.5722E-01  4.2393E-01  5.4050E-01
 Non-SCF case, kpt   31 (  0.00000  0.75000 -0.50000), residuals and eigenvalues=
  1.47E-23  1.81E-23  1.99E-23  5.50E-24
  9.7362E-02  2.5722E-01  4.2393E-01  5.4050E-01
 Non-SCF case, kpt   32 (  0.00000  0.25000 -0.50000), residuals and eigenvalues=
  1.47E-23  1.81E-23  1.99E-23  5.49E-24
  9.7362E-02  2.5722E-01  4.2393E-01  5.4050E-01
================================================================================

 ----iterations are completed or convergence reached----

 Mean square residual over all n,k,spin=   1.9081E-23; max=  4.7845E-23
  -0.2500  0.7500 -0.2500    1  4.78455E-23 kpt; spin; max resid(k); each band:
  1.48E-23 4.05E-23 4.78E-23 4.78E-23
   0.5000 -0.0000 -0.2500    1  1.99074E-23 kpt; spin; max resid(k); each band:
  1.47E-23 1.81E-23 1.99E-23 5.49E-24
  -0.2500 -0.0000 -0.0000    1  4.05120E-23 kpt; spin; max resid(k); each band:
  1.48E-23 4.05E-23 3.58E-23 3.57E-23
  -0.2500  0.2500 -0.2500    1  1.99073E-23 kpt; spin; max resid(k); each band:
  1.47E-23 1.81E-23 1.99E-23 5.49E-24
   0.5000  0.5000 -0.2500    1  1.99069E-23 kpt; spin; max resid(k); each band:
  1.47E-23 1.81E-23 1.99E-23 7.02E-24
  -0.2500  0.5000 -0.0000    1  1.99060E-23 kpt; spin; max resid(k); each band:
  1.47E-23 1.81E-23 1.99E-23 5.49E-24
   0.2500  0.7500 -0.2500    1  1.99050E-23 kpt; spin; max resid(k); each band:
  1.47E-23 1.81E-23 1.99E-23 5.57E-24
   0.5000  0.7500 -0.0000    1  1.99053E-23 kpt; spin; max resid(k); each band:
  1.47E-23 1.81E-23 1.99E-23 6.73E-24
  -0.2500  0.7500  0.2500    1  1.99078E-23 kpt; spin; max resid(k); each band:
  1.47E-23 1.81E-23 1.99E-23 5.49E-24
   0.0000 -0.0000 -0.2500    1  4.05111E-23 kpt; spin; max resid(k); each band:
  1.48E-23 4.05E-23 3.59E-23 3.58E-23
   0.2500 -0.0000 -0.0000    1  4.05109E-23 kpt; spin; max resid(k); each band:
  1.48E-23 4.05E-23 3.59E-23 3.61E-23
   0.5000 -0.0000  0.2500    1  1.99076E-23 kpt; spin; max resid(k); each band:
  1.47E-23 1.81E-23 1.99E-23 5.51E-24
  -0.2500 -0.0000 -0.5000    1  1.99063E-23 kpt; spin; max resid(k); each band:
  1.47E-23 1.81E-23 1.99E-23 5.57E-24
   0.2500  0.2500 -0.2500    1  1.99069E-23 kpt; spin; max resid(k); each band:
  1.47E-23 1.81E-23 1.99E-23 5.49E-24
   0.5000  0.2500 -0.0000    1  1.99069E-23 kpt; spin; max resid(k); each band:
  1.47E-23 1.81E-23 1.99E-23 5.50E-24
  -0.2500  0.2500  0.2500    1  1.99065E-23 kpt; spin; max resid(k); each band:
  1.47E-23 1.81E-23 1.99E-23 5.58E-24
   0.0000  0.5000 -0.2500    1  1.99059E-23 kpt; spin; max resid(k); each band:
  1.47E-23 1.81E-23 1.99E-23 5.58E-24
   0.2500  0.5000 -0.0000    1  1.99065E-23 kpt; spin; max resid(k); each band:
  1.47E-23 1.81E-23 1.99E-23 5.54E-24
   0.5000  0.5000  0.2500    1  1.99059E-23 kpt; spin; max resid(k); each band:
  1.47E-23 1.81E-23 1.99E-23 7.95E-24
  -0.2500  0.5000 -0.5000    1  1.99052E-23 kpt; spin; max resid(k); each band:
  1.47E-23 1.81E-23 1.99E-23 5.54E-24
   0.0000  0.7500 -0.0000    1  4.05110E-23 kpt; spin; max resid(k); each band:
  1.48E-23 4.05E-23 3.56E-23 3.60E-23
   0.2500  0.7500  0.2500    1  1.99061E-23 kpt; spin; max resid(k); each band:
  1.47E-23 1.81E-23 1.99E-23 5.57E-24
   0.5000  0.7500 -0.5000    1  1.99054E-23 kpt; spin; max resid(k); each band:
  1.47E-23 1.81E-23 1.99E-23 5.58E-24
   0.0000 -0.0000  0.2500    1  4.05086E-23 kpt; spin; max resid(k); each band:
  1.48E-23 4.05E-23 3.58E-23 3.61E-23
   0.2500 -0.0000 -0.5000    1  1.99053E-23 kpt; spin; max resid(k); each band:
  1.47E-23 1.81E-23 1.99E-23 5.54E-24
   0.0000  0.2500 -0.0000    1  4.05086E-23 kpt; spin; max resid(k); each band:
  1.48E-23 4.05E-23 3.60E-23 3.66E-23
   0.2500  0.2500  0.2500    1  4.05106E-23 kpt; spin; max resid(k); each band:
  1.48E-23 4.05E-23 3.57E-23 3.57E-23
   0.5000  0.2500 -0.5000    1  1.99052E-23 kpt; spin; max resid(k); each band:
  1.47E-23 1.81E-23 1.99E-23 5.51E-24
   0.0000  0.5000  0.2500    1  1.99061E-23 kpt; spin; max resid(k); each band:
  1.47E-23 1.81E-23 1.99E-23 5.49E-24
   0.2500  0.5000 -0.5000    1  1.99062E-23 kpt; spin; max resid(k); each band:
  1.47E-23 1.81E-23 1.99E-23 5.55E-24
   0.0000  0.7500 -0.5000    1  1.99058E-23 kpt; spin; max resid(k); each band:
  1.47E-23 1.81E-23 1.99E-23 5.50E-24
   0.0000  0.2500 -0.5000    1  1.99071E-23 kpt; spin; max resid(k); each band:
  1.47E-23 1.81E-23 1.99E-23 5.49E-24
 reduced coordinates (array xred) for    1 atoms
       0.000000000000      0.000000000000      0.000000000000

 cartesian coordinates (angstrom) at end:
    1      0.00000000000000     0.00000000000000     0.00000000000000
 length scales=  7.600000000000  7.600000000000  7.600000000000 bohr
              =  4.021746785284  4.021746785284  4.021746785284 angstroms
 prteigrs : about to open file t35o_DS21_EIG
 Eigenvalues (hartree) for nkpt=  32  k points:
 kpt#   1, nband=  4, wtk=  0.03125, kpt= -0.2500  0.7500 -0.2500 (reduced coord)
  -0.06100   0.41670   0.69420   0.69420
 kpt#   2, nband=  4, wtk=  0.03125, kpt=  0.5000  0.0000 -0.2500 (reduced coord)
   0.09736   0.25722   0.42393   0.54050
 kpt#   3, nband=  4, wtk=  0.03125, kpt= -0.2500  0.0000  0.0000 (reduced coord)
  -0.06100   0.41670   0.69420   0.69420
 kpt#   4, nband=  4, wtk=  0.03125, kpt= -0.2500  0.2500 -0.2500 (reduced coord)
   0.09736   0.25722   0.42393   0.54050
 kpt#   5, nband=  4, wtk=  0.03125, kpt=  0.5000  0.5000 -0.2500 (reduced coord)
   0.09736   0.25722   0.42393   0.54050
 kpt#   6, nband=  4, wtk=  0.03125, kpt= -0.2500  0.5000  0.0000 (reduced coord)
   0.09736   0.25722   0.42393   0.54050
 kpt#   7, nband=  4, wtk=  0.03125, kpt=  0.2500  0.7500 -0.2500 (reduced coord)
   0.09736   0.25722   0.42393   0.54050
 kpt#   8, nband=  4, wtk=  0.03125, kpt=  0.5000  0.7500  0.0000 (reduced coord)
   0.09736   0.25722   0.42393   0.54050
 kpt#   9, nband=  4, wtk=  0.03125, kpt= -0.2500  0.7500  0.2500 (reduced coord)
   0.09736   0.25722   0.42393   0.54050
 kpt#  10, nband=  4, wtk=  0.03125, kpt=  0.0000  0.0000 -0.2500 (reduced coord)
  -0.06100   0.41670   0.69420   0.69420
 kpt#  11, nband=  4, wtk=  0.03125, kpt=  0.2500  0.0000  0.0000 (reduced coord)
  -0.06100   0.41670   0.69420   0.69420
 kpt#  12, nband=  4, wtk=  0.03125, kpt=  0.5000  0.0000  0.2500 (reduced coord)
   0.09736   0.25722   0.42393   0.54050
 kpt#  13, nband=  4, wtk=  0.03125, kpt= -0.2500  0.0000 -0.5000 (reduced coord)
   0.09736   0.25722   0.42393   0.54050
 kpt#  14, nband=  4, wtk=  0.03125, kpt=  0.2500  0.2500 -0.2500 (reduced coord)
   0.09736   0.25722   0.42393   0.54050
 kpt#  15, nband=  4, wtk=  0.03125, kpt=  0.5000  0.2500  0.0000 (reduced coord)
   0.09736   0.25722   0.42393   0.54050
 kpt#  16, nband=  4, wtk=  0.03125, kpt= -0.2500  0.2500  0.2500 (reduced coord)
   0.09736   0.25722   0.42393   0.54050
 kpt#  17, nband=  4, wtk=  0.03125, kpt=  0.0000  0.5000 -0.2500 (reduced coord)
   0.09736   0.25722   0.42393   0.54050
 kpt#  18, nband=  4, wtk=  0.03125, kpt=  0.2500  0.5000  0.0000 (reduced coord)
   0.09736   0.25722   0.42393   0.54050
 kpt#  19, nband=  4, wtk=  0.03125, kpt=  0.5000  0.5000  0.2500 (reduced coord)
   0.09736   0.25722   0.42393   0.54050
 kpt#  20, nband=  4, wtk=  0.03125, kpt= -0.2500  0.5000 -0.5000 (reduced coord)
   0.09736   0.25722   0.42393   0.54050
 kpt#  21, nband=  4, wtk=  0.03125, kpt=  0.0000  0.7500  0.0000 (reduced coord)
  -0.06100   0.41670   0.69420   0.69420
 kpt#  22, nband=  4, wtk=  0.03125, kpt=  0.2500  0.7500  0.2500 (reduced coord)
   0.09736   0.25722   0.42393   0.54050
 kpt#  23, nband=  4, wtk=  0.03125, kpt=  0.5000  0.7500 -0.5000 (reduced coord)
   0.09736   0.25722   0.42393   0.54050
 kpt#  24, nband=  4, wtk=  0.03125, kpt=  0.0000  0.0000  0.2500 (reduced coord)
  -0.06100   0.41670   0.69420   0.69420
 kpt#  25, nband=  4, wtk=  0.03125, kpt=  0.2500  0.0000 -0.5000 (reduced coord)
   0.09736   0.25722   0.42393   0.54050
 kpt#  26, nband=  4, wtk=  0.03125, kpt=  0.0000  0.2500  0.0000 (reduced coord)
  -0.06100   0.41670   0.69420   0.69420
 kpt#  27, nband=  4, wtk=  0.03125, kpt=  0.2500  0.2500  0.2500 (reduced coord)
  -0.06100   0.41670   0.69420   0.69420
 kpt#  28, nband=  4, wtk=  0.03125, kpt=  0.5000  0.2500 -0.5000 (reduced coord)
   0.09736   0.25722   0.42393   0.54050
 kpt#  29, nband=  4, wtk=  0.03125, kpt=  0.0000  0.5000  0.2500 (reduced coord)
   0.09736   0.25722   0.42393   0.54050
 kpt#  30, nband=  4, wtk=  0.03125, kpt=  0.2500  0.5000 -0.5000 (reduced coord)
   0.09736   0.25722   0.42393   0.54050
 kpt#  31, nband=  4, wtk=  0.03125, kpt=  0.0000  0.7500 -0.5000 (reduced coord)
   0.09736   0.25722   0.42393   0.54050
 kpt#  32, nband=  4, wtk=  0.03125, kpt=  0.0000  0.2500 -0.5000 (reduced coord)
   0.09736   0.25722   0.42393   0.54050
 Total charge density [el/Bohr^3]
,     Maximum=    3.2386E-02  at reduced coord.    0.0000    0.5000    0.5000
,Next maximum=    3.2386E-02  at reduced coord.    0.5000    0.0000    0.5000
,     Minimum=    1.0220E-02  at reduced coord.    0.0000    0.0000    0.0000
,Next minimum=    1.2521E-02  at reduced coord.    0.0833    0.0000    0.0000
,  Integrated=    3.0000E+00

================================================================================
== DATASET 22 ==================================================================
-   nproc =    1

 mkfilename : getwfk/=0, take file _WFK from output of DATASET  11.

 mkfilename : getwfq/=0, take file _WFQ from output of DATASET  21.

 mkfilename : getden/=0, take file _DEN from output of DATASET  11.

 Exchange-correlation functional for the present dataset will be:
  LDA: Perdew-Wang 92 LSD fit to Ceperley-Alder data - ixc=7
 Citation for XC functional:
  J.P.Perdew and Y.Wang, PRB 45, 13244 (1992)

 Real(R)+Recip(G) space primitive vectors, cartesian coordinates (Bohr,Bohr^-1):
 R(1)=  0.0000000  3.8000000  3.8000000  G(1)= -0.1315789  0.1315789  0.1315789
 R(2)=  3.8000000  0.0000000  3.8000000  G(2)=  0.1315789 -0.1315789  0.1315789
 R(3)=  3.8000000  3.8000000  0.0000000  G(3)=  0.1315789  0.1315789 -0.1315789
 Unit cell volume ucvol=  1.0974400E+02 bohr^3
 Angles (23,13,12)=  6.00000000E+01  6.00000000E+01  6.00000000E+01 degrees
 setup1 : take into account q-point for computing boxcut.

 getcut: wavevector=  0.0000  0.2500 -0.2500  ngfft=  12  12  12
         ecut(hartree)=      2.500   => boxcut(ratio)=   3.01503

 getcut : COMMENT -
  Note that boxcut > 2.2 ; recall that boxcut=Gcut(box)/Gcut(sphere) = 2
  is sufficient for exact treatment of convolution.
  Such a large boxcut is a waste : you could raise ecut
  e.g. ecut=    5.681516 Hartrees makes boxcut=2

--------------------------------------------------------------------------------

-inwffil : will read wavefunctions from disk file t35o_DS11_WFK
P newkpt: treating      4 bands with npw=      22 for ikpt=   1 by node    0
P newkpt: treating      4 bands with npw=      22 for ikpt=   2 by node    0
P newkpt: treating      4 bands with npw=      22 for ikpt=   3 by node    0
P newkpt: treating      4 bands with npw=      18 for ikpt=   4 by node    0
P newkpt: treating      4 bands with npw=      22 for ikpt=   5 by node    0
P newkpt: treating      4 bands with npw=      22 for ikpt=   6 by node    0
[...]
  
   3    1   1    1         1.4182253425        -0.0000000000
   3    1   2    1         0.0973507362        -0.0000000000
   3    1   3    1         1.5155760787        -0.0000000000
  
  
  Dynamical matrix, in cartesian coordinates,
   if specified in the inputs, asr has been imposed
     j1       j2             matrix element
  dir pert dir pert     real part    imaginary part
  
   1    1   1    1         0.0067417407        -0.0000000000
   1    1   2    1         0.0000000000        -0.0000000000
   1    1   3    1         0.0000000000         0.0000000000
  
   2    1   1    1         0.0000000000         0.0000000000
   2    1   2    1         0.0982150514        -0.0000000000
   2    1   3    1        -0.0000000000        -0.0000000000
  
   3    1   1    1         0.0000000055        -0.0000000000
   3    1   2    1        -0.0000000055         0.0000000000
   3    1   3    1         0.0067417353         0.0000000000
 
  Phonon wavevector (reduced coordinates) :  0.50000  0.00000  0.50000
 Phonon energies in Hartree :
   3.702307E-04  3.702309E-04  1.413109E-03
 Phonon frequencies in cm-1    :
-  8.125624E+01  8.125629E+01  3.101415E+02

== END DATASET(S) ==============================================================
================================================================================
  
 -outvars: echo values of variables after computation  --------
            acell      7.6000000000E+00  7.6000000000E+00  7.6000000000E+00 Bohr
              amu      2.69815390E+01
             ecut      2.50000000E+00 Hartree
           etotal11   -2.0708593161E+00
           etotal12    9.7464493454E-07
           etotal22    7.9999498942E-01
           etotal32    1.7780624712E+00
           etotal42    1.5939818073E-01
           etotal52    4.3148337709E-01
           etotal62    1.9470113371E-01
            fcart11   -0.0000000000E+00 -0.0000000000E+00 -0.0000000000E+00
            fcart12    0.0000000000E+00  0.0000000000E+00  0.0000000000E+00
            fcart22    0.0000000000E+00  0.0000000000E+00  0.0000000000E+00
            fcart32    0.0000000000E+00  0.0000000000E+00  0.0000000000E+00
            fcart42    0.0000000000E+00  0.0000000000E+00  0.0000000000E+00
            fcart52    0.0000000000E+00  0.0000000000E+00  0.0000000000E+00
            fcart62    0.0000000000E+00  0.0000000000E+00  0.0000000000E+00
-          fftalg         112
           getden11         0
           getden12        11
           getden21        11
           getden22        11
           getden31        11
           getden32        11
           getden41        11
           getden42        11
           getden51        11
           getden52        11
           getden61        11
           getden62        11
           getwfk11         0
           getwfk12        11
           getwfk21        11
           getwfk22        11
           getwfk31        11
           getwfk32        11
           getwfk41        11
           getwfk42        11
           getwfk51        11
           getwfk52        11
           getwfk61        11
           getwfk62        11
           getwfq11         0
           getwfq12         0
           getwfq21         0
           getwfq22        -1
           getwfq31         0
           getwfq32        -1
           getwfq41         0
           getwfq42        -1
           getwfq51         0
           getwfq52        -1
           getwfq61         0
           getwfq62        -1
             iscf11         5
             iscf12         7
             iscf21        -2
             iscf22         7
             iscf31        -2
             iscf32         7
             iscf41        -2
             iscf42         7
             iscf51        -2
             iscf52         7
             iscf61        -2
             iscf62         7
              ixc           7
           jdtset       11   12   21   22   31   32   41   42   51   52
                        61   62
              kpt     -2.50000000E-01  5.00000000E-01  0.00000000E+00
                       5.00000000E-01 -2.50000000E-01  0.00000000E+00
                      -2.50000000E-01 -2.50000000E-01  2.50000000E-01
                      -2.50000000E-01  0.00000000E+00  0.00000000E+00
                       5.00000000E-01  2.50000000E-01  0.00000000E+00
                      -2.50000000E-01  2.50000000E-01  2.50000000E-01
                       2.50000000E-01  5.00000000E-01  0.00000000E+00
                       5.00000000E-01  5.00000000E-01  2.50000000E-01
                      -2.50000000E-01  5.00000000E-01  5.00000000E-01
                       0.00000000E+00 -2.50000000E-01  0.00000000E+00
                       2.50000000E-01 -2.50000000E-01  2.50000000E-01
                       5.00000000E-01 -2.50000000E-01  5.00000000E-01
                      -2.50000000E-01 -2.50000000E-01 -2.50000000E-01
                       2.50000000E-01  0.00000000E+00  0.00000000E+00
                       5.00000000E-01  0.00000000E+00  2.50000000E-01
                      -2.50000000E-01  0.00000000E+00  5.00000000E-01
                       0.00000000E+00  2.50000000E-01  0.00000000E+00
                       2.50000000E-01  2.50000000E-01  2.50000000E-01
                       5.00000000E-01  2.50000000E-01  5.00000000E-01
                      -2.50000000E-01  2.50000000E-01 -2.50000000E-01
                       0.00000000E+00  5.00000000E-01  2.50000000E-01
                       2.50000000E-01  5.00000000E-01  5.00000000E-01
                       5.00000000E-01  5.00000000E-01 -2.50000000E-01
                       0.00000000E+00 -2.50000000E-01  5.00000000E-01
                       2.50000000E-01 -2.50000000E-01 -2.50000000E-01
                       0.00000000E+00  0.00000000E+00  2.50000000E-01
                       2.50000000E-01  0.00000000E+00  5.00000000E-01
                       5.00000000E-01  0.00000000E+00 -2.50000000E-01
                       0.00000000E+00  2.50000000E-01  5.00000000E-01
                       2.50000000E-01  2.50000000E-01 -2.50000000E-01
                       0.00000000E+00  5.00000000E-01 -2.50000000E-01
                       0.00000000E+00  0.00000000E+00 -2.50000000E-01
           kptopt           3
         kptrlatt        2   -2    2     -2    2    2     -2   -2    2
          kptrlen      1.52000000E+01
P           mkmem          32
P          mkqmem          32
P          mk1mem          32
            natom           1
            nband           4
           nbdbuf           2
           ndtset          12
            ngfft          12      12      12
             nkpt          32
             nqpt11         0
             nqpt12         1
             nqpt21         1
             nqpt22         1
             nqpt31         1
             nqpt32         1
             nqpt41         1
             nqpt42         1
             nqpt51         1
             nqpt52         1
             nqpt61         1
             nqpt62         1
             nsym          48
           ntypat           1
              occ      2.000000  1.333332  0.000001  0.000000
                       2.000000  1.333332  0.000001  0.000000
                       2.000000  1.333332  0.000001  0.000000
                       2.000000  0.000002  0.000000  0.000000
                       2.000000  1.333332  0.000001  0.000000
                       2.000000  1.333332  0.000001  0.000000
                       2.000000  1.333332  0.000001  0.000000
                       2.000000  1.333332  0.000001  0.000000
                       2.000000  1.333332  0.000001  0.000000
                       2.000000  0.000002  0.000000  0.000000
                       2.000000  1.333332  0.000001  0.000000
                       2.000000  1.333332  0.000001  0.000000
                       2.000000  0.000002  0.000000  0.000000
                       2.000000  0.000002  0.000000  0.000000
                       2.000000  1.333332  0.000001  0.000000
                       2.000000  1.333332  0.000001  0.000000
                       2.000000  0.000002  0.000000  0.000000
                       2.000000  0.000002  0.000000  0.000000
                       2.000000  1.333332  0.000001  0.000000
                       2.000000  1.333332  0.000001  0.000000
                       2.000000  1.333332  0.000001  0.000000
                       2.000000  1.333332  0.000001  0.000000
                       2.000000  1.333332  0.000001  0.000000
                       2.000000  1.333332  0.000001  0.000000
                       2.000000  1.333332  0.000001  0.000000
                       2.000000  0.000002  0.000000  0.000000
                       2.000000  1.333332  0.000001  0.000000
                       2.000000  1.333332  0.000001  0.000000
                       2.000000  1.333332  0.000001  0.000000
                       2.000000  1.333332  0.000001  0.000000
                       2.000000  1.333332  0.000001  0.000000
                       2.000000  0.000002  0.000000  0.000000
           occopt           4
        optdriver11         0
        optdriver12         1
        optdriver21         0
        optdriver22         1
        optdriver31         0
        optdriver32         1
        optdriver41         0
        optdriver42         1
        optdriver51         0
        optdriver52         1
        optdriver61         0
        optdriver62         1
              qpt11    0.00000000E+00  0.00000000E+00  0.00000000E+00
              qpt12    0.00000000E+00  0.00000000E+00  0.00000000E+00
              qpt21    0.00000000E+00  2.50000000E-01 -2.50000000E-01
              qpt22    0.00000000E+00  2.50000000E-01 -2.50000000E-01
              qpt31    0.00000000E+00  0.00000000E+00  5.00000000E-01
              qpt32    0.00000000E+00  0.00000000E+00  5.00000000E-01
              qpt41   -2.50000000E-01  0.00000000E+00 -2.50000000E-01
              qpt42   -2.50000000E-01  0.00000000E+00 -2.50000000E-01
              qpt51    5.00000000E-01  2.50000000E-01 -2.50000000E-01
              qpt52    5.00000000E-01  2.50000000E-01 -2.50000000E-01
              qpt61    5.00000000E-01  0.00000000E+00  5.00000000E-01
              qpt62    5.00000000E-01  0.00000000E+00  5.00000000E-01
            rfdir11         0       0       0
            rfdir12         1       1       1
            rfdir21         0       0       0
            rfdir22         1       1       1
            rfdir31         0       0       0
            rfdir32         1       1       1
            rfdir41         0       0       0
            rfdir42         1       1       1
            rfdir51         0       0       0
            rfdir52         1       1       1
            rfdir61         0       0       0
            rfdir62         1       1       1
           rfphon11         0
           rfphon12         1
           rfphon21         0
           rfphon22         1
           rfphon31         0
           rfphon32         1
           rfphon41         0
           rfphon42         1
           rfphon51         0
           rfphon52         1
           rfphon61         0
           rfphon62         1
            rprim      0.0000000000E+00  5.0000000000E-01  5.0000000000E-01
                       5.0000000000E-01  0.0000000000E+00  5.0000000000E-01
                       5.0000000000E-01  5.0000000000E-01  0.0000000000E+00
           shiftk      5.00000000E-01  5.00000000E-01  5.00000000E-01
          spgroup         225
           strten11    2.2693444502E-04  2.2693444502E-04  2.2693444502E-04
                       0.0000000000E+00  0.0000000000E+00  0.0000000000E+00
           strten12    0.0000000000E+00  0.0000000000E+00  0.0000000000E+00
                       0.0000000000E+00  0.0000000000E+00  0.0000000000E+00
           strten22    0.0000000000E+00  0.0000000000E+00  0.0000000000E+00
                       0.0000000000E+00  0.0000000000E+00  0.0000000000E+00
           strten32    0.0000000000E+00  0.0000000000E+00  0.0000000000E+00
                       0.0000000000E+00  0.0000000000E+00  0.0000000000E+00
           strten42    0.0000000000E+00  0.0000000000E+00  0.0000000000E+00
                       0.0000000000E+00  0.0000000000E+00  0.0000000000E+00
           strten52    0.0000000000E+00  0.0000000000E+00  0.0000000000E+00
                       0.0000000000E+00  0.0000000000E+00  0.0000000000E+00
           strten62    0.0000000000E+00  0.0000000000E+00  0.0000000000E+00
                       0.0000000000E+00  0.0000000000E+00  0.0000000000E+00
           symrel      1  0  0   0  1  0   0  0  1      -1  0  0   0 -1  0   0  0 -1
                       0 -1  1   0 -1  0   1 -1  0       0  1 -1   0  1  0  -1  1  0
                      -1  0  0  -1  0  1  -1  1  0       1  0  0   1  0 -1   1 -1  0
                       0  1 -1   1  0 -1   0  0 -1       0 -1  1  -1  0  1   0  0  1
                      -1  0  0  -1  1  0  -1  0  1       1  0  0   1 -1  0   1  0 -1
                       0 -1  1   1 -1  0   0 -1  0       0  1 -1  -1  1  0   0  1  0
                       1  0  0   0  0  1   0  1  0      -1  0  0   0  0 -1   0 -1  0
                       0  1 -1   0  0 -1   1  0 -1       0 -1  1   0  0  1  -1  0  1
                      -1  0  1  -1  1  0  -1  0  0       1  0 -1   1 -1  0   1  0  0
                       0 -1  0   1 -1  0   0 -1  1       0  1  0  -1  1  0   0  1 -1
                       1  0 -1   0  0 -1   0  1 -1      -1  0  1   0  0  1   0 -1  1
                       0  1  0   0  0  1   1  0  0       0 -1  0   0  0 -1  -1  0  0
                       1  0 -1   0  1 -1   0  0 -1      -1  0  1   0 -1  1   0  0  1
                       0 -1  0   0 -1  1   1 -1  0       0  1  0   0  1 -1  -1  1  0
                      -1  0  1  -1  0  0  -1  1  0       1  0 -1   1  0  0   1 -1  0
                       0  1  0   1  0  0   0  0  1       0 -1  0  -1  0  0   0  0 -1
                       0  0 -1   0  1 -1   1  0 -1       0  0  1   0 -1  1  -1  0  1
                       1 -1  0   0 -1  1   0 -1  0      -1  1  0   0  1 -1   0  1  0
                       0  0  1   1  0  0   0  1  0       0  0 -1  -1  0  0   0 -1  0
                      -1  1  0  -1  0  0  -1  0  1       1 -1  0   1  0  0   1  0 -1
                       0  0  1   0  1  0   1  0  0       0  0 -1   0 -1  0  -1  0  0
                       1 -1  0   0 -1  0   0 -1  1      -1  1  0   0  1  0   0  1 -1
                       0  0 -1   1  0 -1   0  1 -1       0  0  1  -1  0  1   0 -1  1
                      -1  1  0  -1  0  1  -1  0  0       1 -1  0   1  0 -1   1  0  0
           tolvrs11    0.00000000E+00
           tolvrs12    1.00000000E-10
           tolvrs21    0.00000000E+00
           tolvrs22    1.00000000E-10
           tolvrs31    0.00000000E+00
           tolvrs32    1.00000000E-10
           tolvrs41    0.00000000E+00
           tolvrs42    1.00000000E-10
           tolvrs51    0.00000000E+00
           tolvrs52    1.00000000E-10
           tolvrs61    0.00000000E+00
           tolvrs62    1.00000000E-10
           tolwfr11    1.00000000E-22
           tolwfr12    0.00000000E+00
           tolwfr21    1.00000000E-22
           tolwfr22    0.00000000E+00
           tolwfr31    1.00000000E-22
           tolwfr32    0.00000000E+00
           tolwfr41    1.00000000E-22
           tolwfr42    0.00000000E+00
           tolwfr51    1.00000000E-22
           tolwfr52    0.00000000E+00
           tolwfr61    1.00000000E-22
           tolwfr62    0.00000000E+00
            typat      1
              wtk        0.03125    0.03125    0.03125    0.03125    0.03125    0.03125
                         0.03125    0.03125    0.03125    0.03125    0.03125    0.03125
                         0.03125    0.03125    0.03125    0.03125    0.03125    0.03125
                         0.03125    0.03125    0.03125    0.03125    0.03125    0.03125
                         0.03125    0.03125    0.03125    0.03125    0.03125    0.03125
                         0.03125    0.03125
            znucl       13.00000

================================================================================


- Timing analysis has been suppressed with timopt=0



================================================================================

 Suggested references for the acknowledgment of ABINIT usage.

 The users of ABINIT have little formal obligations with respect to the ABINIT group
 (those specified in the GNU General Public License, http://www.gnu.org/copyleft/gpl.txt).
 However, it is common practice in the scientific literature,
 to acknowledge the efforts of people that have made the research possible.
 In this spirit, please find below suggested citations of work written by ABINIT developers,
 corresponding to implementations inside of ABINIT that you have used in the present run.
 Note also that it will be of great value to readers of publications presenting these results,
 to read papers enabling them to understand the theoretical formalism and details
 of the ABINIT implementation.
 For information on why they are suggested, see also http://www.abinit.org/about/?text=acknowledgments.

 [1] First-principles responses of solids to atomic displacements and homogeneous electric fields:,
 implementation of a conjugate-gradient algorithm. X. Gonze, Phys. Rev. B55, 10337 (1997).
 Comment : Non-vanishing rfphon and/or rfelfd, in the norm-conserving case.

 [2] Dynamical matrices, Born effective charges, dielectric permittivity tensors, and ,
 interatomic force constants from density-functional perturbation theory,
 X. Gonze and C. Lee, Phys. Rev. B55, 10355 (1997).
 Comment : Non-vanishing rfphon and/or rfelfd, in the norm-conserving case.

 [3] Ab initio pseudopotentials for electronic structure calculations of poly-atomic systems, 
 using density-functional theory.
 M. Fuchs, M. Scheffler, Comput. Phys. Commun. 119, 67 (1999).
 Comment : Some pseudopotential generated using the FHI code were used.

 [4] ABINIT : First-principles approach of materials and nanosystem properties.
 X. Gonze, B. Amadon, P.-M. Anglade, J.-M. Beuken, F. Bottin, P. Boulanger, F. Bruneval,
 D. Caliste, R. Caracas, M. Cote, T. Deutsch, L. Genovese, Ph. Ghosez, M. Giantomassi
 S. Goedecker, D.R. Hamann, P. Hermet, F. Jollet, G. Jomard, S. Leroux, M. Mancini, S. Mazevet,
 M.J.T. Oliveira, G. Onida, Y. Pouillon, T. Rangel, G.-M. Rignanese, D. Sangalli, R. Shaltaf,
 M. Torrent, M.J. Verstraete, G. Zerah, J.W. Zwanziger
 Computer Phys. Comm. 180, 2582-2615 (2009).
 Comment : the third generic paper describing the ABINIT project.
 Note that a version of this paper, that is not formatted for Computer Phys. Comm. 
 is available at http://www.abinit.org/about/ABINIT_CPC_v10.pdf .
 The licence allows the authors to put it on the Web.

 [5] A brief introduction to the ABINIT software package.
 X. Gonze, G.-M. Rignanese, M. Verstraete, J.-M. Beuken, Y. Pouillon, R. Caracas, F. Jollet,
 M. Torrent, G. Zerah, M. Mikami, Ph. Ghosez, M. Veithen, J.-Y. Raty, V. Olevano, F. Bruneval,
 L. Reining, R. Godby, G. Onida, D.R. Hamann, and D.C. Allan.
 Z. Kristallogr. 220, 558-562 (2005).
 Comment : the second generic paper describing the ABINIT project. Note that this paper
 should be cited especially if you are using the GW part of ABINIT, as several authors
 of this part are not in the list of authors of the first or third paper.
 The .pdf of the latter paper is available at http://www.abinit.org/about/zfk_0505-06_558-562.pdf.
 Note that it should not redistributed (Copyright by Oldenburg Wissenshaftverlag,
 the licence allows the authors to put it on the Web).
-
- Proc.   0 individual time (sec): cpu=          3.9  wall=          5.4

================================================================================

 Calculation completed.
.Delivered  182 WARNINGs and  35 COMMENTs to log file.
+Overall time at end (sec) : cpu=          3.9  wall=          5.4
