
 **** DERIVATIVE DATABASE ****    
+DDB, Version number    100401

 C diamond EIGR2D file                                                                                                                                                                                                                                                   

    usepaw         0
     natom         2
      nkpt         8
    nsppol         1
      nsym         1
    ntypat         1
    occopt         1
     nband         8
     acell  0.67034680500000D+01  0.67034680500000D+01  0.67034680500000D+01
       amu  0.12011000000000D+02
   dilatmx  0.10000000000000D+01
      ecut  0.20000000000000D+02
    ecutsm  0.50000000000000D+00
     intxc         0
      iscf         7
       ixc         1
       kpt  0.00000000000000D+00  0.00000000000000D+00  0.00000000000000D+00
            0.50000000000000D+00  0.00000000000000D+00  0.00000000000000D+00
            0.00000000000000D+00  0.50000000000000D+00  0.00000000000000D+00
            0.50000000000000D+00  0.50000000000000D+00  0.00000000000000D+00
            0.00000000000000D+00  0.00000000000000D+00  0.50000000000000D+00
            0.50000000000000D+00  0.00000000000000D+00  0.50000000000000D+00
            0.00000000000000D+00  0.50000000000000D+00  0.50000000000000D+00
            0.50000000000000D+00  0.50000000000000D+00  0.50000000000000D+00
    kptnrm  0.10000000000000D+01
     ngfft        20   20   20
    nspden         1
   nspinor         1
       occ  0.20000000000000D+01  0.20000000000000D+01  0.20000000000000D+01
            0.20000000000000D+01  0.00000000000000D+00  0.00000000000000D+00
            0.00000000000000D+00  0.00000000000000D+00
     rprim  0.00000000000000D+00  0.50000000000000D+00  0.50000000000000D+00
            0.50000000000000D+00  0.00000000000000D+00  0.50000000000000D+00
            0.50000000000000D+00  0.50000000000000D+00  0.00000000000000D+00
     sciss  0.00000000000000D+00
    spinat  0.00000000000000D+00  0.00000000000000D+00  0.00000000000000D+00
            0.00000000000000D+00  0.00000000000000D+00  0.00000000000000D+00
    symafm         1
    symrel         1    0    0    0    1    0    0    0    1
     tnons  0.00000000000000D+00  0.00000000000000D+00  0.00000000000000D+00
    tolwfr  0.10000000000000D+01
   tphysel  0.00000000000000D+00
    tsmear  0.40000000000000D-01
     typat         1    1
       wtk  0.12500000000000D+00  0.12500000000000D+00  0.12500000000000D+00
            0.12500000000000D+00  0.12500000000000D+00  0.12500000000000D+00
            0.12500000000000D+00  0.12500000000000D+00
      xred  0.00000000000000D+00  0.00000000000000D+00  0.00000000000000D+00
            0.25000000000000D+00  0.25000000000000D+00  0.25000000000000D+00
     znucl  0.60000000000000D+01
      zion  0.40000000000000D+01
 
  Description of the potentials (KB energies)
  vrsio8 (for pseudopotentials)=100401
  usepaw =  0
  dimekb =  1       lmnmax=  1
  Atom type=    1   pspso=  0   nekb=   1
  iln lpsang iproj  ekb(:)
     1     0     1     4.9214663E+00
 
 **** Database of total energy derivatives ****
 Number of data blocks=    2
  
 2nd eigenvalue derivatives   - # elements :      36
 qpt  0.00000000E+00  0.00000000E+00  0.00000000E+00   1.0
 K-point:  0.00000000E+00  0.00000000E+00  0.00000000E+00
 Band:  1
   1   1   1   1 -0.19077337059748D+01  0.16696713456277D-16
   2   1   1   1 -0.95386685302753D+00 -0.91468722529596D-16
   3   1   1   1 -0.95386685355589D+00  0.39714544691201D-16
   1   2   1   1  0.50782305981765D+00 -0.16069515241086D-15
   2   2   1   1  0.25391153117421D+00 -0.21125410519439D-15
   3   2   1   1  0.25391153068665D+00 -0.26401732301831D-15
   1   1   2   1 -0.95386685302753D+00  0.13765573507748D-15
   2   1   2   1 -0.19077337055559D+01  0.16263032587283D-16
   3   1   2   1 -0.95386685332425D+00  0.12723235296662D-15
   1   2   2   1  0.25391153054265D+00 -0.18287075612751D-15
   2   2   2   1  0.50782306008617D+00 -0.48427527628764D-15
   3   2   2   1  0.25391153037725D+00 -0.53272685587667D-15
   1   1   3   1 -0.95386685355589D+00  0.28698612392634D-16
   2   1   3   1 -0.95386685332425D+00 -0.65215988700453D-16
   3   1   3   1 -0.19077337062553D+01  0.20816681711722D-16
   1   2   3   1  0.25391153072388D+00 -0.75915723680214D-16
   2   2   3   1  0.25391153101510D+00 -0.27354073190425D-15
   3   2   3   1  0.50782305978674D+00 -0.38315257609999D-15
   1   1   1   2  0.50782305981765D+00  0.15375625850695D-15
   2   1   1   2  0.25391153054265D+00  0.21062633174314D-15
   3   1   1   2  0.25391153072388D+00  0.62037935872399D-16
   1   2   1   2 -0.19077337063372D+01  0.18431436932254D-17
   2   2   1   2 -0.95386685390504D+00  0.18394054045396D-15
   3   2   1   2 -0.95386685412573D+00  0.23024327565410D-15
   1   1   2   2  0.25391153117421D+00  0.21125410519439D-15
   2   1   2   2  0.50782306008617D+00  0.48427527628764D-15
   3   1   2   2  0.25391153101510D+00  0.29435741361598D-15
   1   2   2   2 -0.95386685390504D+00 -0.11856314945308D-15
   2   2   2   2 -0.19077337076682D+01  0.15937771935537D-16
   3   2   2   2 -0.95386685367340D+00  0.73254383979946D-16
   1   1   3   2  0.25391153068665D+00  0.26748676997026D-15
   2   1   3   2  0.25391153037725D+00  0.52578796197277D-15
   3   1   3   2  0.50782305978674D+00  0.38315257609999D-15
   1   2   3   2 -0.95386685412573D+00 -0.15998697487704D-15
   2   2   3   2 -0.95386685367340D+00  0.83860396082128D-17
   3   2   3   2 -0.19077337067130D+01  0.21250362580716D-16
 Band:  2
   1   1   1   1 -0.35205065077022D+02 -0.68695049648682D-15
   2   1   1   1 -0.31557607741696D+02 -0.23325414866287D-14
   3   1   1   1 -0.27395013934124D+02 -0.43760261482490D-15
   1   2   1   1 -0.53752892897239D+00 -0.27734628687149D-14
   2   2   1   1 -0.12047044054537D+00  0.14721653148379D-14
   3   2   1   1  0.24255851356743D+00  0.16146641622964D-14
   1   1   2   1 -0.31557607741696D+02  0.12778296132348D-14
   2   1   2   1 -0.40995167832597D+02  0.00000000000000D+00
   3   1   2   1 -0.30012228053592D+02  0.58584033240509D-16
   1   2   2   1 -0.12047042493042D+00 -0.15829755919600D-14
   2   2   2   1 -0.67763654738135D+00 -0.28681853171125D-15
   3   2   2   1  0.14304632094982D-01  0.30078279424910D-14
   1   1   3   1 -0.27395013934124D+02 -0.94323727205264D-15
   2   1   3   1 -0.30012228053592D+02 -0.10715629056786D-15
   3   1   3   1 -0.32565852809490D+02  0.11102230246252D-15
   1   2   3   1  0.24255851917829D+00 -0.89382683871627D-15
   2   2   3   1  0.14304625462552D-01 -0.10457358673840D-14
   3   2   3   1 -0.43314157708388D+00 -0.17815036090933D-14
   1   1   1   2 -0.53752892897239D+00  0.60852797069585D-15
   2   1   1   2 -0.12047042493041D+00  0.44695554559854D-14
   3   1   1   2  0.24255851917830D+00  0.44973762886621D-15
   1   2   1   2 -0.35205064998647D+02  0.40939474033053D-15
   2   2   1   2 -0.31557607705951D+02 -0.90761559556048D-15
   3   2   1   2 -0.27395013888683D+02  0.14446483188384D-14
   1   1   2   2 -0.12047044054536D+00 -0.57187683840291D-14
   2   1   2   2 -0.67763654738136D+00 -0.19058719419234D-14
   3   1   2   2  0.14304625462553D-01  0.11012470186153D-14
   1   2   2   2 -0.31557607705951D+02  0.16708939249903D-14
   2   2   2   2 -0.40995167839769D+02  0.54123372450476D-15
   3   2   2   2 -0.30012228050212D+02  0.29504710356003D-14
   1   1   3   2  0.24255851356744D+00  0.30482725411292D-14
   2   1   3   2  0.14304632094985D-01 -0.59309286393127D-15
   3   1   3   2 -0.43314157708387D+00  0.60657920924309D-16
   1   2   3   2 -0.27395013888683D+02  0.12354170344468D-15
   2   2   3   2 -0.30012228050212D+02 -0.20206592524768D-14
   3   2   3   2 -0.32565852794479D+02  0.48572257327351D-15
 Band:  3
   1   1   1   1 -0.23109294664961D+02  0.12663481374631D-15
   2   1   1   1  0.23107478318353D+01  0.23914689085777D-15
   3   1   1   1 -0.10111499423098D+02 -0.18910043215477D-15
   1   2   1   1 -0.94424473543197D+00 -0.85889772556850D-15
   2   2   1   1 -0.14303765569128D+00 -0.72935559190591D-15
   3   2   1   1 -0.12264404200872D+01 -0.45792093029181D-15
   1   1   2   1  0.23107478318353D+01 -0.20011561264829D-15
   2   1   2   1 -0.19677384006723D+02 -0.19949319973733D-15
   3   1   2   1 -0.35136333347050D+01 -0.16829344049837D-14
   1   2   2   1 -0.14303765985943D+00 -0.81231362048017D-15
   2   2   2   1 -0.28090307734141D+00 -0.20981248062043D-14
   3   2   2   1 -0.65100912024329D+00 -0.49141188125163D-15
   1   1   3   1 -0.10111499423098D+02  0.13893361081113D-16
   2   1   3   1 -0.35136333347050D+01  0.18282174960968D-14
   3   1   3   1 -0.14212376763110D+02 -0.50068456325381D-15
   1   2   3   1 -0.12264404182324D+01  0.37055584310473D-15
   2   2   3   1 -0.65100912041362D+00  0.65320172760078D-16
   3   2   3   1 -0.18611327929231D+01 -0.23977194106314D-15
   1   1   1   2 -0.94424473543198D+00  0.24495733623654D-16
   2   1   1   2 -0.14303765985943D+00  0.72384272320535D-15
   3   1   1   2 -0.12264404182324D+01 -0.21746649634978D-15
   1   2   1   2 -0.23109294653658D+02 -0.86736173798840D-17
   2   2   1   2  0.23107478346513D+01 -0.55930553171278D-15
   3   2   1   2 -0.10111499421775D+02 -0.49854078339392D-15
   1   1   2   2 -0.14303765569128D+00  0.86639874650808D-15
   2   1   2   2 -0.28090307734141D+00  0.15516869112716D-14
   3   1   2   2 -0.65100912041362D+00  0.93407025291800D-16
   1   2   2   2  0.23107478346513D+01 -0.79940069184670D-16
   2   2   2   2 -0.19677384049766D+02 -0.17694179454963D-15
   3   2   2   2 -0.35136333298304D+01 -0.12593759168242D-14
   1   1   3   2 -0.12264404200872D+01  0.38117849105427D-16
   2   1   3   2 -0.65100912024329D+00  0.82794823559113D-15
   3   1   3   2 -0.18611327929231D+01 -0.33745729556814D-15
   1   2   3   2 -0.10111499421775D+02 -0.14677634966945D-15
   2   2   3   2 -0.35136333298304D+01  0.99309586326180D-15
   3   2   3   2 -0.14212376773016D+02 -0.78192660679655D-15
 Band:  4
   1   1   1   1 -0.15869849479948D+02 -0.17780915628762D-15
   2   1   1   1 -0.78452447042814D+01 -0.99597838456928D-17
   3   1   1   1  0.41440873829791D+00 -0.33528459609481D-15
   1   2   1   1 -0.11271491735127D+01  0.30834594421336D-15
   2   2   1   1 -0.10409533413959D+01 -0.41376187641334D-15
   3   2   1   1 -0.32057952745060D+00  0.65430161181616D-15
   1   1   2   1 -0.78452447042814D+01 -0.14800847268545D-15
   2   1   2   1 -0.13511657307999D+02 -0.38055496254241D-15
   3   1   2   1 -0.35662432096303D+01 -0.76921437938726D-15
   1   2   2   1 -0.10409533359585D+01 -0.55760851358800D-15
   2   2   2   1 -0.16503832226802D+01  0.29573523161061D-15
   3   2   2   1 -0.66775693715790D+00  0.37919266848445D-15
   1   1   3   1  0.41440873829791D+00 -0.56720529228212D-15
   2   1   3   1 -0.35662432096303D+01  0.74861453811004D-15
   3   1   3   1 -0.27405979547192D+02  0.38163916471490D-15
   1   2   3   1 -0.32057952940254D+00  0.19135623246093D-15
   2   2   3   1 -0.66775693827942D+00 -0.14862866035838D-15
   3   2   3   1 -0.31464847463184D+00  0.58411614859526D-14
   1   1   1   2 -0.11271491735127D+01 -0.51911484654455D-15
   2   1   1   2 -0.10409533359585D+01  0.30130312001243D-15
   3   1   1   2 -0.32057952940254D+00  0.18854820877799D-15
   1   2   1   2 -0.15869849490097D+02 -0.27929047963227D-15
   2   2   1   2 -0.78452447075425D+01 -0.86934847085599D-15
   3   2   1   2  0.41440873457057D+00 -0.15559085098363D-14
   1   1   2   2 -0.10409533413959D+01  0.17377562152645D-16
   2   1   2   2 -0.16503832226802D+01 -0.15565631092548D-15
   3   1   2   2 -0.66775693827942D+00 -0.60424132821555D-15
   1   2   2   2 -0.78452447075425D+01  0.58442013992680D-15
   2   2   2   2 -0.13511657337841D+02 -0.75373735031192D-15
   3   2   2   2 -0.35662432114743D+01 -0.14679244393857D-14
   1   1   3   2 -0.32057952745060D+00  0.36051162163028D-15
   2   1   3   2 -0.66775693715790D+00  0.52980243292740D-15
   3   1   3   2 -0.31464847463183D+00 -0.66859718187533D-14
   1   2   3   2  0.41440873457058D+00  0.12662096893481D-14
   2   2   3   2 -0.35662432114743D+01  0.14306278846522D-14
   3   2   3   2 -0.27405979606426D+02  0.89511731360403D-15
 Band:  5
   1   1   1   1 -0.14671155190287D+02 -0.41015368185127D-15
   2   1   1   1 -0.76516932056948D+01 -0.36454250251493D-15
   3   1   1   1 -0.25238181723411D+00  0.12230154487260D-15
   1   2   1   1  0.14992016868565D+01  0.86110559115196D-15
   2   2   1   1  0.17556224061915D+01 -0.10296505144728D-14
   3   2   1   1  0.65846163035677D+00 -0.46202396402821D-15
   1   1   2   1 -0.76516932056948D+01  0.20364690011808D-15
   2   1   2   1 -0.13902169659675D+02 -0.50632241455073D-15
   3   1   2   1 -0.52611480051104D+01  0.13048288808628D-15
   1   2   2   1  0.17556224104881D+01  0.47149683513843D-15
   2   2   2   1  0.30230237641852D+01 -0.57294905425993D-15
   3   2   2   1  0.14011547817293D+01 -0.42181530494184D-15
   1   1   3   1 -0.25238181723412D+00 -0.86739713615071D-16
   2   1   3   1 -0.52611480051104D+01 -0.69253329430277D-15
   3   1   3   1 -0.26403834006025D+02 -0.20122792321331D-15
   1   2   3   1  0.65846162877944D+00 -0.10417753964211D-14
   2   2   3   1  0.14011547790061D+01  0.60509649895221D-15
   3   2   3   1 -0.76468616993011D+00 -0.11508518790628D-14
   1   1   1   2  0.14992016868565D+01  0.37716171004373D-15
   2   1   1   2  0.17556224104881D+01  0.81024697317394D-15
   3   1   1   2  0.65846162877944D+00  0.13019839178176D-14
   1   2   1   2 -0.14671155164073D+02 -0.38093443330278D-15
   2   2   1   2 -0.76516931913857D+01  0.73899072628511D-16
   3   2   1   2 -0.25238181077146D+00 -0.68291230893090D-16
   1   1   2   2  0.17556224061915D+01  0.87374224206941D-15
   2   1   2   2  0.30230237641852D+01  0.15394068708135D-14
   3   1   2   2  0.14011547790061D+01 -0.24947818637696D-15
   1   2   2   2 -0.76516931913857D+01 -0.91328839456679D-15
   2   2   2   2 -0.13902169624542D+02 -0.81228426762614D-15
   3   2   2   2 -0.52611480055960D+01  0.24339990866419D-15
   1   1   3   2  0.65846163035676D+00  0.19661127220376D-15
   2   1   3   2  0.14011547817293D+01  0.49293896745688D-15
   3   1   3   2 -0.76468616993011D+00 -0.11754123022221D-14
   1   2   3   2 -0.25238181077146D+00 -0.33936878596146D-15
   2   2   3   2 -0.52611480055960D+01 -0.44983200230543D-15
   3   2   3   2 -0.26403833931203D+02  0.66613381477509D-15
 Band:  6
   1   1   1   1 -0.21294623828901D+02 -0.38857805861880D-15
   2   1   1   1  0.22453613451385D+01  0.17855139437481D-15
   3   1   1   1 -0.10807953018456D+02 -0.10502897718241D-14
   1   2   1   1  0.94186234036608D+00  0.78815073365915D-15
   2   2   1   1  0.36383468136877D+00  0.12366947771564D-14
   3   2   1   1  0.22993607463459D+01 -0.17682991978638D-14
   1   1   2   1  0.22453613451385D+01  0.37656011793777D-15
   2   1   2   1 -0.17868972888888D+02  0.29663771439203D-15
   3   1   2   1 -0.38011427722371D+01  0.14631579935825D-14
   1   2   2   1  0.36383468265986D+00 -0.37920830356624D-15
   2   2   2   1 -0.58125114866731D+00  0.51120186702701D-15
   3   2   2   1  0.12604015102051D+01 -0.14606389450938D-14
   1   1   3   1 -0.10807953018456D+02  0.23323501463899D-15
   2   1   3   1 -0.38011427722371D+01 -0.16340282559662D-14
   3   1   3   1 -0.15279230384846D+02 -0.71297134862647D-15
   1   2   3   1  0.22993607471505D+01  0.33477279046338D-15
   2   2   3   1  0.12604015219889D+01  0.13089971839813D-14
   3   2   3   1  0.34691608288581D+01 -0.13762458276844D-15
   1   1   1   2  0.94186234036609D+00  0.31513339706210D-15
   2   1   1   2  0.36383468265986D+00  0.30895200278918D-15
   3   1   1   2  0.22993607471505D+01 -0.15490792236471D-14
   1   2   1   2 -0.21294623774308D+02  0.26367796834847D-15
   2   2   1   2  0.22453613203246D+01 -0.32787157595570D-15
   3   2   1   2 -0.10807953004878D+02 -0.24324942814778D-15
   1   1   2   2  0.36383468136876D+00 -0.13295024831212D-14
   2   1   2   2 -0.58125114866731D+00 -0.62569361644148D-15
   3   1   2   2  0.12604015219889D+01 -0.21885019863015D-14
   1   2   2   2  0.22453613203246D+01 -0.10399501859775D-16
   2   2   2   2 -0.17868972829888D+02  0.51868231931707D-15
   3   2   2   2 -0.38011427840233D+01 -0.19066129535881D-14
   1   1   3   2  0.22993607463459D+01  0.76909847570115D-15
   2   1   3   2  0.12604015102051D+01  0.71774361650671D-15
   3   1   3   2  0.34691608288581D+01  0.61814298561401D-15
   1   2   3   2 -0.10807953004878D+02 -0.24247314512573D-15
   2   2   3   2 -0.38011427840233D+01  0.17969573325318D-15
   3   2   3   2 -0.15279230349030D+02 -0.78062556418956D-15
 Band:  7
   1   1   1   1 -0.33334723918291D+02 -0.15265566588596D-14
   2   1   1   1 -0.29243919614072D+02  0.52715578276681D-18
   3   1   1   1 -0.23589916616130D+02 -0.22272774827644D-14
   1   2   1   1 -0.62000618767717D+00 -0.95946154170517D-16
   2   2   1   1 -0.12089281768619D+01 -0.11531987736552D-14
   3   2   1   1 -0.20472934639176D+01  0.95744792054446D-15
   1   1   2   1 -0.29243919614072D+02 -0.14438170877955D-14
   2   1   2   1 -0.37529360447558D+02 -0.61756155744774D-15
   3   1   2   1 -0.25587960686452D+02 -0.16363384533900D-15
   1   2   2   1 -0.12089281833496D+01  0.15247444139631D-14
   2   2   2   1 -0.62071478447402D+00  0.12114944543474D-14
   3   2   2   1 -0.17510273903957D+01  0.12503997057857D-14
   1   1   3   1 -0.23589916616130D+02  0.10962377764275D-14
   2   1   3   1 -0.25587960686452D+02 -0.81475019511192D-15
   3   1   3   1 -0.27617438557441D+02  0.26367796834847D-15
   1   2   3   1 -0.20472934699111D+01  0.84788622471996D-15
   2   2   3   1 -0.17510273820623D+01  0.71403098593459D-15
   3   2   3   1 -0.88341681656553D+00  0.24932674449816D-14
   1   1   1   2 -0.62000618767716D+00 -0.14583660803047D-14
   2   1   1   2 -0.12089281833496D+01 -0.11431052492482D-14
   3   1   1   2 -0.20472934699111D+01 -0.30613933800664D-14
   1   2   1   2 -0.33334723876807D+02  0.48572257327351D-15
   2   2   1   2 -0.29243919514700D+02 -0.47714007620716D-15
   3   2   1   2 -0.23589916579366D+02 -0.31836871170618D-14
   1   1   2   2 -0.12089281768619D+01 -0.17958311355054D-14
   2   1   2   2 -0.62071478447402D+00 -0.20840603627637D-14
   3   1   2   2 -0.17510273820623D+01 -0.21937501109428D-14
   1   2   2   2 -0.29243919514700D+02  0.17677743423339D-14
   2   2   2   2 -0.37529360252069D+02 -0.49266146717741D-15
   3   2   2   2 -0.25587960591158D+02 -0.46240134790270D-14
   1   1   3   2 -0.20472934639176D+01 -0.10407146473913D-14
   2   1   3   2 -0.17510273903957D+01 -0.44787200945785D-14
   3   1   3   2 -0.88341681656553D+00 -0.12199804136146D-14
   1   2   3   2 -0.23589916579366D+02  0.44257491258612D-14
   2   2   3   2 -0.25587960591158D+02  0.46795246302583D-14
   3   2   3   2 -0.27617438498209D+02  0.66613381477509D-15
 Band:  8
   1   1   1   1 -0.33190218604213D+01 -0.69388939039072D-16
   2   1   1   1 -0.16595109357380D+01  0.36143873845558D-15
   3   1   1   1 -0.16595109374092D+01  0.78729712213168D-15
   1   2   1   1  0.11006457613017D+01  0.43434774249923D-15
   2   2   1   1  0.55032288528682D+00 -0.55983891403229D-15
   3   2   1   1  0.55032288757036D+00 -0.24205199446689D-16
   1   1   2   1 -0.16595109357380D+01 -0.18449694390594D-15
   2   1   2   1 -0.33190218721493D+01 -0.38163916471490D-16
   3   1   2   1 -0.16595109383603D+01  0.90686808312368D-15
   1   2   2   1  0.55032288778648D+00  0.81646599355597D-16
   2   2   2   1  0.11006457650078D+01 -0.64488869296285D-15
   3   2   2   1  0.55032288783526D+00  0.24102966459987D-15
   1   1   3   1 -0.16595109374092D+01 -0.53055804768711D-15
   2   1   3   1 -0.16595109383603D+01 -0.72298739467013D-15
   3   1   3   1 -0.33190218671517D+01 -0.17000290064573D-15
   1   2   3   1  0.55032288781942D+00  0.80478793478870D-15
   2   2   3   1  0.55032288753415D+00 -0.81810461023191D-16
   3   2   3   1  0.11006457528326D+01  0.16298995655878D-14
   1   1   1   2  0.11006457613017D+01 -0.21230313757420D-15
   2   1   1   2  0.55032288778648D+00  0.29375703106919D-16
   3   1   1   2  0.55032288781942D+00 -0.80478793478870D-15
   1   2   1   2 -0.33190218508781D+01 -0.27408630920434D-15
   2   2   1   2 -0.16595109318450D+01  0.59671109950893D-16
   3   2   1   2 -0.16595109330032D+01  0.14152353442862D-15
   1   1   2   2  0.55032288528682D+00  0.36554988472289D-15
   2   1   2   2  0.11006457650078D+01  0.72815541980974D-15
   3   1   2   2  0.55032288753415D+00 -0.39003432444250D-15
   1   2   2   2 -0.16595109318450D+01  0.47809316760192D-15
   2   2   2   2 -0.33190218471646D+01 -0.34694469519536D-16
   3   2   2   2 -0.16595109304054D+01  0.44792312917655D-15
   1   1   3   2  0.55032288757036D+00  0.24205199446689D-16
   2   1   3   2  0.55032288783526D+00 -0.40756311829364D-15
   3   1   3   2  0.11006457528326D+01 -0.12968326582003D-14
   1   2   3   2 -0.16595109330032D+01  0.37195461446052D-15
   2   2   3   2 -0.16595109304054D+01 -0.15995903216440D-15
   3   2   3   2 -0.33190218398132D+01 -0.41633363423443D-16
 K-point:  5.00000000E-01  0.00000000E+00  0.00000000E+00
 Band:  1
   1   1   1   1 -0.45692770391690D+01  0.60715321659188D-17
   2   1   1   1 -0.18059443529325D+01 -0.15122565935575D-15
   3   1   1   1 -0.18059443534368D+01  0.40418882966784D-16
   1   2   1   1  0.12337347874870D+00 -0.31466839715265D-15
   2   2   1   1  0.75221877123441D+00  0.37941205489382D-15
   3   2   1   1  0.75221876949025D+00  0.45728507325806D-15
   1   1   2   1 -0.18059443529325D+01  0.10568916811136D-15
   2   1   2   1 -0.36118886918436D+01  0.17347234759768D-16
   3   1   2   1 -0.18059443484815D+01  0.74825806814060D-16
   1   2   2   1  0.75221876570526D+00 -0.25717426489800D-15
   2   2   2   1  0.15044375289117D+01  0.17792940145586D-16
   3   2   2   1  0.75221876689599D+00  0.34195870745310D-16
   1   1   3   1 -0.18059443534368D+01  0.97491633373372D-16
   2   1   3   1 -0.18059443484815D+01 -0.19674208230345D-17
   3   1   3   1 -0.36118886925082D+01  0.22551405187698D-16
   1   2   3   1  0.75221876831203D+00 -0.55597528458856D-15
   2   2   3   1  0.75221876799319D+00  0.18290753205328D-15
   3   2   3   1  0.15044375247814D+01 -0.14420740993944D-15
   1   1   1   2  0.12337347874870D+00  0.32485989757401D-15
   2   1   1   2  0.75221876570526D+00  0.32222639524714D-15
   3   1   1   2  0.75221876831203D+00  0.48138217512156D-15
   1   2   1   2 -0.45692770135734D+01 -0.13270634591223D-15
   2   2   1   2 -0.18059443482019D+01 -0.46519775654130D-15
   3   2   1   2 -0.18059443503504D+01 -0.28635022011877D-16
   1   1   2   2  0.75221877123441D+00 -0.40369818355749D-15
   2   1   2   2  0.15044375289117D+01 -0.42079068809262D-16
   3   1   2   2  0.75221876799319D+00 -0.10311025215835D-15
   1   2   2   2 -0.18059443482019D+01  0.52981620602144D-15
   2   2   2   2 -0.36118886882734D+01  0.12143064331838D-16
   3   2   2   2 -0.18059443455441D+01  0.53901443779153D-16
   1   1   3   2  0.75221876949025D+00 -0.33758915341566D-15
   2   1   3   2  0.75221876689599D+00 -0.51543105505078D-16
   3   1   3   2  0.15044375247814D+01  0.13379906908358D-15
   1   2   3   2 -0.18059443503504D+01  0.36430401461339D-15
   2   2   3   2 -0.18059443455441D+01  0.12018048307966D-16
   3   2   3   2 -0.36118886853531D+01  0.36429192995513D-16
 Band:  2
   1   1   1   1 -0.14018557304742D+02 -0.12967057982927D-15
   2   1   1   1 -0.27292253119601D+01 -0.15770774692700D-15
   3   1   1   1 -0.27292253240334D+01 -0.56153571821298D-16
   1   2   1   1  0.14598797835842D+01 -0.15954336590798D-15
   2   2   1   1 -0.86496707215262D-01  0.62203831298374D-16
   3   2   1   1 -0.86496711188707D-01  0.24412811077039D-15
   1   1   2   1 -0.27292253119601D+01  0.85716722673964D-16
   2   1   2   1 -0.54584505978330D+01 -0.14571677198205D-15
   3   1   2   1 -0.27292252974805D+01  0.88556733062133D-16
   1   2   2   1 -0.86496702613009D-01  0.12808088594840D-15
   2   2   2   1 -0.17299340636597D+00  0.14449704427095D-15
   3   2   2   1 -0.86496703394240D-01  0.15541013482395D-15
   1   1   3   1 -0.27292253240334D+01 -0.15635005398586D-15
   2   1   3   1 -0.27292252974805D+01 -0.10069979739397D-15
   3   1   3   1 -0.54584505978587D+01 -0.53776427755281D-16
   1   2   3   1 -0.86496708900661D-01 -0.22156208903425D-15
   2   2   3   1 -0.86496702926976D-01  0.68582594200875D-16
   3   2   3   1 -0.17299340447072D+00  0.35100224197525D-15
   1   1   1   2  0.14598797835842D+01 -0.10337566091975D-15
   2   1   1   2 -0.86496702613008D-01 -0.18532676065563D-15
   3   1   1   2 -0.86496708900661D-01  0.49824464912549D-16
   1   2   1   2 -0.14018557202758D+02  0.32656169435263D-15
   2   2   1   2 -0.27292252826337D+01  0.48970351768560D-15
   3   2   1   2 -0.27292252984750D+01  0.73957077207838D-15
   1   1   2   2 -0.86496707215261D-01  0.30729226908469D-15
   2   1   2   2 -0.17299340636597D+00 -0.17919151379048D-15
   3   1   2   2 -0.86496702926976D-01  0.11876754120462D-15
   1   2   2   2 -0.27292252826337D+01 -0.29801657359016D-15
   2   2   2   2 -0.54584505615792D+01 -0.23592239273285D-15
   3   2   2   2 -0.27292252799415D+01 -0.20097940784980D-15
   1   1   3   2 -0.86496711188707D-01 -0.21377044994080D-15
   2   1   3   2 -0.86496703394240D-01 -0.27684077814233D-15
   3   1   3   2 -0.17299340447072D+00 -0.13936597790608D-15
   1   2   3   2 -0.27292252984750D+01 -0.87921601189451D-15
   2   2   3   2 -0.27292252799415D+01  0.24037613300165D-16
   3   2   3   2 -0.54584505642899D+01 -0.18735013540550D-15
 Band:  3
   1   1   1   1 -0.22761888860616D+02  0.19775847626136D-15
   2   1   1   1 -0.23130273584674D+02  0.99085567080722D-15
   3   1   1   1 -0.19383414771136D+02  0.14325201541025D-14
   1   2   1   1  0.15042090505518D+01  0.11135251847508D-14
   2   2   1   1 -0.93639218970331D-01 -0.94960658243541D-15
   3   2   1   1  0.57945040607006D+00  0.25734511104825D-14
   1   1   2   1 -0.23130273584674D+02 -0.52594977924543D-15
   2   1   2   1 -0.40633778271098D+02 -0.28449465006020D-15
   3   1   2   1 -0.28192083926014D+02  0.15302025966604D-14
   1   2   2   1 -0.93639216273388D-01  0.34660894250826D-14
   2   2   2   1 -0.14582833549927D+01 -0.30105249248444D-14
   3   2   2   1 -0.10029739401638D+01  0.17091245836408D-14
   1   1   3   1 -0.19383414771136D+02 -0.86006140703015D-15
   2   1   3   1 -0.28192083926014D+02 -0.92304938006856D-15
   3   1   3   1 -0.28975009404099D+02  0.58113236445223D-15
   1   2   3   1  0.57945040811589D+00  0.20247453229913D-14
   2   2   3   1 -0.10029739449795D+01 -0.24615765989250D-14
   3   2   3   1 -0.10529408971487D+01  0.20852723742384D-14
   1   1   1   2  0.15042090505518D+01 -0.30427668320763D-15
   2   1   1   2 -0.93639216273385D-01  0.10699956241623D-14
   3   1   1   2  0.57945040811589D+00 -0.58232275271655D-15
   1   2   1   2 -0.22761888812523D+02  0.20990154059319D-15
   2   2   1   2 -0.23130273524355D+02  0.16250854655083D-14
   3   2   1   2 -0.19383414714133D+02  0.27266061837900D-14
   1   1   2   2 -0.93639218970334D-01 -0.73480991273807D-15
   2   1   2   2 -0.14582833549927D+01  0.29341970919014D-14
   3   1   2   2 -0.10029739449795D+01  0.67658202076996D-16
   1   2   2   2 -0.23130273524355D+02 -0.94854330987739D-15
   2   2   2   2 -0.40633778132562D+02  0.70776717819854D-15
   3   2   2   2 -0.28192083826374D+02  0.17631921209411D-14
   1   1   3   2  0.57945040607006D+00  0.44323301424114D-15
   2   1   3   2 -0.10029739401638D+01  0.37254358753133D-15
   3   1   3   2 -0.10529408971487D+01 -0.98892713742109D-15
   1   2   3   2 -0.19383414714133D+02 -0.16510776286844D-14
   2   2   3   2 -0.28192083826374D+02  0.27337323985570D-15
   3   2   3   2 -0.28975009303210D+02  0.90899510141185D-15
 Band:  4
   1   1   1   1 -0.12482816670511D+02 -0.29289721689696D-15
   2   1   1   1 -0.44808430393067D+01  0.51444196659729D-15
   3   1   1   1 -0.82277018384001D+01 -0.42216338346110D-15
   1   2   1   1 -0.81770149575094D+00  0.45695378989171D-15
   2   2   1   1 -0.91188018147791D+00 -0.32586056657766D-15
   3   2   1   1 -0.15849697956097D+01 -0.14130066307359D-14
   1   1   2   1 -0.44808430393067D+01 -0.54479962742689D-15
   2   1   2   1 -0.14588454953691D+02 -0.17867651802561D-15
   3   1   2   1  0.58096728667933D+00 -0.72806098967957D-16
   1   2   2   1 -0.91188018698697D+00 -0.57481227444326D-15
   2   2   2   1 -0.55275544697252D+00 -0.46595536459153D-15
   3   2   2   1 -0.25454691655269D-02 -0.42821111474884D-15
   1   1   3   1 -0.82277018384001D+01  0.22787435415170D-15
   2   1   3   1  0.58096728667932D+00  0.24280899961368D-15
   3   1   3   1 -0.26247223743804D+02 -0.10581813203459D-14
   1   2   3   1 -0.15849697980773D+01 -0.54366426301240D-15
   2   2   3   1 -0.25454646428502D-02  0.19523607690642D-15
   3   2   3   1 -0.95809788171038D+00  0.27706397054379D-15
   1   1   1   2 -0.81770149575094D+00 -0.22680477372735D-15
   2   1   1   2 -0.91188018698697D+00  0.48323699484298D-16
   3   1   1   2 -0.15849697980773D+01  0.45237444008912D-15
   1   2   1   2 -0.12482816670718D+02 -0.53115064430065D-15
   2   2   1   2 -0.44808430403955D+01  0.31832207388740D-15
   3   2   1   2 -0.82277018286651D+01  0.38586784663757D-16
   1   1   2   2 -0.91188018147791D+00 -0.65783606451844D-15
   2   1   2   2 -0.55275544697252D+00  0.13635790415593D-15
   3   1   2   2 -0.25454646428507D-02 -0.18829718300252D-15
   1   2   2   2 -0.44808430403955D+01 -0.58454791734122D-15
   2   2   2   2 -0.14588454958611D+02 -0.49613091412937D-15
   3   2   2   2  0.58096729759366D+00 -0.14026250426216D-14
   1   1   3   2 -0.15849697956097D+01  0.12579657200704D-14
   2   1   3   2 -0.25454691655274D-02  0.49586533031193D-15
   3   1   3   2 -0.95809788171038D+00  0.27240969047187D-15
   1   2   3   2 -0.82277018286651D+01  0.15673223670951D-15
   2   2   3   2  0.58096729759366D+00  0.58557028543653D-15
   3   2   3   2 -0.26247223728166D+02  0.10651202142498D-14
 Band:  5
   1   1   1   1 -0.11400218534568D+02 -0.34499313128489D-15
   2   1   1   1 -0.21265731866715D+01 -0.26177405785839D-14
   3   1   1   1 -0.10058920310183D+02  0.41867710666809D-14
   1   2   1   1  0.77428104861823D+00 -0.18522366679919D-14
   2   2   1   1 -0.62185306398785D+00  0.72455299639153D-15
   3   2   1   1  0.28084467607994D+01 -0.30048683711336D-14
   1   1   2   1 -0.21265731866714D+01  0.27993444424752D-14
   2   1   2   1 -0.11976558158244D+02 -0.17867651802561D-15
   3   1   2   1  0.53788570009795D+01  0.63711130949600D-14
   1   2   2   1 -0.62185306651643D+00 -0.11964258923080D-15
   2   2   2   1  0.12130794929977D+01  0.16717338136723D-14
   3   2   2   1 -0.38675595407819D+01 -0.38177077717267D-14
   1   1   3   1 -0.10058920310183D+02 -0.45293789531863D-14
   2   1   3   1  0.53788570009795D+01 -0.44958770174291D-14
   3   1   3   1 -0.36003980972700D+02 -0.20816681711722D-15
   1   2   3   1  0.28084467560342D+01 -0.25094227165711D-14
   2   2   3   1 -0.38675595288636D+01 -0.28460255878334D-14
   3   2   3   1  0.10670178462748D+02 -0.14285431115271D-15
   1   1   1   2  0.77428104861823D+00  0.12266520144678D-14
   2   1   1   2 -0.62185306651643D+00  0.38874156844170D-15
   3   1   1   2  0.28084467560342D+01  0.21191099344763D-14
   1   2   1   2 -0.11400218505165D+02 -0.36862873864507D-16
   2   2   1   2 -0.21265731932061D+01  0.47165161428727D-15
   3   2   1   2 -0.10058920280953D+02 -0.36522652291348D-14
   1   1   2   2 -0.62185306398785D+00 -0.17627195776561D-15
   2   1   2   2  0.12130794929977D+01 -0.10437639153687D-14
   3   1   2   2 -0.38675595288636D+01  0.34219537818577D-14
   1   2   2   2 -0.21265731932061D+01 -0.82943833120749D-15
   2   2   2   2 -0.11976558144207D+02 -0.31225022567583D-16
   3   2   2   2  0.53788569608581D+01 -0.46845054378850D-14
   1   1   3   2  0.28084467607994D+01  0.27594049992828D-14
   2   1   3   2 -0.38675595407819D+01  0.44023095831309D-14
   3   1   3   2  0.10670178462748D+02  0.59587584305827D-16
   1   2   3   2 -0.10058920280953D+02  0.37802010854881D-14
   2   2   3   2  0.53788569608581D+01  0.51997183102501D-14
   3   2   3   2 -0.36003980907715D+02  0.67307270867900D-15
 Band:  6
   1   1   1   1 -0.27139889882232D+02 -0.72858385991026D-16
   2   1   1   1 -0.33446312119988D+02 -0.10181513772219D-13
   3   1   1   1 -0.25513965396365D+02 -0.62040191141544D-14
   1   2   1   1  0.57809646501081D+01  0.59115815982255D-14
   2   2   1   1  0.11122352671479D+02  0.13114288463730D-13
   3   2   1   1  0.76920531593622D+01  0.17934330443239D-14
   1   1   2   1 -0.33446312119988D+02  0.99091621864910D-14
   2   1   2   1 -0.59169212526127D+02 -0.55511151231258D-16
   3   1   2   1 -0.40951741834898D+02  0.29178435183690D-14
   1   2   2   1  0.11122352662914D+02  0.18183399062692D-14
   2   2   2   1  0.19787919918208D+02  0.10508465464829D-13
   3   2   2   1  0.14368058776841D+02 -0.56418043989707D-14
   1   1   3   1 -0.25513965396365D+02  0.60444245543646D-14
   2   1   3   1 -0.40951741834898D+02 -0.40627610125137D-14
   3   1   3   1 -0.35141790648003D+02 -0.75633943552589D-15
   1   2   3   1  0.76920531475328D+01  0.11864288927763D-14
   2   2   3   1  0.14368058776287D+02  0.86936112103798D-14
   3   2   3   1  0.10330821750852D+02 -0.32210583651949D-14
   1   1   1   2  0.57809646501081D+01 -0.68882309152004D-14
   2   1   1   2  0.11122352662914D+02 -0.21184470676131D-14
   3   1   1   2  0.76920531475328D+01 -0.95224122351945D-15
   1   2   1   2 -0.27139889806033D+02  0.10373646386341D-14
   2   2   1   2 -0.33446312018724D+02 -0.99813767126070D-14
   3   2   1   2 -0.25513965337770D+02  0.20404778114998D-14
   1   1   2   2  0.11122352671479D+02 -0.14710234061629D-13
   2   1   2   2  0.19787919918208D+02 -0.14158323658284D-13
   3   1   2   2  0.14368058776287D+02 -0.81142135694036D-14
   1   2   2   2 -0.33446312018724D+02  0.12302436723464D-13
   2   2   2   2 -0.59169212396785D+02 -0.10824674490095D-14
   3   2   2   2 -0.40951741741602D+02  0.18099206450830D-13
   1   1   3   2  0.76920531593622D+01 -0.33963175361265D-14
   2   1   3   2  0.14368058776841D+02  0.17456154719268D-14
   3   1   3   2  0.10330821750852D+02 -0.31777752579775D-15
   1   2   3   2 -0.25513965337770D+02 -0.82096720788814D-15
   2   2   3   2 -0.40951741741602D+02 -0.18619623493623D-13
   3   2   3   2 -0.35141790590710D+02 -0.41806835771041D-15
 Band:  7
   1   1   1   1  0.32937389635131D+01 -0.51347814888913D-15
   2   1   1   1  0.94772544389040D+01 -0.40851970841415D-14
   3   1   1   1  0.94772548052571D+01 -0.61749914598906D-14
   1   2   1   1 -0.72215837390321D+01  0.33715013319246D-14
   2   2   1   1 -0.10011131346963D+02  0.58124237602385D-14
   3   2   1   1 -0.10011131675882D+02  0.67907902818385D-14
   1   1   2   1  0.94772544389040D+01  0.49594977160338D-14
   2   1   2   1  0.18954509045017D+02 -0.27755575615629D-15
   3   1   2   1  0.94772540376827D+01  0.36341777067496D-14
   1   2   2   1 -0.10011131354196D+02 -0.14395600196065D-14
   2   2   2   1 -0.20022262908359D+02  0.28046233243317D-14
   3   2   2   1 -0.10011130984060D+02  0.25819306715598D-14
   1   1   3   1  0.94772548052571D+01  0.47872126791091D-14
   2   1   3   1  0.94772540376827D+01 -0.31623329212840D-14
   3   1   3   1  0.18954509895985D+02 -0.44408920985006D-15
   1   2   3   1 -0.10011131670509D+02  0.17475839492263D-14
   2   2   3   1 -0.10011130987421D+02  0.43010157168716D-14
   3   2   3   1 -0.20022263761469D+02  0.33032471817174D-14
   1   1   1   2 -0.72215837390321D+01 -0.25527118512635D-14
   2   1   1   2 -0.10011131354196D+02  0.21334494099973D-14
   3   1   1   2 -0.10011131670509D+02 -0.13867614662232D-14
   1   2   1   2  0.32937388991929D+01  0.30531133177192D-15
   2   2   1   2  0.94772543704014D+01 -0.37506867840950D-14
   3   2   1   2  0.94772547288842D+01 -0.42414421240245D-14
   1   1   2   2 -0.10011131346963D+02 -0.53960901260041D-14
   2   1   2   2 -0.20022262908359D+02 -0.16944002997065D-14
   3   1   2   2 -0.10011130987421D+02 -0.40234599607154D-14
   1   2   2   2  0.94772543704014D+01  0.34314976645153D-14
   2   2   2   2  0.18954508886936D+02 -0.16653345369377D-15
   3   2   2   2  0.94772539625257D+01 -0.15769914906628D-14
   1   1   3   2 -0.10011131675882D+02 -0.72348794916885D-14
   2   1   3   2 -0.10011130984060D+02 -0.23043749154035D-14
   3   1   3   2 -0.20022263761469D+02 -0.25816022157110D-14
   1   2   3   2  0.94772547288842D+01  0.41165420337542D-14
   2   2   3   2  0.94772539625257D+01  0.17157693687410D-14
   3   2   3   2  0.18954509761828D+02  0.27755575615629D-16
 Band:  8
   1   1   1   1 -0.32587408913581D+02 -0.74940054162198D-15
   2   1   1   1 -0.58541329592167D+01 -0.55539059841518D-15
   3   1   1   1 -0.58541330037475D+01 -0.37696299585637D-14
   1   2   1   1  0.45115021251795D+00  0.27130258559282D-14
   2   2   1   1  0.73736715909443D+00  0.27335744452508D-14
   3   2   1   1  0.73736716083669D+00  0.14231274621369D-14
   1   1   2   1 -0.58541329592167D+01 -0.89483822750143D-15
   2   1   2   1 -0.11708266122326D+02 -0.22898349882894D-15
   3   1   2   1 -0.58541330709232D+01 -0.33706922867164D-15
   1   2   2   1  0.73736715941972D+00 -0.80366408550715D-15
   2   2   2   1  0.14747343158336D+01  0.54065213678151D-15
   3   2   2   1  0.73736715686598D+00 -0.16434346837237D-15
   1   1   3   1 -0.58541330037475D+01  0.19447008618361D-14
   2   1   3   1 -0.58541330709232D+01  0.47151029805984D-15
   3   1   3   1 -0.11708266124571D+02 -0.56985666185838D-15
   1   2   3   1  0.73736716056254D+00  0.13260801866196D-14
   2   2   3   1  0.73736715602443D+00 -0.23323593119093D-15
   3   2   3   1  0.14747343205733D+01 -0.68887815275175D-15
   1   1   1   2  0.45115021251795D+00  0.64192934661092D-15
   2   1   1   2  0.73736715941972D+00  0.20491955412585D-14
   3   1   1   2  0.73736716056253D+00 -0.16209831775356D-14
   1   2   1   2 -0.32587410811301D+02  0.98532293435483D-15
   2   2   1   2 -0.58541334552913D+01 -0.74854583879735D-15
   3   2   1   2 -0.58541334061542D+01 -0.14886438483647D-14
   1   1   2   2  0.73736715909443D+00 -0.29764357318876D-14
   2   1   2   2  0.14747343158336D+01 -0.27003527452913D-15
   3   1   2   2  0.73736715602443D+00 -0.33575336892947D-15
   1   2   2   2 -0.58541334552913D+01  0.23236747549843D-14
   2   2   2   2 -0.11708266692234D+02 -0.79450335199738D-15
   3   2   2   2 -0.58541333427055D+01 -0.54446841415610D-15
   1   1   3   2  0.73736716083669D+00 -0.27820996799221D-15
   2   1   3   2  0.73736715686598D+00 -0.23006667033124D-16
   3   1   3   2  0.14747343205733D+01  0.45989465392281D-15
   1   2   3   2 -0.58541334061542D+01  0.14400715910374D-14
   2   2   3   2 -0.58541333427055D+01 -0.43044617934286D-15
   3   2   3   2 -0.11708266676580D+02 -0.64184768611142D-15
 K-point:  0.00000000E+00  5.00000000E-01  0.00000000E+00
 Band:  1
   1   1   1   1 -0.36118886900494D+01  0.00000000000000D+00
   2   1   1   1 -0.18059443495235D+01 -0.13242764516595D-15
   3   1   1   1 -0.18059443479706D+01  0.44219501654407D-16
   1   2   1   1  0.15044375313998D+01 -0.30437326965896D-15
   2   2   1   1  0.75221877136917D+00 -0.75953016573535D-16
   3   2   1   1  0.75221877016904D+00 -0.24355307216827D-15
   1   1   2   1 -0.18059443495235D+01  0.28898643887286D-15
   2   1   2   1 -0.45692770132091D+01 -0.14484941024406D-15
   3   1   2   1 -0.18059443500338D+01  0.17561023615883D-15
   1   2   2   1  0.75221876902054D+00 -0.21290165170528D-16
   2   2   2   1  0.12337347701817D+00 -0.44887759258954D-15
   3   2   2   1  0.75221877129657D+00 -0.29811019348518D-15
   1   1   3   1 -0.18059443479706D+01 -0.85141475498662D-18
   2   1   3   1 -0.18059443500338D+01 -0.51388131397431D-15
   3   1   3   1 -0.36118886867785D+01  0.34694469519536D-17
   1   2   3   1  0.75221877033225D+00 -0.33486575693885D-15
   2   2   3   1  0.75221876971349D+00 -0.40828239385091D-16
   3   2   3   1  0.15044375275783D+01 -0.31010084054735D-15
   1   1   1   2  0.15044375313998D+01  0.33212884527459D-15
   2   1   1   2  0.75221876902054D+00  0.11149578592132D-15
   3   1   1   2  0.75221877033225D+00  0.34180465084275D-15
   1   2   1   2 -0.36118886954219D+01  0.38163916471490D-16
   2   2   1   2 -0.18059443538005D+01  0.29775946687741D-15
   3   2   1   2 -0.18059443516955D+01  0.14305891623600D-15
   1   1   2   2  0.75221877136917D+00  0.14370333176358D-16
   2   1   2   2  0.12337347701817D+00  0.37233291921207D-15
   3   1   2   2  0.75221876971349D+00 -0.40703763985819D-16
   1   2   2   2 -0.18059443538005D+01 -0.78316947166342D-16
   2   2   2   2 -0.45692770418369D+01 -0.92807705964759D-16
   3   2   2   2 -0.18059443546178D+01 -0.28553611008590D-15
   1   1   3   2  0.75221877016904D+00  0.14640855751356D-15
   2   1   3   2  0.75221877129657D+00  0.29984491696116D-15
   3   1   3   2  0.15044375275783D+01  0.30316194664344D-15
   1   2   3   2 -0.18059443516955D+01  0.61273026980058D-17
   2   2   3   2 -0.18059443546178D+01  0.13374780593793D-15
   3   2   3   2 -0.36118886955757D+01  0.26020852139652D-16
 Band:  2
   1   1   1   1 -0.54584505648606D+01 -0.15265566588596D-15
   2   1   1   1 -0.27292252898358D+01 -0.35200814944697D-15
   3   1   1   1 -0.27292252821940D+01  0.45639102369660D-16
   1   2   1   1 -0.17299340575309D+00 -0.10603470920438D-15
   2   2   1   1 -0.86496707127833D-01 -0.50043229229233D-15
   3   2   1   1 -0.86496703170230D-01 -0.17546662850759D-15
   1   1   2   1 -0.27292252898358D+01  0.88330181098494D-16
   2   1   2   1 -0.14018557210535D+02 -0.42381462922458D-15
   3   1   2   1 -0.27292253042175D+01  0.17362402842075D-15
   1   2   2   1 -0.86496706404927D-01 -0.57964006932106D-15
   2   2   2   1  0.14598797839021D+01  0.17247237083009D-15
   3   2   2   1 -0.86496710034243D-01 -0.11773736720137D-14
   1   1   3   1 -0.27292252821940D+01 -0.68190507557358D-16
   2   1   3   1 -0.27292253042175D+01 -0.30025884216706D-15
   3   1   3   1 -0.54584505665588D+01 -0.74593109467003D-16
   1   2   3   1 -0.86496703029482D-01  0.38661968749436D-16
   2   2   3   1 -0.86496709158484D-01 -0.58662906962313D-15
   3   2   3   1 -0.17299340372975D+00 -0.15115952507159D-15
   1   1   1   2 -0.17299340575309D+00  0.15460696653173D-15
   2   1   1   2 -0.86496706404926D-01  0.33504405920833D-15
   3   1   1   2 -0.86496703029482D-01  0.48074205049404D-16
   1   2   1   2 -0.54584505809936D+01 -0.26714741530043D-15
   2   2   1   2 -0.27292252962049D+01 -0.45606579881231D-16
   3   2   1   2 -0.27292252896144D+01 -0.95257089324773D-16
   1   1   2   2 -0.86496707127833D-01  0.26017309086954D-15
   2   1   2   2  0.14598797839021D+01  0.67266322262236D-15
   3   1   2   2 -0.86496709158483D-01  0.15555028584289D-15
   1   2   2   2 -0.27292252962050D+01  0.51484928013296D-15
   2   2   2   2 -0.14018557240811D+02  0.26974950051439D-15
   3   2   2   2 -0.27292253089223D+01  0.28805034706367D-15
   1   1   3   2 -0.86496703170230D-01  0.99138795564614D-16
   2   1   3   2 -0.86496710034243D-01  0.57542462584972D-15
   3   1   3   2 -0.17299340372975D+00  0.50851256112281D-15
   1   2   3   2 -0.27292252896144D+01 -0.64337470465093D-16
   2   2   3   2 -0.27292253089223D+01 -0.34789830698487D-15
   3   2   3   2 -0.54584505813025D+01 -0.19081958235745D-15
 Band:  3
   1   1   1   1 -0.38729953643084D+02 -0.11058862159352D-14
   2   1   1   1 -0.22874170635440D+02  0.12343103016313D-15
   3   1   1   1 -0.29187873727667D+02  0.51058478380101D-15
   1   2   1   1 -0.13920954996143D+01  0.13396598576614D-14
   2   2   1   1  0.96628584856326D-01  0.49850657690281D-15
   3   2   1   1 -0.10376017332038D+01  0.18057813941061D-14
   1   1   2   1 -0.22874170635440D+02  0.81266340002135D-16
   2   1   2   1 -0.23117631157618D+02  0.19775847626136D-15
   3   1   2   1 -0.20671026116328D+02  0.74791287503298D-16
   1   2   2   1  0.96628587165915D-01  0.68560844678760D-15
   2   2   2   1  0.15845654130397D+01  0.69403966764280D-15
   3   2   2   1  0.49240330205840D+00 -0.94286542027986D-15
   1   1   3   1 -0.29187873727667D+02 -0.42384861000216D-15
   2   1   3   1 -0.20671026116328D+02  0.10926776118291D-14
   3   1   3   1 -0.31874623932633D+02  0.70776717819854D-15
   1   2   3   1 -0.10376017330781D+01  0.22655558722639D-14
   2   2   3   1  0.49240329768687D+00 -0.13293440461044D-14
   3   2   3   1 -0.11537562760026D+01 -0.24928325364779D-14
   1   1   1   2 -0.13920954996143D+01 -0.29494832433679D-14
   2   1   1   2  0.96628587165912D-01 -0.17871578540329D-14
   3   1   1   2 -0.10376017330781D+01 -0.29039341114234D-14
   1   2   1   2 -0.38729953669000D+02 -0.10547118733939D-14
   2   2   1   2 -0.22874170658518D+02  0.15062247537179D-14
   3   2   1   2 -0.29187873758577D+02 -0.72072899743302D-15
   1   1   2   2  0.96628584856324D-01  0.20994586688070D-14
   2   1   2   2  0.15845654130397D+01 -0.21872543522516D-15
   3   1   2   2  0.49240329768687D+00  0.30542351440905D-15
   1   2   2   2 -0.22874170658518D+02 -0.85743817370256D-15
   2   2   2   2 -0.23117631181049D+02  0.17173762412170D-15
   3   2   2   2 -0.20671026146654D+02 -0.11639413086152D-15
   1   1   3   2 -0.10376017332038D+01 -0.73719173290436D-15
   2   1   3   2  0.49240330205840D+00 -0.86124699473602D-15
   3   1   3   2 -0.11537562760026D+01  0.13826095118527D-14
   1   2   3   2 -0.29187873758577D+02  0.56807333154706D-15
   2   2   3   2 -0.20671026146654D+02  0.21841845142259D-14
   3   2   3   2 -0.31874623976556D+02  0.48572257327351D-15
 Band:  4
   1   1   1   1 -0.16492279419690D+02 -0.15959455978987D-15
   2   1   1   1 -0.47369459001936D+01 -0.48031568734405D-15
   3   1   1   1  0.15767571885500D+01 -0.15126934171212D-14
   1   2   1   1 -0.61894329789802D+00 -0.74997396792308D-15
   2   2   1   1 -0.11021479803728D+01 -0.33933323002890D-15
   3   2   1   1  0.32082326025131D-01 -0.41493075898162D-15
   1   1   2   1 -0.47369459001936D+01  0.17077596709944D-15
   2   1   2   1 -0.12127074285155D+02 -0.17176472917602D-15
   3   1   2   1 -0.69400904031279D+01  0.46088881688938D-15
   1   2   2   1 -0.11021479833050D+01 -0.46608446701133D-16
   2   2   2   1 -0.89805785519573D+00  0.68991177305702D-18
   3   2   2   1 -0.14979226888792D+01 -0.10878878835866D-14
   1   1   3   1  0.15767571885500D+01  0.11553403810699D-14
   2   1   3   1 -0.69400904031279D+01 -0.43486796474973D-15
   3   1   3   1 -0.23347609077765D+02  0.14918621893401D-15
   1   2   3   1  0.32082325638853D-01 -0.47870041803514D-15
   2   2   3   1 -0.14979226835358D+01  0.12951476558838D-15
   3   2   3   1 -0.85728250314719D+00 -0.12672070207822D-14
   1   1   1   2 -0.61894329789802D+00  0.99283525455983D-15
   2   1   1   2 -0.11021479833050D+01 -0.28401900579832D-15
   3   1   1   2  0.32082325638854D-01  0.10355466538237D-14
   1   2   1   2 -0.16492279444417D+02 -0.56378512969246D-15
   2   2   1   2 -0.47369458981056D+01 -0.10496686244267D-14
   3   2   1   2  0.15767571895192D+01 -0.22445575446493D-14
   1   1   2   2 -0.11021479803728D+01  0.19521565625127D-15
   2   1   2   2 -0.89805785519573D+00 -0.41328304851242D-15
   3   1   2   2 -0.14979226835358D+01 -0.51267181334476D-15
   1   2   2   2 -0.47369458981056D+01  0.90059082570989D-15
   2   2   2   2 -0.12127074299673D+02 -0.64188834369289D-15
   3   2   2   2 -0.69400904252572D+01 -0.50309194860786D-15
   1   1   3   2  0.32082326025130D-01  0.30043900956715D-15
   2   1   3   2 -0.14979226888792D+01  0.91398185511992D-15
   3   1   3   2 -0.85728250314719D+00 -0.53777275597164D-15
   1   2   3   2  0.15767571895192D+01  0.15593417716385D-14
   2   2   3   2 -0.69400904252572D+01  0.38006888334864D-15
   3   2   3   2 -0.23347609129369D+02  0.40072112295064D-15
 Band:  5
   1   1   1   1 -0.14247978042463D+02 -0.38337388819087D-15
   2   1   1   1 -0.22511013291457D+01  0.46391029325475D-15
   3   1   1   1  0.72196142220108D+01 -0.49148656143930D-15
   1   2   1   1  0.21070988492869D+01 -0.15206554656511D-14
   2   2   1   1 -0.49649553857290D+00  0.15965095160834D-14
   3   2   1   1 -0.45920842345831D+01  0.72042073020173D-14
   1   1   2   1 -0.22511013291457D+01 -0.31136304758604D-15
   2   1   2   1 -0.10774866640196D+02 -0.29490299091606D-15
   3   1   2   1 -0.80759860770406D+01 -0.53456680737252D-15
   1   2   2   1 -0.49649554196746D+00 -0.12416904619932D-15
   2   2   2   1  0.57535801508818D+00 -0.14526324148821D-15
   3   2   2   1  0.20224426982248D+01 -0.15828889247180D-14
   1   1   3   1  0.72196142220108D+01  0.20699191137911D-15
   2   1   3   1 -0.80759860770406D+01  0.76680291271891D-15
   3   1   3   1 -0.31891806011885D+02 -0.90205620750794D-16
   1   2   3   1 -0.45920842376735D+01  0.23185202570009D-14
   2   2   3   1  0.20224426943778D+01  0.92395375999419D-15
   3   2   3   1  0.90516365848979D+01 -0.14951525312860D-13
   1   1   1   2  0.21070988492869D+01  0.15935138516421D-14
   2   1   1   2 -0.49649554196746D+00  0.32843273549559D-15
   3   1   1   2 -0.45920842376735D+01 -0.22352535301540D-14
   1   2   1   2 -0.14247978027943D+02 -0.13877787807814D-15
   2   2   1   2 -0.22511013192761D+01  0.10133783532505D-14
   3   2   1   2  0.72196142783598D+01 -0.71650403659657D-14
   1   1   2   2 -0.49649553857290D+00 -0.16034484099873D-14
   2   1   2   2  0.57535801508818D+00 -0.58093537364258D-15
   3   1   2   2  0.20224426943778D+01  0.78041205515302D-15
   1   2   2   2 -0.22511013192760D+01 -0.89726030057726D-15
   2   2   2   2 -0.10774866628483D+02 -0.37253186646602D-15
   3   2   2   2 -0.80759860614527D+01  0.18922381460092D-14
   1   1   3   2 -0.45920842345831D+01 -0.78217688594651D-14
   2   1   3   2  0.20224426982248D+01  0.30049284941499D-14
   3   1   3   2  0.90516365848979D+01  0.14611519511569D-13
   1   2   3   2  0.72196142783598D+01  0.60340006596289D-14
   2   2   3   2 -0.80759860614527D+01 -0.19948036715264D-14
   3   2   3   2 -0.31891806049910D+02  0.23592239273285D-15
 Band:  6
   1   1   1   1 -0.56897792633147D+02  0.83266726846887D-16
   2   1   1   1 -0.33321783918237D+02  0.10682375605678D-14
   3   1   1   1 -0.42792498905757D+02 -0.66791701038059D-14
   1   2   1   1  0.18893900614633D+02  0.11611125204768D-14
   2   2   1   1  0.10996995130653D+02 -0.96840332641076D-15
   3   2   1   1  0.15092583371736D+02  0.93003756906362D-14
   1   1   2   1 -0.33321783918237D+02 -0.17569227805305D-14
   2   1   2   1 -0.27765241712007D+02 -0.32612801348364D-15
   3   1   2   1 -0.27496899508505D+02 -0.53023088553882D-14
   1   2   2   1  0.10996995132401D+02  0.51210183577290D-14
   2   2   2   1  0.59798876470733D+01  0.25618354908664D-14
   3   2   2   1  0.84780571132812D+01  0.84956239369175D-14
   1   1   3   1 -0.42792498905757D+02  0.68803980270192D-14
   2   1   3   1 -0.27496899508505D+02  0.49727113949526D-14
   3   1   3   1 -0.39253965335159D+02  0.22638141361497D-15
   1   2   3   1  0.15092583376155D+02 -0.48056905893924D-14
   2   2   3   1  0.84780571133221D+01 -0.50142715418358D-14
   3   2   3   1  0.11949363431447D+02  0.18769524892733D-14
   1   1   1   2  0.18893900614633D+02 -0.16745906693660D-14
   2   1   1   2  0.10996995132401D+02 -0.48556056659045D-14
   3   1   1   2  0.15092583376155D+02  0.53746798895128D-14
   1   2   1   2 -0.56897792780770D+02 -0.44061976289811D-15
   2   2   1   2 -0.33321783991167D+02  0.36242970397526D-14
   3   2   1   2 -0.42792499021053D+02 -0.97061527407958D-14
   1   1   2   2  0.10996995130653D+02  0.85564630047227D-15
   2   1   2   2  0.59798876470733D+01 -0.25895910664820D-14
   3   1   2   2  0.84780571133221D+01  0.54323398995462D-14
   1   2   2   2 -0.33321783991167D+02 -0.25279518029352D-14
   2   2   2   2 -0.27765241742314D+02 -0.69388939039072D-16
   3   2   2   2 -0.27496899553942D+02 -0.72589626331062D-14
   1   1   3   2  0.15092583371736D+02 -0.10348148670126D-13
   2   1   3   2  0.84780571132812D+01 -0.99128930167905D-14
   3   1   3   2  0.11949363431447D+02 -0.23557361686429D-14
   1   2   3   2 -0.42792499021053D+02  0.10568310308356D-13
   2   2   3   2 -0.27496899553942D+02  0.95331851101118D-14
   3   2   3   2 -0.39253965406008D+02  0.24199392489876D-15
 Band:  7
   1   1   1   1  0.18954508929436D+02 -0.16653345369377D-15
   2   1   1   1  0.94772543601139D+01  0.74946990081483D-14
   3   1   1   1  0.94772538354852D+01  0.31638434066721D-14
   1   2   1   1 -0.20022263005831D+02  0.37785695723658D-14
   2   2   1   1 -0.10011131354162D+02 -0.19175868692270D-14
   3   2   1   1 -0.10011130893635D+02  0.27994137476300D-14
   1   1   2   1  0.94772543601139D+01 -0.71199987373373D-14
   2   1   2   1  0.32937388723992D+01 -0.37470027081099D-15
   3   1   2   1  0.94772546158224D+01 -0.52838045210070D-14
   1   2   2   1 -0.10011131358464D+02  0.74267955427676D-14
   2   2   2   1 -0.72215837128494D+01  0.27275217864377D-14
   3   2   2   1 -0.10011131585121D+02  0.74590751212393D-14
   1   1   3   1  0.94772538354852D+01 -0.31915989822877D-14
   2   1   3   1  0.94772546158224D+01  0.49784931892351D-14
   3   1   3   1  0.18954509526766D+02 -0.33306690738755D-15
   1   2   3   1 -0.10011130894983D+02 -0.47738969203732D-15
   2   2   3   1 -0.10011131584231D+02 -0.18499896580413D-14
   3   2   3   1 -0.20022263586883D+02  0.14845442059658D-14
   1   1   1   2 -0.20022263005831D+02 -0.31679469088219D-14
   2   1   1   2 -0.10011131358464D+02 -0.72047509378426D-14
   3   1   1   2 -0.10011130894983D+02  0.58841199449984D-15
   1   2   1   2  0.18954509173349D+02 -0.83266726846887D-16
   2   2   1   2  0.94772544779079D+01  0.22162983702218D-14
   3   2   1   2  0.94772539547625D+01 -0.39534150344941D-14
   1   1   2   2 -0.10011131354162D+02  0.16122755374550D-14
   2   1   2   2 -0.72215837128494D+01 -0.27830329376690D-14
   3   1   2   2 -0.10011131584231D+02  0.14614115994225D-14
   1   2   2   2  0.94772544779079D+01 -0.23550762482999D-14
   2   2   2   2  0.32937389490099D+01 -0.98532293435483D-15
   3   2   2   2  0.94772547343551D+01 -0.16016897358420D-14
   1   1   3   2 -0.10011130893635D+02 -0.25773691427049D-14
   2   1   3   2 -0.10011131585121D+02 -0.79031643310894D-14
   3   1   3   2 -0.20022263586883D+02 -0.81841039119067D-15
   1   2   3   2  0.94772539547625D+01  0.42587263662661D-14
   2   2   3   2  0.94772547343551D+01  0.28506906385453D-14
   3   2   3   2  0.18954509759405D+02 -0.44408920985006D-15
 Band:  8
   1   1   1   1 -0.11708266438344D+02 -0.65832755913320D-15
   2   1   1   1 -0.58541332556795D+01  0.61588563659717D-15
   3   1   1   1 -0.58541332164698D+01 -0.50133398993433D-15
   1   2   1   1  0.14747343228382D+01 -0.57791908815883D-15
   2   2   1   1  0.73736715898314D+00  0.21409500268941D-15
   3   2   1   1  0.73736715927379D+00  0.40166361151812D-15
   1   1   2   1 -0.58541332556795D+01 -0.74078572686750D-15
   2   1   2   1 -0.32587409984842D+02  0.11518563880486D-14
   3   1   2   1 -0.58541332059060D+01  0.10821731265052D-14
   1   2   2   1  0.73736715896249D+00 -0.65734871106716D-15
   2   2   2   1  0.45115020376032D+00  0.18515973401945D-14
   3   2   2   1  0.73736715533341D+00  0.91364349292481D-15
   1   1   3   1 -0.58541332164698D+01  0.23765602158586D-15
   2   1   3   1 -0.58541332059060D+01 -0.15930023728550D-15
   3   1   3   1 -0.11708266433962D+02 -0.60194904616395D-15
   1   2   3   1  0.73736715926567D+00 -0.11048340036487D-14
   2   2   3   1  0.73736716056181D+00  0.14725625951751D-14
   3   2   3   1  0.14747343242613D+01  0.38484493772811D-15
   1   1   1   2  0.14747343228382D+01  0.67506360281354D-15
   2   1   1   2  0.73736715896249D+00  0.58795977202809D-15
   3   1   1   2  0.73736715926567D+00  0.83421714139636D-15
   1   2   1   2 -0.11708266385428D+02 -0.83613671542082D-15
   2   2   1   2 -0.58541331507336D+01 -0.30015121030448D-15
   3   2   1   2 -0.58541331950247D+01 -0.42624424370496D-15
   1   1   2   2  0.73736715898314D+00  0.17795250288135D-15
   2   1   2   2  0.45115020376032D+00 -0.29410036831080D-14
   3   1   2   2  0.73736716056181D+00  0.11746254291656D-14
   1   2   2   2 -0.58541331507336D+01 -0.82394960212849D-15
   2   2   2   2 -0.32587409835623D+02 -0.34694469519536D-15
   3   2   2   2 -0.58541332077098D+01 -0.18269304222352D-14
   1   1   3   2  0.73736715927379D+00 -0.46411365665329D-15
   2   1   3   2  0.73736715533341D+00 -0.74364059227908D-15
   3   1   3   2  0.14747343242613D+01  0.48251680026029D-15
   1   2   3   2 -0.58541331950247D+01 -0.27631876406565D-15
   2   2   3   2 -0.58541332077098D+01  0.22224473747580D-14
   3   2   3   2 -0.11708266394796D+02 -0.69388939039072D-15
 K-point:  5.00000000E-01  5.00000000E-01  0.00000000E+00
 Band:  1
   1   1   1   1 -0.11227679483928D+02  0.11926223897341D-15
   2   1   1   1 -0.87151171608049D+01 -0.39802156162580D-15
   3   1   1   1 -0.39590367016349D+01  0.52657234254735D-15
   1   2   1   1  0.11364546942263D+01 -0.12195701629007D-15
   2   2   1   1  0.13429349566345D+01 -0.79838422404398D-15
   3   2   1   1  0.21953795677414D+01 -0.56491506256588D-15
   1   1   2   1 -0.87151171608049D+01  0.35378611298839D-15
   2   1   2   1 -0.11227679457252D+02 -0.15308934675495D-15
   3   1   2   1 -0.39590367018519D+01  0.46288242965529D-15
   1   2   2   1  0.13429349528849D+01 -0.44226547052103D-15
   2   2   2   1  0.11364546947314D+01 -0.54549824190924D-15
   3   2   2   1  0.21953795679436D+01 -0.11881968387392D-14
   1   1   3   1 -0.39590367016349D+01 -0.55920682793916D-15
   2   1   3   1 -0.39590367018519D+01 -0.26046188405224D-15
   3   1   3   1 -0.79180733357763D+01 -0.12271063695758D-15
   1   2   3   1  0.21953795662233D+01 -0.59021299519210D-15
   2   2   3   1  0.21953795663104D+01 -0.89451467183465D-15
   3   2   3   1  0.43907591179200D+01 -0.17177047494641D-14
   1   1   1   2  0.11364546942263D+01 -0.40890150017250D-16
   2   1   1   2  0.13429349528849D+01  0.48070043753564D-15
   3   1   1   2  0.21953795662233D+01  0.74070025673309D-15
   1   2   1   2 -0.74660494977140D+01 -0.43801767768414D-16
   2   2   1   2 -0.54109318891761D+01  0.54784269029053D-15
   3   2   1   2 -0.35015920005344D+01 -0.27018151889262D-15
   1   1   2   2  0.13429349566345D+01  0.63889808447136D-15
   2   1   2   2  0.11364546947314D+01  0.67668670477999D-15
   3   1   2   2  0.21953795663104D+01  0.92237866766752D-15
   1   2   2   2 -0.54109318891761D+01 -0.54047011551763D-15
   2   2   2   2 -0.74660495158035D+01 -0.15699247457590D-15
   3   2   2   2 -0.35015920001948D+01 -0.52955988136417D-15
   1   1   3   2  0.21953795677414D+01  0.82273833918293D-15
   2   1   3   2  0.21953795679436D+01  0.13643796917681D-14
   3   1   3   2  0.43907591179200D+01  0.16224579792247D-14
   1   2   3   2 -0.35015920005344D+01  0.40055683013400D-15
   2   2   3   2 -0.35015920001948D+01  0.73940721184873D-15
   3   2   3   2 -0.70031839439997D+01  0.52953393159366D-16
 Band:  2
   1   1   1   1 -0.74660493194378D+01 -0.12316536679435D-15
   2   1   1   1 -0.39644573445765D+01  0.54788198930759D-15
   3   1   1   1 -0.20551176135020D+01  0.12872352898337D-15
   1   2   1   1  0.11364545157221D+01  0.70500759499326D-15
   2   2   1   1 -0.10589250452016D+01 -0.54271601729771D-16
   3   2   1   1 -0.20648026194959D+00  0.25426094627944D-15
   1   1   2   1 -0.39644573445765D+01 -0.59125007620701D-15
   2   1   2   1 -0.74660493364729D+01  0.65052130349130D-16
   3   1   2   1 -0.20551176137621D+01  0.39968943239557D-15
   1   2   2   1 -0.10589250494371D+01 -0.50451231948403D-15
   2   2   2   1  0.11364545102491D+01 -0.84470559032992D-16
   3   2   2   1 -0.20648026415023D+00  0.26851765795771D-15
   1   1   3   1 -0.20551176135020D+01  0.19393503754831D-15
   2   1   3   1 -0.20551176137621D+01 -0.34417828116431D-15
   3   1   3   1 -0.41102352476039D+01 -0.14149290340517D-16
   1   2   3   1 -0.20648026089384D+00 -0.35786632275423D-15
   2   2   3   1 -0.20648025962529D+00  0.51049399239153D-15
   3   2   3   1 -0.41296052129057D+00  0.35792319240024D-15
   1   1   1   2  0.11364545157221D+01 -0.49684077787605D-15
   2   1   1   2 -0.10589250494371D+01  0.36920388835784D-15
   3   1   1   2 -0.20648026089384D+00  0.18092452820460D-15
   1   2   1   2 -0.11227679239776D+02  0.43021142204225D-15
   2   2   1   2 -0.72686425763195D+01 -0.35918728996529D-16
   3   2   1   2 -0.25125623018393D+01 -0.38977115777456D-15
   1   1   2   2 -0.10589250452016D+01  0.11325219991298D-15
   2   1   2   2  0.11364545102491D+01 -0.99410129420550D-16
   3   1   2   2 -0.20648025962529D+00 -0.48273841677591D-15
   1   2   2   2 -0.72686425763195D+01  0.67776641510795D-15
   2   2   2   2 -0.11227679233251D+02  0.41112946380650D-15
   3   2   2   2 -0.25125622993449D+01 -0.59747113798207D-15
   1   1   3   2 -0.20648026194959D+00 -0.16925949595657D-15
   2   1   3   2 -0.20648026415023D+00 -0.25810931710185D-15
   3   1   3   2 -0.41296052129057D+00 -0.34397897433782D-15
   1   2   3   2 -0.25125623018393D+01 -0.14625839630227D-15
   2   2   3   2 -0.25125622993449D+01 -0.37437654225444D-16
   3   2   3   2 -0.50251246040013D+01 -0.19971742679130D-15
 Band:  3
   1   1   1   1 -0.19025869735712D+02 -0.16740081543176D-15
   2   1   1   1 -0.10628414447788D+02  0.34327448212521D-15
   3   1   1   1 -0.19032774010607D+02 -0.16769875372354D-14
   1   2   1   1  0.89957704747390D-02  0.18293418661586D-14
   2   2   1   1 -0.21513448096595D-02  0.18241023552096D-14
   3   2   1   1 -0.17844932723090D+01  0.32382640005134D-14
   1   1   2   1 -0.10628414447788D+02  0.25824088316975D-15
   2   1   2   1 -0.13614572747208D+02 -0.25733538563943D-15
   3   1   2   1 -0.13621477007744D+02 -0.26124017337745D-14
   1   2   2   1 -0.21513477834654D-02  0.66872582544245D-15
   2   2   2   1  0.89957719874825D-02 -0.95864948382986D-16
   3   2   2   1 -0.17844932736935D+01  0.14610194396181D-14
   1   1   3   1 -0.19032774010607D+02  0.19005500252019D-14
   2   1   3   1 -0.13621477007744D+02  0.26208585107199D-14
   3   1   3   1 -0.32654251048970D+02  0.15467141287920D-15
   1   2   3   1 -0.17844932750993D+01 -0.41135793126965D-15
   2   2   3   1 -0.17844932749309D+01 -0.82767126800780D-15
   3   2   3   1 -0.35689865181623D+01 -0.26936552154113D-15
   1   1   1   2  0.89957704747388D-02 -0.19915385111625D-14
   2   1   1   2 -0.21513477834660D-02 -0.12087846768553D-15
   3   1   1   2 -0.17844932750993D+01  0.53452329806400D-15
   1   2   1   2 -0.13614572752855D+02  0.11866592777854D-15
   2   2   1   2 -0.10628414452992D+02 -0.12579811385569D-14
   3   2   1   2 -0.13621477019118D+02 -0.11749346983786D-14
   1   1   2   2 -0.21513448096604D-02 -0.97185134874710D-16
   2   1   2   2  0.89957719874838D-02 -0.38576121005216D-16
   3   1   2   2 -0.17844932749309D+01  0.15972379700380D-14
   1   2   2   2 -0.10628414452992D+02  0.18315240878017D-14
   2   2   2   2 -0.19025869751258D+02  0.36949610038306D-15
   3   2   2   2 -0.19032774029218D+02  0.18694625556696D-14
   1   1   3   2 -0.17844932723091D+01 -0.23572413151516D-14
   2   1   3   2 -0.17844932736935D+01 -0.10546604653705D-14
   3   1   3   2 -0.35689865181623D+01  0.11296708619087D-14
   1   2   3   2 -0.13621477019118D+02  0.14455515606309D-14
   2   2   3   2 -0.19032774029218D+02 -0.93661500646304D-15
   3   2   3   2 -0.32654251076667D+02  0.37843440516427D-15
 Band:  4
   1   1   1   1 -0.13614572510278D+02 -0.29750507613002D-15
   2   1   1   1  0.69045503545576D-02 -0.46184653112277D-16
   3   1   1   1 -0.29861582891850D+01 -0.49179330293746D-15
   1   2   1   1  0.89955132677264D-02  0.21143738350163D-15
   2   2   1   1  0.17934887717728D+01 -0.72080761280447D-15
   3   2   1   1  0.11147113422921D-01 -0.11711733092229D-14
   1   1   2   1  0.69045503545610D-02 -0.24047840129289D-15
   2   1   2   1 -0.19025869469823D+02  0.15959455978987D-15
   3   1   2   1 -0.83974552808296D+01  0.58340213474729D-15
   1   2   2   1  0.17934887796019D+01 -0.93848090536032D-15
   2   2   2   1  0.89955172328215D-02  0.63253229055520D-15
   3   2   2   1  0.11147116399394D-01 -0.10523057392763D-15
   1   1   3   1 -0.29861582891850D+01  0.28899328657404D-15
   2   1   3   1 -0.83974552808296D+01 -0.76012708886243D-15
   3   1   3   1 -0.11383613589528D+02 -0.34475565680416D-15
   1   2   3   1  0.11147115251369D-01  0.16628797260271D-15
   2   2   3   1  0.11147115858285D-01 -0.39204931674541D-15
   3   2   3   1  0.22294236414863D-01 -0.38752677225197D-15
   1   1   1   2  0.89955132677266D-02  0.21183514463671D-15
   2   1   1   2  0.17934887796020D+01 -0.19953815116866D-16
   3   1   1   2  0.11147115251369D-01 -0.96525010603444D-15
   1   2   1   2 -0.19025869526142D+02 -0.48268680719055D-15
   2   2   1   2  0.69045465596868D-02  0.59229403654748D-15
   3   2   1   2 -0.83974552991975D+01  0.55441503185166D-15
   1   1   2   2  0.17934887717728D+01  0.85785076740664D-15
   2   1   2   2  0.89955172328238D-02 -0.10497332865276D-14
   3   1   2   2  0.11147115858284D-01  0.40626591773213D-15
   1   2   2   2  0.69045465596844D-02 -0.11157468454235D-14
   2   2   2   2 -0.13614572501019D+02 -0.18171228410857D-15
   3   2   2   2 -0.29861582980776D+01 -0.67874606119071D-15
   1   1   3   2  0.11147113422921D-01  0.92775636897279D-15
   2   1   3   2  0.11147116399395D-01 -0.22352662982428D-15
   3   1   3   2  0.22294236414863D-01  0.56627248779517D-16
   1   2   3   2 -0.83974552991974D+01 -0.80960911820043D-15
   2   2   3   2 -0.29861582980776D+01  0.17590664611909D-15
   3   2   3   2 -0.11383613600223D+02 -0.45352021010007D-15
 Band:  5
   1   1   1   1 -0.65867266107148D+01 -0.23939183968480D-15
   2   1   1   1 -0.50969927663884D+01  0.14698966943409D-15
   3   1   1   1 -0.42167164704439D+01 -0.30807473743114D-14
   1   2   1   1  0.22394881624633D+01  0.39258456567010D-15
   2   2   1   1  0.24239012860014D+01  0.29325974804394D-15
   3   2   1   1  0.49469623108099D+01 -0.61256478705137D-15
   1   1   2   1 -0.50969927663884D+01 -0.35168703959935D-15
   2   1   2   1 -0.65867265891091D+01 -0.13877787807814D-16
   3   1   2   1 -0.42167164735163D+01 -0.23008399730658D-14
   1   2   2   1  0.24239012834098D+01  0.18493933481280D-15
   2   2   2   1  0.22394881648554D+01 -0.24745046559599D-15
   3   2   2   1  0.49469623147170D+01 -0.53246202823268D-15
   1   1   3   1 -0.42167164704439D+01  0.27771707660154D-14
   2   1   3   1 -0.42167164735163D+01  0.18055764206745D-14
   3   1   3   1 -0.84334329474214D+01 -0.96321312160509D-16
   1   2   3   1  0.49469623196054D+01  0.26910271094325D-14
   2   2   3   1  0.49469623214469D+01  0.22486788152482D-14
   3   2   3   1  0.98939245823801D+01  0.12580801775656D-14
   1   1   1   2  0.22394881624633D+01 -0.73259036696155D-15
   2   1   1   2  0.24239012834098D+01 -0.49545483701265D-15
   3   1   1   2  0.49469623196054D+01 -0.26476590225331D-14
   1   2   1   2 -0.61617883070717D+01  0.31225022567583D-15
   2   2   1   2 -0.46651266065904D+01  0.71459245138882D-15
   3   2   1   2 -0.42236443511731D+01  0.64138248708587D-15
   1   1   2   2  0.24239012860014D+01 -0.28979030109198D-15
   2   1   2   2  0.22394881648554D+01 -0.38778907940183D-16
   3   1   2   2  0.49469623214469D+01 -0.19485716539042D-14
   1   2   2   2 -0.46651266065904D+01 -0.66673233111487D-16
   2   2   2   2 -0.61617883281030D+01  0.15439038936194D-15
   3   2   2   2 -0.42236443534151D+01 -0.50707096848604D-15
   1   1   3   2  0.49469623108099D+01  0.66634121480665D-15
   2   1   3   2  0.49469623147170D+01  0.13781243744796D-15
   3   1   3   2  0.98939245823801D+01 -0.12428318681152D-14
   1   2   3   2 -0.42236443511731D+01 -0.14619066912229D-14
   2   2   3   2 -0.42236443534151D+01  0.14711584722085D-15
   3   2   3   2 -0.84472887137670D+01  0.10653757371652D-15
 Band:  6
   1   1   1   1 -0.61617883357483D+01 -0.16046192152785D-15
   2   1   1   1 -0.19381439885303D+01  0.72464363851627D-16
   3   1   1   1 -0.14966617367034D+01 -0.72351987457942D-15
   1   2   1   1  0.22394881313805D+01 -0.27619264995670D-15
   2   2   1   1 -0.27074741582071D+01  0.77056072618786D-15
   3   2   1   1 -0.18441312357439D+00  0.18044285291416D-16
   1   1   2   1 -0.19381439885303D+01 -0.17914985762420D-15
   2   1   2   1 -0.61617883256129D+01 -0.15872719805188D-15
   3   1   2   1 -0.14966617393547D+01 -0.12196977011833D-15
   1   2   2   1 -0.27074741568738D+01  0.74652371910261D-15
   2   2   2   1  0.22394881280222D+01 -0.11388815630801D-14
   3   2   2   1 -0.18441312363918D+00  0.24619011061342D-15
   1   1   3   1 -0.14966617367034D+01  0.56934632565198D-15
   2   1   3   1 -0.14966617393547D+01  0.67325980625064D-16
   3   1   3   1 -0.29933234146755D+01 -0.47471776188711D-17
   1   2   3   1 -0.18441312424206D+00 -0.25199173021876D-15
   2   2   3   1 -0.18441312357956D+00  0.24746842417232D-15
   3   2   3   1 -0.36882624600218D+00 -0.25699162759406D-15
   1   1   1   2  0.22394881313805D+01  0.87107791075232D-16
   2   1   1   2 -0.27074741568738D+01 -0.65718546008981D-15
   3   1   1   2 -0.18441312424206D+00  0.14747464079115D-15
   1   2   1   2 -0.65867265971772D+01  0.75460471204991D-16
   2   2   1   2 -0.23700101310418D+01 -0.43630371338819D-15
   3   2   1   2 -0.14897338502892D+01  0.46988563444641D-15
   1   1   2   2 -0.27074741582071D+01 -0.85816426172469D-15
   2   1   2   2  0.22394881280222D+01  0.11458204569840D-14
   3   1   2   2 -0.18441312357956D+00 -0.33637300231613D-15
   1   2   2   2 -0.23700101310418D+01  0.40724709516558D-15
   2   2   2   2 -0.65867265999774D+01  0.23418766925687D-16
   3   2   2   2 -0.14897338494328D+01  0.70509735174467D-16
   1   1   3   2 -0.18441312357439D+00  0.97965347164533D-16
   2   1   3   2 -0.18441312363918D+00 -0.20676058736435D-16
   3   1   3   2 -0.36882624600218D+00  0.33666142506579D-15
   1   2   3   2 -0.14897338502892D+01 -0.83692820607077D-16
   2   2   3   2 -0.14897338494328D+01  0.18644617970460D-15
   3   2   3   2 -0.29794676521684D+01 -0.25300080816580D-16
 Band:  7
   1   1   1   1 -0.43678196291460D+02 -0.23939183968480D-15
   2   1   1   1 -0.18566548332815D+02  0.21847200537208D-15
   3   1   1   1 -0.43138368889970D+02  0.14439471761933D-14
   1   2   1   1 -0.44996038804163D+01 -0.10692200369391D-14
   2   2   1   1 -0.37536390524381D+01  0.15575698645866D-14
   3   2   1   1 -0.54682530852022D+01 -0.41617759662957D-15
   1   1   2   1 -0.18566548332815D+02 -0.80654326372822D-15
   2   1   2   1 -0.21908144054410D+02 -0.86736173798840D-15
   3   1   2   1 -0.21368316110162D+02 -0.19752661758611D-14
   1   2   2   1 -0.37536390545576D+01  0.17937647976325D-15
   2   2   2   1 -0.44996038926175D+01  0.26615268418816D-14
   3   2   2   1 -0.54682530913836D+01 -0.96868414471659D-15
   1   1   3   1 -0.43138368889970D+02 -0.80036476660586D-15
   2   1   3   1 -0.21368316110162D+02  0.18581723412327D-14
   3   1   3   1 -0.64506686384990D+02  0.27782676120448D-16
   1   2   3   1 -0.54682530905652D+01 -0.15718362122968D-14
   2   2   3   1 -0.54682530990349D+01  0.27962120611651D-14
   3   2   3   1 -0.10936506216912D+02 -0.31203152083440D-14
   1   1   1   2 -0.44996038804163D+01 -0.10280606455168D-14
   2   1   1   2 -0.37536390545576D+01 -0.15740941544486D-14
   3   1   1   2 -0.54682530905652D+01  0.13810166299393D-14
   1   2   1   2 -0.21908144641879D+02 -0.30531133177192D-15
   2   2   1   2 -0.18566549061228D+02 -0.48341050156509D-14
   3   2   1   2 -0.21368316871950D+02 -0.57728921067014D-14
   1   1   2   2 -0.37536390524381D+01 -0.19799750309869D-14
   2   1   2   2 -0.44996038926175D+01 -0.20743229452634D-14
   3   1   2   2 -0.54682530990349D+01 -0.86286274718899D-15
   1   2   2   2 -0.18566549061228D+02  0.55245249590897D-14
   2   2   2   2 -0.43678197436191D+02 -0.84654505627668D-15
   3   2   2   2 -0.43138369870147D+02 -0.44077313138563D-15
   1   1   3   2 -0.54682530852022D+01  0.15683643697103D-15
   2   1   3   2 -0.54682530913836D+01 -0.17609032447329D-14
   3   1   3   2 -0.10936506216912D+02  0.33419905534329D-14
   1   2   3   2 -0.21368316871950D+02  0.76767511215859D-14
   2   2   3   2 -0.43138369870147D+02 -0.88889241295059D-15
   3   2   3   2 -0.64506687235581D+02 -0.36991394136371D-15
 Band:  8
   1   1   1   1 -0.21908143132799D+02 -0.28449465006020D-15
   2   1   1   1 -0.53982634569184D+00  0.43453677661660D-15
   3   1   1   1 -0.33415955092253D+01  0.16512345356377D-15
   1   2   1   1 -0.44996052749470D+01  0.21467149989539D-14
   2   2   1   1  0.96864782042168D+00  0.34310284325358D-15
   3   2   1   1 -0.74596484254055D+00  0.24952362792724D-14
   1   1   2   1 -0.53982634569183D+00 -0.78842036571587D-15
   2   1   2   1 -0.43678196196294D+02 -0.88644369622415D-15
   3   1   2   1 -0.25111648324841D+02  0.28943081661288D-15
   1   2   2   1  0.96864784078062D+00  0.18415090067185D-15
   2   2   2   1 -0.44996052667586D+01 -0.17188563344152D-14
   3   2   2   1 -0.74596483807063D+00  0.24571719787469D-14
   1   1   3   1 -0.33415955092253D+01 -0.51683863831807D-15
   2   1   3   1 -0.25111648324841D+02 -0.13014251244108D-14
   3   1   3   1 -0.28453243725058D+02 -0.13040873632781D-14
   1   2   3   1 -0.74596484422057D+00  0.91636082571639D-15
   2   2   3   1 -0.74596483645257D+00 -0.96602968638791D-15
   3   2   3   1 -0.14919296703959D+01  0.14303258068286D-14
   1   1   1   2 -0.44996052749470D+01 -0.11492490002672D-14
   2   1   1   2  0.96864784078062D+00 -0.13384391986853D-15
   3   1   1   2 -0.74596484422057D+00  0.70864139040488D-15
   1   2   1   2 -0.43678196669678D+02 -0.13235940121703D-14
   2   2   1   2 -0.53982642218600D+00  0.60052011801718D-15
   3   2   1   2 -0.25111648543551D+02 -0.21421330130162D-15
   1   1   2   2  0.96864782042167D+00 -0.24942777555083D-15
   2   1   2   2 -0.44996052667586D+01  0.39179287529290D-15
   3   1   2   2 -0.74596483645257D+00  0.86303048000179D-15
   1   2   2   2 -0.53982642218599D+00 -0.90583144978910D-15
   2   2   2   2 -0.21908143181489D+02 -0.18388068845354D-15
   3   2   2   2 -0.33415955807903D+01 -0.63346048930929D-15
   1   1   3   2 -0.74596484254055D+00 -0.19197417661171D-14
   2   1   3   2 -0.74596483807063D+00 -0.56469708667344D-15
   3   1   3   2 -0.14919296703959D+01  0.95075097432277D-15
   1   2   3   2 -0.25111648543551D+02 -0.11915632355431D-14
   2   2   3   2 -0.33415955807903D+01  0.83230316774313D-15
   3   2   3   2 -0.28453243904835D+02 -0.83396949562434D-15
 K-point:  0.00000000E+00  0.00000000E+00  5.00000000E-01
 Band:  1
   1   1   1   1 -0.36118886826212D+01 -0.46837533851374D-16
   2   1   1   1 -0.18059443433204D+01  0.29070097200186D-15
   3   1   1   1 -0.18059443441750D+01 -0.28524978195046D-15
   1   2   1   1  0.15044375208837D+01 -0.22996774028943D-16
   2   2   1   1  0.75221876525003D+00 -0.61586086742627D-15
   3   2   1   1  0.75221876226309D+00 -0.26750849132789D-15
   1   1   2   1 -0.18059443433204D+01 -0.24386343815048D-15
   2   1   2   1 -0.36118886807528D+01 -0.10581813203459D-15
   3   1   2   1 -0.18059443425368D+01 -0.37888884730053D-15
   1   2   2   1  0.75221876414554D+00  0.16311485191378D-15
   2   2   2   1  0.15044375228665D+01 -0.15518720088131D-15
   3   2   2   1  0.75221876206345D+00 -0.19622600479432D-15
   1   1   3   1 -0.18059443441750D+01  0.48387561994980D-15
   2   1   3   1 -0.18059443425368D+01  0.56146849314709D-15
   3   1   3   1 -0.45692769990264D+01  0.22768245622196D-15
   1   2   3   1  0.75221876310807D+00 -0.57446626928659D-16
   2   2   3   1  0.75221876465848D+00 -0.25924440371730D-15
   3   2   3   1  0.12337347713594D+00 -0.85996219062824D-15
   1   1   1   2  0.15044375208837D+01  0.95855160019968D-16
   2   1   1   2  0.75221876414554D+00 -0.12495093544229D-15
   3   1   1   2  0.75221876310807D+00  0.11476454815273D-16
   1   2   1   2 -0.36118886783638D+01  0.13877787807814D-16
   2   2   1   2 -0.18059443424279D+01  0.52833952116819D-15
   3   2   1   2 -0.18059443445140D+01  0.48864150764729D-15
   1   1   2   2  0.75221876525003D+00  0.62279976133018D-15
   2   1   2   2  0.15044375228665D+01  0.25580116248797D-15
   3   1   2   2  0.75221876465848D+00  0.26705065935920D-15
   1   2   2   2 -0.18059443424279D+01 -0.39129636656603D-15
   2   2   2   2 -0.36118886826563D+01  0.17347234759768D-16
   3   2   2   2 -0.18059443418314D+01  0.20787079437020D-15
   1   1   3   2  0.75221876226309D+00  0.40455164593005D-15
   2   1   3   2  0.75221876206345D+00  0.27949273164120D-15
   3   1   3   2  0.12337347713594D+00  0.71446225908069D-15
   1   2   3   2 -0.18059443445140D+01 -0.38846122690963D-15
   2   2   3   2 -0.18059443418314D+01 -0.28326914606601D-16
   3   2   3   2 -0.45692769945292D+01  0.80794745893620D-15
 Band:  2
   1   1   1   1 -0.54584505671039D+01 -0.18735013540550D-15
   2   1   1   1 -0.27292252828185D+01  0.80810428755278D-18
   3   1   1   1 -0.27292252842213D+01 -0.25816552506078D-15
   1   2   1   1 -0.17299340488258D+00  0.46322972624036D-15
   2   2   1   1 -0.86496700595744D-01  0.35034824068348D-15
   3   2   1   1 -0.86496705977356D-01  0.34426347791966D-15
   1   1   2   1 -0.27292252828185D+01 -0.37237297283066D-16
   2   1   2   1 -0.54584505659245D+01 -0.11449174941447D-15
   3   1   2   1 -0.27292252888079D+01  0.36037828397424D-15
   1   2   2   1 -0.86496701187952D-01  0.14421115936920D-16
   2   2   2   1 -0.17299340416899D+00  0.20656834060367D-15
   3   2   2   1 -0.86496702723238D-01 -0.41109599081387D-15
   1   1   3   1 -0.27292252842213D+01  0.96836241794936D-16
   2   1   3   1 -0.27292252888079D+01 -0.45578807515296D-15
   3   1   3   1 -0.14018557198162D+02 -0.12576745200832D-16
   1   2   3   1 -0.86496702962436D-01 -0.45362610035245D-15
   2   2   3   1 -0.86496706469106D-01  0.39962962701989D-16
   3   2   3   1  0.14598797737562D+01 -0.25457330841505D-15
   1   1   1   2 -0.17299340488258D+00 -0.25159346217119D-15
   2   1   1   2 -0.86496701187952D-01 -0.15319899401506D-15
   3   1   1   2 -0.86496702962436D-01  0.32438920139217D-15
   1   2   1   2 -0.54584505669400D+01 -0.24980018054066D-15
   2   2   1   2 -0.27292252819255D+01 -0.17873480623043D-16
   3   2   1   2 -0.27292252874599D+01 -0.41864542589422D-16
   1   1   2   2 -0.86496700595744D-01 -0.41567461959605D-16
   2   1   2   2 -0.17299340416899D+00 -0.71259909477479D-16
   3   1   2   2 -0.86496706469106D-01 -0.43027574479677D-15
   1   2   2   2 -0.27292252819254D+01  0.35220715382812D-16
   2   2   2   2 -0.54584505666509D+01 -0.24112656316078D-15
   3   2   2   2 -0.27292252842380D+01  0.31665287235476D-16
   1   1   3   2 -0.86496705977357D-01  0.60983443386758D-15
   2   1   3   2 -0.86496702723238D-01  0.30701258225526D-15
   3   1   3   2  0.14598797737562D+01  0.35269360502499D-15
   1   2   3   2 -0.27292252874599D+01  0.17023407981171D-15
   2   2   3   2 -0.27292252842380D+01  0.10190842041474D-15
   3   2   3   2 -0.14018557195931D+02  0.30411870938218D-15
 Band:  3
   1   1   1   1 -0.32030658906234D+02 -0.36689401516909D-15
   2   1   1   1 -0.29227494283173D+02  0.12625992132408D-14
   3   1   1   1 -0.20735326390509D+02  0.18747488541338D-15
   1   2   1   1 -0.11591821905867D+01 -0.16729947106475D-14
   2   2   1   1 -0.10389773025879D+01 -0.57976412874917D-14
   3   2   1   1  0.48659238446765D+00 -0.32303114135865D-15
   1   1   2   1 -0.29227494283173D+02 -0.24664973055687D-14
   2   1   2   1 -0.38613530939163D+02 -0.19255430583343D-15
   3   1   2   1 -0.22850909254766D+02 -0.88682906577288D-15
   1   2   2   1 -0.10389772865831D+01  0.19087965346081D-14
   2   2   2   1 -0.13880534451239D+01 -0.20507301272228D-14
   3   2   2   1  0.10654558573989D+00 -0.30883469554999D-14
   1   1   3   1 -0.20735326390509D+02  0.66947851171916D-15
   2   1   3   1 -0.22850909254766D+02  0.13638780216665D-14
   3   1   3   1 -0.23131784482458D+02  0.62796989830360D-15
   1   2   3   1  0.48659239030855D+00  0.65789061834251D-15
   2   2   3   1  0.10654558538593D+00  0.30170391107071D-14
   3   2   3   1  0.15877622486825D+01  0.10719695562203D-14
   1   1   1   2 -0.11591821905867D+01 -0.26989558244656D-15
   2   1   1   2 -0.10389772865831D+01  0.20756610608363D-15
   3   1   1   2  0.48659239030855D+00  0.17824609707831D-15
   1   2   1   2 -0.32030658876499D+02 -0.54123372450476D-15
   2   2   1   2 -0.29227494289976D+02  0.97469124946860D-15
[...]
   1   2   1   1  0.42446378895605D-07 -0.23750335764925D-13
   2   2   1   1  0.13745303269040D+01  0.11128207157038D-12
   3   2   1   1  0.13745302395598D+01 -0.13653775313623D-12
   1   1   2   1 -0.73478489628502D+01 -0.12910081530753D-12
   2   1   2   1 -0.32255737315223D+02 -0.13964523981613D-15
   3   1   2   1  0.87226997302525D+01  0.37681695187878D-11
   1   2   2   1  0.11723634240084D+01 -0.28244633782203D-12
   2   2   2   1  0.37771995037488D+01 -0.14983344750374D-12
   3   2   2   1  0.11723626655785D+01 -0.37623222048040D-11
   1   1   3   1 -0.11732950817715D+02 -0.13482443815134D-12
   2   1   3   1  0.87226997302525D+01 -0.37680584964853D-11
   3   1   3   1 -0.36640843010068D+02 -0.17433970933567D-14
   1   2   3   1  0.11723637263731D+01  0.25865940578299D-12
   2   2   3   1  0.13745312138084D+01 -0.33808699485722D-11
   3   2   3   1 -0.12303024927456D+01 -0.11387236678659D-13
   1   1   1   2  0.42446379196989D-07  0.23912532409928D-13
   2   1   1   2  0.11723634240084D+01  0.28219827236497D-12
   3   1   1   2  0.11723637263731D+01 -0.25800021086212D-12
   1   2   1   2 -0.18825968299268D+02 -0.13366693826716D-14
   2   2   1   2 -0.10621857284698D+02  0.25944071674348D-12
   3   2   1   2 -0.82041113406774D+01  0.26335148851080D-12
   1   1   2   2  0.13745303269040D+01 -0.11312434790186D-12
   2   1   2   2  0.37771995037488D+01  0.15087775103628D-12
   3   1   2   2  0.13745312138084D+01  0.33783476606381D-11
   1   2   2   2 -0.10621857284698D+02 -0.25954826959899D-12
   2   2   2   2 -0.35246512782805D+02 -0.62450045135165D-15
   3   2   2   2  0.90059310704491D+01 -0.33754463971087D-11
   1   1   3   2  0.13745302395598D+01  0.13591151796141D-12
   2   1   3   2  0.11723626655785D+01  0.37662426798597D-11
   3   1   3   2 -0.12303024927456D+01  0.58083659799172D-14
   1   2   3   2 -0.82041113406774D+01 -0.26587117435966D-12
   2   2   3   2  0.90059310704490D+01  0.33760847753479D-11
   3   2   3   2 -0.32828770715741D+02 -0.16254358969903D-14
 K-point:  5.00000000E-01  5.00000000E-01  5.00000000E-01
 Band:  1
   1   1   1   1 -0.44296711584240D+01  0.64510029262888D-16
   2   1   1   1 -0.26456125874782D+01  0.63493071874374D-16
   3   1   1   1 -0.20710090248774D+01 -0.22888527104776D-15
   1   2   1   1 -0.35018166509461D+00  0.55998309804947D-15
   2   2   1   1  0.58092430044920D+00  0.50701226579485D-15
   3   2   1   1 -0.66960241478466D+00  0.43944563280494D-17
   1   1   2   1 -0.26456125874782D+01  0.99896195519192D-16
   2   1   2   1 -0.44296711542771D+01 -0.10364972768961D-15
   3   1   2   1 -0.20710090483901D+01  0.11320968661056D-14
   1   2   2   1  0.58092429713843D+00  0.53115079935869D-15
   2   2   2   1 -0.35018166590430D+00  0.74211240847958D-15
   3   2   2   1 -0.66960239049421D+00 -0.17636764636689D-14
   1   1   3   1 -0.20710090248774D+01  0.27279545903342D-15
   2   1   3   1 -0.20710090483901D+01 -0.12101865275788D-14
   3   1   3   1 -0.81868623036100D+01 -0.24112656316078D-15
   1   2   3   1 -0.66960239740779D+00  0.58563356997245D-15
   2   2   3   1 -0.66960241740402D+00 -0.34075939946777D-14
   3   2   3   1  0.44503257578890D+01 -0.33743286228442D-14
   1   1   1   2 -0.35018166509461D+00 -0.30676768066548D-15
   2   1   1   2  0.58092429713843D+00 -0.28709689033220D-15
   3   1   1   2 -0.66960239740779D+00 -0.46962393751650D-15
   1   2   1   2 -0.44296711382763D+01  0.15037884132374D-15
   2   2   1   2 -0.26456125756339D+01 -0.52262336004787D-15
   3   2   1   2 -0.20710090234840D+01 -0.22197225803975D-14
   1   1   2   2  0.58092430044920D+00 -0.42705235557404D-15
   2   1   2   2 -0.35018166590430D+00 -0.87167456809160D-15
   3   1   2   2 -0.66960241740402D+00  0.33311577415175D-14
   1   2   2   2 -0.26456125756338D+01  0.16080723650317D-14
   2   2   2   2 -0.44296711484884D+01  0.42072465303300D-15
   3   2   2   2 -0.20710090079700D+01 -0.51963516074106D-14
   1   1   3   2 -0.66960241478466D+00  0.11454252199361D-15
   2   1   3   2 -0.66960239049421D+00  0.17831921027736D-14
   3   1   3   2  0.44503257578890D+01  0.34229008801716D-14
   1   2   3   2 -0.20710090234840D+01  0.21459697276142D-14
   2   2   3   2 -0.20710090079700D+01  0.56175641514212D-14
   3   2   3   2 -0.81868622824658D+01  0.29490299091606D-16
 Band:  2
   1   1   1   1 -0.89489183215157D+01  0.48008472197658D-15
   2   1   1   1 -0.60854916248978D+01 -0.27198079004447D-14
   3   1   1   1 -0.65959790323943D+01  0.24064784773595D-14
   1   2   1   1 -0.48262867265489D+01  0.50944036898636D-14
   2   2   1   1 -0.42315131534722D+01  0.12493059327933D-14
   3   2   1   1 -0.34265589478072D+01 -0.64359694081300D-15
   1   1   2   1 -0.60854916248978D+01  0.34449223134030D-14
   2   1   2   1 -0.89489183527953D+01  0.23288662664989D-15
   3   1   2   1 -0.65959790438560D+01  0.51275391965222D-14
   1   2   2   1 -0.42315130943861D+01  0.27686315179641D-14
   2   2   2   1 -0.48262867247019D+01 -0.16075606485459D-14
   3   2   2   1 -0.34265589228668D+01 -0.30505631185181D-14
   1   1   3   1 -0.65959790323943D+01 -0.15116864244072D-14
   2   1   3   1 -0.65959790438560D+01 -0.45551888696671D-14
   3   1   3   1 -0.97960738696498D+01  0.37990444123892D-15
   1   2   3   1 -0.34265589143374D+01  0.56205483293848D-14
   2   2   3   1 -0.34265589367141D+01  0.68845930224291D-15
   3   2   3   1 -0.26782127032596D+01  0.48913205648999D-15
   1   1   1   2 -0.48262867265489D+01 -0.38150451263308D-14
   2   1   1   2 -0.42315130943861D+01 -0.29049157310455D-14
   3   1   1   2 -0.34265589143374D+01 -0.56286256355698D-14
   1   2   1   2 -0.89489182741468D+01  0.24806545706468D-15
   2   2   1   2 -0.60854915554146D+01  0.39735433308132D-14
   3   2   1   2 -0.65959789780574D+01  0.45900858040956D-14
   1   1   2   2 -0.42315131534722D+01 -0.59065311300834D-15
   2   1   2   2 -0.48262867247019D+01  0.15844671422720D-14
   3   1   2   2 -0.34265589367141D+01 -0.82246669076212D-15
   1   2   2   2 -0.60854915554146D+01 -0.27319150028828D-14
   2   2   2   2 -0.89489182372135D+01  0.64336556915290D-15
   3   2   2   2 -0.65959789615597D+01  0.12155109809613D-14
   1   1   3   2 -0.34265589478072D+01  0.12296082150414D-14
   2   1   3   2 -0.34265589228668D+01  0.36605894708671D-14
   3   1   3   2 -0.26782127032596D+01 -0.41974311745092D-15
   1   2   3   2 -0.65959789780574D+01 -0.47538003321409D-14
   2   2   3   2 -0.65959789615597D+01 -0.56650756051144D-15
   3   2   3   2 -0.97960737909047D+01  0.26541269182445D-15
 Band:  3
   1   1   1   1 -0.19392029009069D+02  0.34043948216045D-15
   2   1   1   1  0.34629332699534D+00 -0.47983149609232D-12
   3   1   1   1 -0.84422267231574D+01  0.33432524122523D-15
   1   2   1   1  0.22589667389280D+01 -0.10995681551727D-14
   2   2   1   1  0.11853552243200D+01 -0.48060224158861D-12
   3   2   1   1  0.23609011691811D+01  0.46873185004197D-15
   1   1   2   1  0.34629332699534D+00  0.47993709738392D-12
   2   1   2   1 -0.22493370958254D+02 -0.23744027577433D-15
   3   1   2   1 -0.55226277935559D+01 -0.15551622331841D-14
   1   2   2   1  0.11853552320654D+01  0.48616821494631D-12
   2   2   2   1  0.15977178408754D+01  0.36095634860532D-15
   3   2   2   1  0.25359743515917D+01  0.25606880070971D-14
   1   1   3   1 -0.84422267231574D+01 -0.61350730064025D-15
   2   1   3   1 -0.55226277935559D+01  0.23712683134683D-14
   3   1   3   1 -0.12984583408067D+02 -0.21141942363467D-15
   1   2   3   1  0.23609011775040D+01  0.19095476157743D-14
   2   2   3   1  0.25359743468199D+01  0.13012308813411D-14
   3   2   3   1  0.26812131357903D+01 -0.52058360815540D-15
   1   1   1   2  0.22589667389280D+01  0.12105904576352D-14
   2   1   1   2  0.11853552320654D+01 -0.48548625177981D-12
   3   1   1   2  0.23609011775040D+01 -0.10222094527579D-14
   1   2   1   2 -0.19392028999343D+02 -0.32656169435263D-15
   2   2   1   2  0.34629332206878D+00 -0.48420297975813D-12
   3   2   1   2 -0.84422267320286D+01  0.33816382369372D-14
   1   1   2   2  0.11853552243200D+01  0.48142948784621D-12
   2   1   2   2  0.15977178408754D+01 -0.10175491842625D-14
   3   1   2   2  0.25359743468199D+01 -0.82969780400001D-15
   1   2   2   2  0.34629332206878D+00  0.48312745120302D-12
   2   2   2   2 -0.22493370863305D+02 -0.13292318634672D-15
   3   2   2   2 -0.55226277377536D+01  0.25856305273024D-14
   1   1   3   2  0.23609011691811D+01 -0.83768584933879D-15
   2   1   3   2  0.25359743515917D+01 -0.16957521714697D-14
   3   1   3   2  0.26812131357903D+01  0.43926844521899D-15
   1   2   3   2 -0.84422267320286D+01 -0.38332897569403D-14
   2   2   3   2 -0.55226277377536D+01 -0.32170021099222D-14
   3   2   3   2 -0.12984583378369D+02 -0.32086963294709D-15
 Band:  4
   1   1   1   1 -0.16491819362496D+02 -0.27191790485936D-15
   2   1   1   1 -0.86730351172725D+01 -0.82191502767022D-13
   3   1   1   1 -0.67716392086559D-01 -0.21312965383838D-14
   1   2   1   1 -0.19023277874867D+00 -0.21331925592800D-15
   2   2   1   1  0.10761285945400D+01 -0.82019657594626D-13
   3   2   1   1  0.13411533808513D+01 -0.43976220730376D-15
   1   1   2   1 -0.86730351172725D+01  0.82077444698476D-13
   2   1   2   1 -0.13390477110577D+02 -0.10950441942104D-15
   3   1   2   1 -0.29873153619757D+01 -0.25378249039218D-15
   1   2   2   1  0.10761285872756D+01  0.81157952665178D-13
   2   2   2   1  0.47101644983573D+00 -0.72261784117617D-15
   3   2   2   1  0.11660802089275D+01 -0.45541861338781D-15
   1   1   3   1 -0.67716392086563D-01  0.21432227622812D-14
   2   1   3   1 -0.29873153619757D+01  0.33661553637007D-15
   3   1   3   1 -0.23241571259711D+02  0.31225022567583D-15
   1   2   3   1  0.13411533829694D+01  0.27082432895770D-16
   2   2   3   1  0.11660802067129D+01 -0.86548398262983D-15
   3   2   3   1  0.34978520942565D+01 -0.10445311440497D-14
   1   1   1   2 -0.19023277874867D+00  0.77667070475147D-15
   2   1   1   2  0.10761285872756D+01 -0.81220836391182D-13
   3   1   1   2  0.13411533829694D+01  0.12378562417431D-14
   1   2   1   2 -0.16491819330760D+02 -0.58828809879063D-15
   2   2   1   2 -0.86730351083603D+01 -0.81866046785568D-13
   3   2   1   2 -0.67716401167082D-01 -0.12021964153354D-14
   1   1   2   2  0.10761285945400D+01  0.82375492747636D-13
   2   1   2   2  0.47101644983573D+00  0.17116270629175D-14
   3   1   2   2  0.11660802067129D+01  0.17621191792753D-14
   1   2   2   2 -0.86730351083603D+01  0.81750687674416D-13
   2   2   2   2 -0.13390477109836D+02 -0.18192912454307D-15
   3   2   2   2 -0.29873153501148D+01 -0.61021069969214D-15
   1   1   3   2  0.13411533808513D+01  0.32006628746136D-15
   2   1   3   2  0.11660802089275D+01  0.40478637193274D-15
   3   1   3   2  0.34978520942565D+01  0.12154014064334D-14
   1   2   3   2 -0.67716401167086D-01  0.91629230245094D-15
   2   2   3   2 -0.29873153501148D+01  0.24721981234399D-15
   3   2   3   2 -0.23241571242691D+02 -0.93675067702748D-15
 Band:  5
   1   1   1   1 -0.15980020194135D+02 -0.10755285551056D-15
   2   1   1   1 -0.79292891952486D+01 -0.21372456936463D-14
   3   1   1   1 -0.50751204140557D+00 -0.34362460887617D-14
   1   2   1   1 -0.61454404433713D+00  0.27364026886890D-14
   2   2   1   1  0.11453492454731D+01 -0.51662900859224D-14
   3   2   1   1 -0.13837024054945D+01 -0.11581753083766D-13
   1   1   2   1 -0.79292891952486D+01  0.13817736198584D-14
   2   1   2   1 -0.12928470689938D+02 -0.55077470362264D-15
   3   1   2   1 -0.11655056969404D+01 -0.85857035698992D-14
   1   2   2   1  0.11453492472386D+01  0.20206543722881D-14
   2   2   2   1 -0.70315052970409D+00  0.74085928628049D-15
   3   2   2   1 -0.51160700665464D+00 -0.71752874153248D-14
   1   1   3   1 -0.50751204140558D+00  0.33954800870763D-14
   2   1   3   1 -0.11655056969404D+01  0.81780435530446D-14
   3   1   3   1 -0.24592071369401D+02  0.96710833785707D-16
   1   2   3   1 -0.13837024299310D+01  0.37783257377285D-14
   2   2   3   1 -0.51160705843310D+00 -0.81337614550629D-15
   3   2   3   1 -0.11851505001690D+01 -0.15300853949367D-13
   1   1   1   2 -0.61454404433713D+00 -0.24900719551003D-14
   2   1   1   2  0.11453492472386D+01 -0.10080095431866D-14
   3   1   1   2 -0.13837024299310D+01 -0.32433803858242D-14
   1   2   1   2 -0.15980020208494D+02 -0.54990734188465D-15
   2   2   1   2 -0.79292891910479D+01 -0.37874893370212D-14
   3   2   1   2 -0.50751201887305D+00 -0.18896011689094D-13
   1   1   2   2  0.11453492454731D+01  0.54217281177600D-14
   2   1   2   2 -0.70315052970409D+00 -0.70312905067800D-15
   3   1   2   2 -0.51160705843310D+00  0.43650747035033D-15
   1   2   2   2 -0.79292891910479D+01  0.27440531662211D-14
   2   2   2   2 -0.12928470667807D+02 -0.12420620087994D-14
   3   2   2   2 -0.11655056911543D+01 -0.76630900816883D-14
   1   1   3   2 -0.13837024054945D+01  0.12141635085637D-13
   2   1   3   2 -0.51160700665464D+00  0.64016007450391D-14
   3   1   3   2 -0.11851505001690D+01  0.14323337270654D-13
   1   2   3   2 -0.50751201887305D+00  0.18933091403393D-13
   2   2   3   2 -0.11655056911542D+01  0.92399537213512D-14
   3   2   3   2 -0.24592071311791D+02 -0.87820375971326D-17
 Band:  6
   1   1   1   1 -0.27990723087096D+02 -0.10408340855861D-16
   2   1   1   1  0.14490927192019D+02 -0.76640662809130D-14
   3   1   1   1 -0.54225116631203D+01 -0.13881338186714D-14
   1   2   1   1 -0.10430301823734D+02 -0.71309081545012D-14
   2   2   1   1  0.11081998070278D+02  0.14898708728792D-13
   3   2   1   1 -0.54554303905674D+00  0.36555572459966D-14
   1   1   2   1  0.14490927192019D+02  0.74454911229399D-14
   2   1   2   1 -0.31042271997730D+02  0.53776427755281D-15
   3   1   2   1 -0.47645178237154D+01  0.19313502010861D-14
   1   2   2   1  0.11081998006637D+02  0.12665859320182D-13
   2   2   2   1 -0.10341694903609D+02 -0.22288558775381D-13
   3   2   2   1 -0.14176383336572D+01 -0.61778596764073D-14
   1   1   3   1 -0.54225116631203D+01  0.77778220567066D-15
   2   1   3   1 -0.47645178237154D+01 -0.21524190240559D-14
   3   1   3   1 -0.10439883405841D+02 -0.93409607577078D-15
   1   2   3   1 -0.54554303846276D+00 -0.13366685140516D-14
   2   2   3   1 -0.14176383414657D+01 -0.49246663007048D-14
   3   2   3   1 -0.25921435642651D+01 -0.79428848707822D-15
   1   1   1   2 -0.10430301823734D+02  0.49347482339145D-14
   2   1   1   2  0.11081998006637D+02 -0.11409919523575D-13
   3   1   1   2 -0.54554303846276D+00  0.17288786499483D-14
   1   2   1   2 -0.27990723012577D+02 -0.21857515797308D-15
   2   2   1   2  0.14490927256025D+02  0.96810027970150D-14
   3   2   1   2 -0.54225116007307D+01  0.41884576171027D-14
   1   1   2   2  0.11081998070278D+02 -0.14749522509858D-13
   2   1   2   2 -0.10341694903609D+02  0.19755862500455D-13
   3   1   2   2 -0.14176383414657D+01  0.42741992073221D-14
   1   2   2   2  0.14490927256025D+02 -0.11556238874546D-13
   2   2   2   2 -0.31042272182352D+02 -0.35214886562329D-15
   3   2   2   2 -0.47645178780000D+01 -0.81092904554306D-14
   1   1   3   2 -0.54554303905674D+00 -0.39959967281570D-14
   2   1   3   2 -0.14176383336572D+01  0.65277317174684D-14
   3   1   3   2 -0.25921435642651D+01 -0.39662967236596D-15
   1   2   3   2 -0.54225116007307D+01 -0.50537593709634D-14
   2   2   3   2 -0.47645178780000D+01  0.70763168355950D-14
   3   2   3   2 -0.10439883383053D+02 -0.89686558960717D-15
 Band:  7
   1   1   1   1  0.83565136154159D+01  0.40202216555763D-15
   2   1   1   1 -0.14331495426303D+02 -0.12437947755915D-13
   3   1   1   1  0.12973835006740D+01 -0.69456231536853D-14
   1   2   1   1  0.14476856186694D+02 -0.16653395743081D-13
   2   2   1   1 -0.89098220433137D+01  0.86389519303858D-14
   3   2   1   1  0.12999744991209D+01 -0.13546437047625D-14
   1   1   2   1 -0.14331495426303D+02  0.12767111535481D-13
   2   1   2   1  0.83565135021897D+01 -0.34043948216045D-16
   3   1   2   1  0.12973836514131D+01 -0.50361805957120D-14
   1   2   2   1 -0.89098220041856D+01  0.25464843886362D-13
   2   2   2   1  0.14476856078938D+02 -0.29716849793973D-13
   3   2   2   1  0.12999745154480D+01  0.46676613013586D-14
   1   1   3   1  0.12973835006740D+01  0.69386842597814D-14
   2   1   3   1  0.12973836514130D+01  0.53072311388333D-14
   3   1   3   1 -0.41429595316887D+01 -0.78409501114152D-15
   1   2   3   1  0.12999744789070D+01  0.22611475941866D-14
   2   2   3   1  0.12999746280504D+01 -0.13774540999437D-14
   3   2   3   1  0.27623847047550D+01  0.86495749350307D-14
   1   1   1   2  0.14476856186694D+02  0.16571213218407D-13
   2   1   1   2 -0.89098220041856D+01 -0.25234450924709D-13
   3   1   1   2  0.12999744789070D+01 -0.17849660000310D-14
   1   2   1   2  0.83565135638766D+01  0.43411454986320D-15
   2   2   1   2 -0.14331495254396D+02 -0.19055730049231D-14
   3   2   1   2  0.12973836486447D+01  0.14242170816136D-14
   1   1   2   2 -0.89098220433137D+01 -0.84520354758493D-14
   2   1   2   2  0.14476856078938D+02  0.29803152286903D-13
   3   1   2   2  0.12999746280504D+01  0.15387833832095D-14
   1   2   2   2 -0.14331495254396D+02  0.27469138907719D-14
   2   2   2   2  0.83565135435780D+01 -0.13530843112619D-15
   3   2   2   2  0.12973836925338D+01  0.10248253700742D-13
   1   1   3   2  0.12999744991209D+01  0.14136243029457D-14
   2   1   3   2  0.12999745154480D+01 -0.45948029153676D-14
   3   1   3   2  0.27623847047550D+01 -0.85385526325682D-14
   1   2   3   2  0.12973836486447D+01  0.34867031083465D-15
   2   2   3   2  0.12973836925338D+01 -0.78803561560333D-14
   3   2   3   2 -0.41429594701055D+01  0.38510861166685D-15
 Band:  8
   1   1   1   1 -0.23045149450038D+02  0.11379786002408D-14
   2   1   1   1 -0.19770370065071D+02  0.58828620513317D-14
   3   1   1   1 -0.22177811210885D+02 -0.43754089148243D-14
   1   2   1   1 -0.10796619065543D+02 -0.10176758223614D-13
   2   2   1   1 -0.86161076109229D+01 -0.34706051431030D-14
   3   2   1   1 -0.76319828863907D+01 -0.30330322961474D-14
   1   1   2   1 -0.19770370065071D+02 -0.17316687733192D-14
   2   1   2   1 -0.23045149645648D+02  0.22603446891978D-14
   3   1   2   1 -0.22177811309383D+02 -0.45167676189859D-14
   1   2   2   1 -0.86161075760307D+01 -0.80731378831467D-14
   2   2   2   1 -0.10796619068372D+02  0.12136723419894D-13
   3   2   2   1 -0.76319828452838D+01  0.37732958225964D-14
   1   1   3   1 -0.22177811210885D+02  0.84121104434223D-14
   2   1   3   1 -0.22177811309384D+02  0.11287393345723D-13
   3   1   3   1 -0.29670581948867D+02  0.21302404284995D-14
   1   2   3   1 -0.76319828522793D+01 -0.78028100164059D-14
   2   2   3   1 -0.76319828882906D+01  0.33637793232362D-14
   3   2   3   1 -0.63473874524940D+01  0.38594039716701D-14
   1   1   1   2 -0.10796619065543D+02  0.10115609221086D-13
   2   1   1   2 -0.86161075760307D+01  0.66432920580728D-14
   3   1   1   2 -0.76319828522793D+01  0.86779780100362D-14
   1   2   1   2 -0.23045150375639D+02  0.12229800505636D-14
   2   2   1   2 -0.19770370686856D+02 -0.79252492278538D-14
   3   2   1   2 -0.22177811988199D+02 -0.37827845478175D-14
   1   1   2   2 -0.86161076109229D+01  0.45066687391301D-14
   2   1   2   2 -0.10796619068372D+02 -0.11700874146555D-13
   3   1   2   2 -0.76319828882906D+01 -0.16741586576348D-14
   1   2   2   2 -0.19770370686856D+02  0.10527334441819D-13
   2   2   2   2 -0.23045150168761D+02  0.69562411386670D-15
   3   2   2   2 -0.22177811893105D+02  0.53145991211808D-14
   1   1   3   2 -0.76319828863907D+01  0.20182190627009D-14
   2   1   3   2 -0.76319828452838D+01 -0.22267898437631D-14
   3   1   3   2 -0.63473874524940D+01 -0.18748803151526D-14
   1   2   3   2 -0.22177811988199D+02  0.77605054782323D-14
   2   2   3   2 -0.22177811893105D+02 -0.63452846917375D-17
   3   2   3   2 -0.29670582872687D+02  0.31016855750465D-14

 List of bloks and their characteristics 
  
 2nd eigenvalue derivatives   - # elements :      36
 qpt  0.00000000E+00  0.00000000E+00  0.00000000E+00   1.0
  
 2nd eigenvalue derivatives   - # elements :      36
 qpt  5.00000000E-01  5.00000000E-01  0.00000000E+00   1.0
