
 **** DERIVATIVE DATABASE ****    
+DDB, Version number    100401

 He BCC primitive cell  DDB file                                                                                                                                                                                                                                         

    usepaw         0
     natom         1
      nkpt         8
    nsppol         1
      nsym         1
    ntypat         1
    occopt         1
     nband         4
     acell  0.43000000000000D+01  0.43000000000000D+01  0.43000000000000D+01
       amu  0.40026020000000D+01
   dilatmx  0.10000000000000D+01
      ecut  0.80000000000000D+01
    ecutsm  0.00000000000000D+00
     intxc         0
      iscf         7
       ixc         1
       kpt  0.25000000000000D+00  0.25000000000000D+00  0.25000000000000D+00
           -0.25000000000000D+00  0.25000000000000D+00  0.25000000000000D+00
            0.25000000000000D+00 -0.25000000000000D+00  0.25000000000000D+00
           -0.25000000000000D+00 -0.25000000000000D+00  0.25000000000000D+00
            0.25000000000000D+00  0.25000000000000D+00 -0.25000000000000D+00
           -0.25000000000000D+00  0.25000000000000D+00 -0.25000000000000D+00
            0.25000000000000D+00 -0.25000000000000D+00 -0.25000000000000D+00
           -0.25000000000000D+00 -0.25000000000000D+00 -0.25000000000000D+00
    kptnrm  0.10000000000000D+01
     ngfft        10   10   10
    nspden         1
   nspinor         1
       occ  0.20000000000000D+01  0.00000000000000D+00  0.00000000000000D+00
            0.00000000000000D+00
     rprim -0.50000000000000D+00  0.50000000000000D+00  0.50000000000000D+00
            0.50000000000000D+00 -0.50000000000000D+00  0.50000000000000D+00
            0.50000000000000D+00  0.50000000000000D+00 -0.50000000000000D+00
     sciss  0.00000000000000D+00
    spinat  0.00000000000000D+00  0.00000000000000D+00  0.00000000000000D+00
    symafm         1
    symrel         1    0    0    0    1    0    0    0    1
     tnons  0.00000000000000D+00  0.00000000000000D+00  0.00000000000000D+00
    tolwfr  0.10000000000000D+01
   tphysel  0.00000000000000D+00
    tsmear  0.40000000000000D-01
     typat         1
       wtk  0.12500000000000D+00  0.12500000000000D+00  0.12500000000000D+00
            0.12500000000000D+00  0.12500000000000D+00  0.12500000000000D+00
            0.12500000000000D+00  0.12500000000000D+00
      xred  0.00000000000000D+00  0.00000000000000D+00  0.00000000000000D+00
     znucl  0.20000000000000D+01
      zion  0.20000000000000D+01
 
  Description of the potentials (KB energies)
  vrsio8 (for pseudopotentials)=100401
  usepaw =  0
  dimekb =  1       lmnmax=  1
  Atom type=    1   pspso=  0   nekb=   0
  iln lpsang iproj  ekb(:)
 
 **** Database of total energy derivatives ****
 Number of data blocks=    8
  
 2nd derivatives (non-stat.)  - # elements :       9
 qpt  0.00000000E+00  0.00000000E+00  0.00000000E+00   1.0
   1   1   1   1 -0.13413806598805D-06  0.00000000000000D+00
   2   1   1   1  0.44716746749884D-07  0.00000000000000D+00
   3   1   1   1  0.44706994994925D-07  0.00000000000000D+00
   1   1   2   1  0.44716726321781D-07  0.00000000000000D+00
   2   1   2   1 -0.13413798960471D-06  0.00000000000000D+00
   3   1   2   1  0.44714297153803D-07  0.00000000000000D+00
   1   1   3   1  0.44706988777676D-07  0.00000000000000D+00
   2   1   3   1  0.44714314029193D-07  0.00000000000000D+00
   3   1   3   1 -0.13413782617988D-06  0.00000000000000D+00
  
 2nd derivatives (non-stat.)  - # elements :       9
 qpt  5.00000000E-01  0.00000000E+00  0.00000000E+00   1.0
   1   1   1   1  0.28820388654706D+01  0.00000000000000D+00
   2   1   1   1 -0.63897776993678D+00 -0.93787408395052D-16
   3   1   1   1 -0.63897776997010D+00  0.11419996198692D-15
   1   1   2   1 -0.63897722125783D+00  0.27363855625850D-15
   2   1   2   1  0.12792063475011D+01  0.00000000000000D+00
   3   1   2   1 -0.12519786622307D-02 -0.33377283575886D-15
   1   1   3   1 -0.63897722129125D+00 -0.19143665125343D-15
   2   1   3   1 -0.12519786622263D-02  0.66589059960487D-15
   3   1   3   1  0.12792063475507D+01  0.00000000000000D+00
  
 2nd derivatives (non-stat.)  - # elements :       9
 qpt  0.00000000E+00  5.00000000E-01  0.00000000E+00   1.0
   1   1   1   1  0.12792063474408D+01  0.00000000000000D+00
   2   1   1   1 -0.63897722123369D+00 -0.37404625230497D-15
   3   1   1   1 -0.12519786574554D-02  0.50369355214519D-15
   1   1   2   1 -0.63897776991273D+00  0.55169063761795D-15
   2   1   2   1  0.28820388654740D+01  0.00000000000000D+00
   3   1   2   1 -0.63897776996474D+00 -0.66202876514154D-17
   1   1   3   1 -0.12519786574581D-02 -0.48548776110380D-16
   2   1   3   1 -0.63897722128572D+00  0.26260474350615D-15
   3   1   3   1  0.12792063475401D+01  0.00000000000000D+00
  
 2nd derivatives (non-stat.)  - # elements :       9
 qpt  5.00000000E-01  5.00000000E-01  0.00000000E+00   1.0
   1   1   1   1  0.28820388860224D+01  0.00000000000000D+00
   2   1   1   1 -0.16040833829347D+01 -0.28467236901086D-15
   3   1   1   1 -0.63897775156015D+00  0.19916032018008D-15
   1   1   2   1 -0.16040833829347D+01  0.35694384253881D-15
   2   1   2   1  0.28820388860250D+01  0.00000000000000D+00
   3   1   2   1 -0.63897775155475D+00 -0.27970715327230D-15
   1   1   3   1 -0.63897720268232D+00 -0.12357870282642D-15
   2   1   3   1 -0.63897720267661D+00  0.54065682486559D-15
   3   1   3   1  0.12792063684681D+01  0.00000000000000D+00
  
 2nd derivatives (non-stat.)  - # elements :       9
 qpt  0.00000000E+00  0.00000000E+00  5.00000000E-01   1.0
   1   1   1   1  0.12792063474296D+01  0.00000000000000D+00
   2   1   1   1 -0.12519786391407D-02 -0.10868305561074D-15
   3   1   1   1 -0.63897722124237D+00 -0.24439895246475D-15
   1   1   2   1 -0.12519786391469D-02  0.60023941372833D-15
   2   1   2   1  0.12792063474791D+01  0.00000000000000D+00
   3   1   2   1 -0.63897722126035D+00 -0.53127808402609D-15
   1   1   3   1 -0.63897776992147D+00  0.39445880589684D-15
   2   1   3   1 -0.63897776993956D+00  0.81098523729839D-15
   3   1   3   1  0.28820388654759D+01  0.00000000000000D+00
  
 2nd derivatives (non-stat.)  - # elements :       9
 qpt  5.00000000E-01  0.00000000E+00  5.00000000E-01   1.0
   1   1   1   1  0.28820388860242D+01  0.00000000000000D+00
   2   1   1   1 -0.63897775152631D+00 -0.35749553317643D-15
   3   1   1   1 -0.16040833829701D+01 -0.17488593212489D-15
   1   1   2   1 -0.63897720264855D+00  0.75140264843565D-15
   2   1   2   1  0.12792063684077D+01  0.00000000000000D+00
   3   1   2   1 -0.63897720265314D+00 -0.25598445585473D-15
   1   1   3   1 -0.16040833829701D+01 -0.45238632284672D-16
   2   1   3   1 -0.63897775153135D+00  0.58755052906312D-15
   3   1   3   1  0.28820388860295D+01  0.00000000000000D+00
  
 2nd derivatives (non-stat.)  - # elements :       9
 qpt  0.00000000E+00  5.00000000E-01  5.00000000E-01   1.0
   1   1   1   1  0.12792063683475D+01  0.00000000000000D+00
   2   1   1   1 -0.63897720262394D+00 -0.68409639064626D-16
   3   1   1   1 -0.63897720263364D+00 -0.12357870282642D-15
   1   1   2   1 -0.63897775150185D+00  0.83856976917929D-16
   2   1   2   1  0.28820388860264D+01  0.00000000000000D+00
   3   1   2   1 -0.16040833829904D+01  0.15943859427159D-15
   1   1   3   1 -0.63897775151169D+00 -0.98200933495995D-16
   2   1   3   1 -0.16040833829904D+01  0.40549261864919D-15
   3   1   3   1  0.28820388860291D+01  0.00000000000000D+00
  
 2nd derivatives (non-stat.)  - # elements :       9
 qpt  5.00000000E-01  5.00000000E-01  5.00000000E-01   1.0
   1   1   1   1  0.11693662695919D+01  0.00000000000000D+00
   2   1   1   1 -0.38978878041614D+00  0.26922503115756D-15
   3   1   1   1 -0.38978878045195D+00 -0.18536805423963D-15
   1   1   2   1 -0.38978878041611D+00 -0.50424524278281D-15
   2   1   2   1  0.11693662696423D+01  0.00000000000000D+00
   3   1   2   1 -0.38978878046933D+00 -0.11728942955758D-14
   1   1   3   1 -0.38978878045192D+00 -0.69513020339862D-16
   2   1   3   1 -0.38978878046932D+00  0.90587602696868D-15
   3   1   3   1  0.11693662696930D+01  0.00000000000000D+00

 List of bloks and their characteristics 
  
 2nd derivatives (non-stat.)  - # elements :       9
 qpt  0.00000000E+00  0.00000000E+00  0.00000000E+00   1.0
  
 2nd derivatives (non-stat.)  - # elements :       9
 qpt  5.00000000E-01  0.00000000E+00  0.00000000E+00   1.0
  
 2nd derivatives (non-stat.)  - # elements :       9
 qpt  0.00000000E+00  5.00000000E-01  0.00000000E+00   1.0
  
 2nd derivatives (non-stat.)  - # elements :       9
 qpt  5.00000000E-01  5.00000000E-01  0.00000000E+00   1.0
  
 2nd derivatives (non-stat.)  - # elements :       9
 qpt  0.00000000E+00  0.00000000E+00  5.00000000E-01   1.0
  
 2nd derivatives (non-stat.)  - # elements :       9
 qpt  5.00000000E-01  0.00000000E+00  5.00000000E-01   1.0
  
 2nd derivatives (non-stat.)  - # elements :       9
 qpt  0.00000000E+00  5.00000000E-01  5.00000000E-01   1.0
  
 2nd derivatives (non-stat.)  - # elements :       9
 qpt  5.00000000E-01  5.00000000E-01  5.00000000E-01   1.0
