
 **** DERIVATIVE DATABASE ****    
+DDB, Version number    100401

 He BCC primitive cell  EIGR2D file                                                                                                                                                                                                                                      

    usepaw         0
     natom         1
      nkpt         8
    nsppol         1
      nsym         1
    ntypat         1
    occopt         1
     nband         4
     acell  0.43000000000000D+01  0.43000000000000D+01  0.43000000000000D+01
       amu  0.40026020000000D+01
   dilatmx  0.10000000000000D+01
      ecut  0.80000000000000D+01
    ecutsm  0.00000000000000D+00
     intxc         0
      iscf         7
       ixc         1
       kpt  0.25000000000000D+00  0.25000000000000D+00  0.25000000000000D+00
           -0.25000000000000D+00  0.25000000000000D+00  0.25000000000000D+00
            0.25000000000000D+00 -0.25000000000000D+00  0.25000000000000D+00
           -0.25000000000000D+00 -0.25000000000000D+00  0.25000000000000D+00
            0.25000000000000D+00  0.25000000000000D+00 -0.25000000000000D+00
           -0.25000000000000D+00  0.25000000000000D+00 -0.25000000000000D+00
            0.25000000000000D+00 -0.25000000000000D+00 -0.25000000000000D+00
           -0.25000000000000D+00 -0.25000000000000D+00 -0.25000000000000D+00
    kptnrm  0.10000000000000D+01
     ngfft        10   10   10
    nspden         1
   nspinor         1
       occ  0.20000000000000D+01  0.00000000000000D+00  0.00000000000000D+00
            0.00000000000000D+00
     rprim -0.50000000000000D+00  0.50000000000000D+00  0.50000000000000D+00
            0.50000000000000D+00 -0.50000000000000D+00  0.50000000000000D+00
            0.50000000000000D+00  0.50000000000000D+00 -0.50000000000000D+00
     sciss  0.00000000000000D+00
    spinat  0.00000000000000D+00  0.00000000000000D+00  0.00000000000000D+00
    symafm         1
    symrel         1    0    0    0    1    0    0    0    1
     tnons  0.00000000000000D+00  0.00000000000000D+00  0.00000000000000D+00
    tolwfr  0.10000000000000D+01
   tphysel  0.00000000000000D+00
    tsmear  0.40000000000000D-01
     typat         1
       wtk  0.12500000000000D+00  0.12500000000000D+00  0.12500000000000D+00
            0.12500000000000D+00  0.12500000000000D+00  0.12500000000000D+00
            0.12500000000000D+00  0.12500000000000D+00
      xred  0.00000000000000D+00  0.00000000000000D+00  0.00000000000000D+00
     znucl  0.20000000000000D+01
      zion  0.20000000000000D+01
 
  Description of the potentials (KB energies)
  vrsio8 (for pseudopotentials)=100401
  usepaw =  0
  dimekb =  1       lmnmax=  1
  Atom type=    1   pspso=  0   nekb=   0
  iln lpsang iproj  ekb(:)
 
 **** Database of total energy derivatives ****
 Number of data blocks=    8
  
 2nd eigenvalue derivatives   - # elements :       9
 qpt  0.00000000E+00  0.00000000E+00  0.00000000E+00   1.0
 K-point:  2.50000000E-01  2.50000000E-01  2.50000000E-01
 Band:  1
   1   1   1   1 -0.39942356688326D+01 -0.24272438209902D-16
   2   1   1   1  0.13314118896046D+01  0.11599744365424D-12
   3   1   1   1  0.13314118896241D+01  0.10308899876115D-12
   1   1   2   1  0.13314118896046D+01 -0.11598311542452D-12
   2   1   2   1 -0.39942356688776D+01 -0.37708820723732D-16
   3   1   2   1  0.13314118896490D+01  0.38368919236537D-12
   1   1   3   1  0.13314118896241D+01 -0.10306783484165D-12
   2   1   3   1  0.13314118896490D+01 -0.38366620643185D-12
   3   1   3   1 -0.39942356689227D+01 -0.30422876036200D-16
 Band:  2
   1   1   1   1 -0.26319183014278D+00 -0.87224276534696D-17
   2   1   1   1  0.27545932041842D+00  0.27046295959571D-02
   3   1   1   1 -0.29131830187029D+00  0.38397088186601D-02
   1   1   2   1  0.27545932041842D+00 -0.27046295959571D-02
   2   1   2   1  0.13188788475400D+00 -0.95912187595565D-17
   3   1   2   1 -0.96371472626526D+00  0.28898834750739D-01
   1   1   3   1 -0.29131830187029D+00 -0.38397088186601D-02
   2   1   3   1 -0.96371472626526D+00 -0.28898834750739D-01
   3   1   3   1  0.22474245654386D+01 -0.81163755797091D-17
 Band:  3
   1   1   1   1 -0.32033250043605D+00 -0.10949727258054D-16
   2   1   1   1  0.78970376421732D-01  0.47445772700488D-02
   3   1   1   1  0.13274238933370D+00  0.21166474051569D-03
   1   1   2   1  0.78970376421732D-01 -0.47445772700488D-02
   2   1   2   1  0.14830504887025D+01 -0.11899701178180D-16
   3   1   2   1  0.82168697066681D-01 -0.29062463935330D-01
   1   1   3   1  0.13274238933370D+00 -0.21166474051569D-03
   2   1   3   1  0.82168697066681D-01  0.29062463935330D-01
   3   1   3   1 -0.32005253879214D+00 -0.10273768496366D-16
 Band:  4
   1   1   1   1  0.22883446989920D+01 -0.84460831544278D-17
   2   1   1   1 -0.92270315297366D+00 -0.74492068659148D-02
   3   1   1   1 -0.40969754361022D+00 -0.40513735590886D-02
   1   1   2   1 -0.92270315297366D+00  0.74492068659148D-02
   2   1   2   1  0.89881994989845D-01 -0.90339240198223D-17
   3   1   2   1  0.31327257303268D+00  0.16362918491043D-03
   1   1   3   1 -0.40969754361022D+00  0.40513735590886D-02
   2   1   3   1  0.31327257303268D+00 -0.16362918491042D-03
   3   1   3   1 -0.22255165816702D+00 -0.82164313466035D-17
 K-point: -2.50000000E-01  2.50000000E-01  2.50000000E-01
 Band:  1
   1   1   1   1 -0.14995549986154D+01 -0.17765110208468D-16
   2   1   1   1  0.53060007442378D+00  0.33883910331668D-14
   3   1   1   1  0.53060007442731D+00  0.19831426642057D-14
   1   1   2   1  0.53060007442378D+00 -0.33799017308545D-14
   2   1   2   1 -0.14995549986214D+01 -0.18974412321661D-16
   3   1   2   1  0.43835484977029D+00  0.14172917129543D-14
   1   1   3   1  0.53060007442731D+00 -0.19755615614741D-14
   2   1   3   1  0.43835484977029D+00 -0.13996254588594D-14
   3   1   3   1 -0.14995549986291D+01 -0.24710658845171D-16
 Band:  2
   1   1   1   1 -0.27372321936324D+01 -0.11339041454723D-16
   2   1   1   1  0.29421384580296D+00  0.56361571177625D-14
   3   1   1   1  0.29421384578184D+00  0.85082016057021D-13
   1   1   2   1  0.29421384580296D+00 -0.55951730758889D-14
   2   1   2   1 -0.27372321936340D+01 -0.31299631886379D-16
   3   1   2   1  0.21488045020492D+01 -0.79633355389664D-13
   1   1   3   1  0.29421384578184D+00 -0.85050374712180D-13
   2   1   3   1  0.21488045020492D+01  0.79585784504892D-13
   3   1   3   1 -0.27372321935852D+01 -0.29336875760809D-16
 Band:  3
   1   1   1   1 -0.15455282785557D+01 -0.32843628317467D-15
   2   1   1   1  0.20464695116095D+00  0.22032510192806D-04
   3   1   1   1  0.18372930733741D+00 -0.22032510164648D-04
   1   1   2   1  0.20464695116095D+00 -0.22032510192792D-04
   2   1   2   1  0.17519278146035D+01 -0.39919943156962D-16
   3   1   2   1 -0.21403040730771D+01 -0.71482601570076D-12
   1   1   3   1  0.18372930733741D+00  0.22032510164668D-04
   2   1   3   1 -0.21403040730771D+01  0.71486474159712D-12
   3   1   3   1  0.17519278145445D+01 -0.31297969971442D-16
 Band:  4
   1   1   1   1  0.17519278146146D+01 -0.19613991913547D-16
   2   1   1   1  0.18372930730502D+00 -0.22032510348092D-04
   3   1   1   1  0.20464695115731D+00  0.22032510788695D-04
   1   1   2   1  0.18372930730502D+00  0.22032510348084D-04
   2   1   2   1 -0.15455282785441D+01 -0.26106326697581D-15
   3   1   2   1  0.11571520200571D+01 -0.63468193364246D-13
   1   1   3   1  0.20464695115731D+00 -0.22032510788696D-04
   2   1   3   1  0.11571520200571D+01  0.63959190358743D-13
   3   1   3   1 -0.15455282785546D+01 -0.25955620676546D-15
 K-point:  2.50000000E-01 -2.50000000E-01  2.50000000E-01
 Band:  1
   1   1   1   1 -0.14995549986146D+01 -0.19541535371058D-16
   2   1   1   1  0.53060007442390D+00 -0.31721507113756D-14
   3   1   1   1  0.43835484976696D+00  0.32033218025706D-14
   1   1   2   1  0.53060007442390D+00  0.31752078423874D-14
   2   1   2   1 -0.14995549986224D+01 -0.16719058968869D-16
   3   1   2   1  0.53060007443150D+00 -0.10928581957118D-15
   1   1   3   1  0.43835484976696D+00 -0.31853055505249D-14
   2   1   3   1  0.53060007443150D+00  0.11436328291366D-15
   3   1   3   1 -0.14995549986301D+01 -0.23784698867620D-16
 Band:  2
   1   1   1   1 -0.27372321936518D+01 -0.27860020122294D-16
   2   1   1   1  0.29421384580376D+00 -0.24919933373915D-13
   3   1   1   1  0.21488045020440D+01 -0.17972833516836D-13
   1   1   2   1  0.29421384580376D+00  0.24950112812255D-13
   2   1   2   1 -0.27372321936031D+01 -0.58009061464151D-17
   3   1   2   1  0.29421384575520D+00  0.42450668817673D-13
   1   1   3   1  0.21488045020440D+01  0.17925163995406D-13
   2   1   3   1  0.29421384575520D+00 -0.42420048876932D-13
   3   1   3   1 -0.27372321935542D+01 -0.34809376128601D-16
 Band:  3
   1   1   1   1  0.20208479647108D+00 -0.94441473701335D-16
   2   1   1   1 -0.47734335014226D+00  0.73476148852657D-03
   3   1   1   1 -0.59046105493223D+00 -0.41576867030301D-12
   1   1   2   1 -0.47734335014226D+00 -0.73476148852631D-03
   2   1   2   1  0.43147396143284D-02 -0.17479925117933D-15
   3   1   2   1  0.86571960860966D+00  0.73476148891694D-03
   1   1   3   1 -0.59046105493223D+00  0.41593849267314D-12
   2   1   3   1  0.86571960860966D+00 -0.73476148891720D-03
   3   1   3   1  0.20208479639868D+00 -0.11383570606000D-15
 Band:  4
   1   1   1   1  0.43147396190104D-02 -0.12569791589730D-15
   2   1   1   1  0.86571960860619D+00 -0.73476148867311D-03
   3   1   1   1 -0.39269099808288D+00  0.15818402385993D-12
   1   1   2   1  0.86571960860619D+00  0.73476148867290D-03
   2   1   2   1  0.20208479640649D+00 -0.10899289093023D-15
   3   1   2   1 -0.47734335007914D+00 -0.73476148851335D-03
   1   1   3   1 -0.39269099808289D+00 -0.15796523918042D-12
   2   1   3   1 -0.47734335007914D+00  0.73476148851358D-03
   3   1   3   1  0.43147395525378D-02 -0.12284271196833D-15
 K-point: -2.50000000E-01 -2.50000000E-01  2.50000000E-01
 Band:  1
   1   1   1   1 -0.14995549986157D+01 -0.15571622879030D-16
   2   1   1   1  0.43835484976455D+00 -0.32734678009979D-14
   3   1   1   1  0.53060007442727D+00  0.14239289562599D-14
   1   1   2   1  0.43835484976455D+00  0.32902462982045D-14
   2   1   2   1 -0.14995549986234D+01 -0.18203191283405D-16
   3   1   2   1  0.53060007443155D+00  0.13876060612485D-14
   1   1   3   1  0.53060007442727D+00 -0.14110640467973D-14
   2   1   3   1  0.53060007443155D+00 -0.13759910417977D-14
   3   1   3   1 -0.14995549986292D+01 -0.24925984408972D-16
 Band:  2
   1   1   1   1 -0.27372321936347D+01 -0.51431870161363D-16
   2   1   1   1  0.21488045020495D+01 -0.50501943725054D-13
   3   1   1   1  0.29421384578205D+00 -0.15441206128833D-13
   1   1   2   1  0.21488045020495D+01  0.50415682504886D-13
   2   1   2   1 -0.27372321935859D+01 -0.39047708404193D-16
   3   1   2   1  0.29421384575426D+00 -0.53196461280724D-13
   1   1   3   1  0.29421384578205D+00  0.15535809692308D-13
   2   1   3   1  0.29421384575426D+00  0.53276261868130D-13
   3   1   3   1 -0.27372321935869D+01 -0.54911260434267D-16
 Band:  3
   1   1   1   1 -0.15438703823652D+01 -0.33999394283019D-15
   2   1   1   1  0.11554941238664D+01  0.32437246037691D-12
   3   1   1   1  0.16226791075490D+00  0.24997852908658D-03
   1   1   2   1  0.11554941238664D+01 -0.32358993375315D-12
   2   1   2   1 -0.15438703823738D+01 -0.48815684008480D-15
   3   1   2   1  0.22610834777723D+00 -0.24997852991790D-03
   1   1   3   1  0.16226791075490D+00 -0.24997852908653D-03
   2   1   3   1  0.22610834777723D+00  0.24997852991790D-03
   3   1   3   1  0.17502699183624D+01 -0.46237490417583D-16
 Band:  4
   1   1   1   1  0.17502699184334D+01 -0.42560970379805D-16
   2   1   1   1 -0.21386461768949D+01  0.17109669075019D-12
   3   1   1   1  0.22610834773901D+00 -0.24997853039882D-03
   1   1   2   1 -0.21386461768949D+01 -0.17104956300168D-12
   2   1   2   1  0.17502699183726D+01 -0.42847055757740D-16
   3   1   2   1  0.16226791075901D+00  0.24997852914020D-03
   1   1   3   1  0.22610834773901D+00  0.24997853039884D-03
   2   1   3   1  0.16226791075901D+00 -0.24997852914015D-03
   3   1   3   1 -0.15438703823652D+01 -0.47643232914291D-15
 K-point:  2.50000000E-01  2.50000000E-01 -2.50000000E-01
 Band:  1
   1   1   1   1 -0.14995549986157D+01 -0.23222019561048D-16
   2   1   1   1  0.43835484976455D+00  0.33887776294032D-14
   3   1   1   1  0.53060007442727D+00 -0.13528954727362D-14
   1   1   2   1  0.43835484976455D+00 -0.33724646751267D-14
   2   1   2   1 -0.14995549986234D+01 -0.21459302037300D-16
   3   1   2   1  0.53060007443155D+00 -0.11420589049147D-14
   1   1   3   1  0.53060007442727D+00  0.13657066466057D-14
   2   1   3   1  0.53060007443155D+00  0.11495670046449D-14
   3   1   3   1 -0.14995549986292D+01 -0.22105172834344D-16
 Band:  2
   1   1   1   1 -0.27372321936347D+01 -0.29376948924082D-16
   2   1   1   1  0.21488045020495D+01  0.51447052322819D-13
   3   1   1   1  0.29421384578205D+00  0.16540785152923D-13
   1   1   2   1  0.21488045020495D+01 -0.51497349223822D-13
   2   1   2   1 -0.27372321935858D+01 -0.29718381873287D-16
   3   1   2   1  0.29421384575425D+00  0.54659269314012D-13
   1   1   3   1  0.29421384578205D+00 -0.16495518949729D-13
   2   1   3   1  0.29421384575425D+00 -0.54617016096296D-13
   3   1   3   1 -0.27372321935869D+01 -0.20397751567417D-16
 Band:  3
   1   1   1   1 -0.15438482652813D+01 -0.33635630017781D-15
   2   1   1   1  0.11554720067825D+01 -0.32215815279782D-12
   3   1   1   1  0.16207840263904D+00  0.23018139095201D-05
   1   1   2   1  0.11554720067825D+01  0.32267384046328D-12
   2   1   2   1 -0.15438482652899D+01 -0.21903663120269D-15
   3   1   2   1  0.22629785589308D+00 -0.23018130784923D-05
   1   1   3   1  0.16207840263904D+00 -0.23018139095214D-05
   2   1   3   1  0.22629785589308D+00  0.23018130785089D-05
   3   1   3   1  0.17502478012786D+01 -0.19157270936717D-16
 Band:  4
   1   1   1   1  0.17502478013495D+01 -0.36292405239542D-16
   2   1   1   1 -0.21386240598110D+01 -0.17332701907053D-12
   3   1   1   1  0.22629785585486D+00 -0.23018125981065D-05
   1   1   2   1 -0.21386240598110D+01  0.17335528281064D-12
   2   1   2   1  0.17502478012887D+01 -0.32414486758312D-16
   3   1   2   1  0.16207840264316D+00  0.23018138554598D-05
   1   1   3   1  0.22629785585486D+00  0.23018125981083D-05
   2   1   3   1  0.16207840264316D+00 -0.23018138554268D-05
   3   1   3   1 -0.15438482652813D+01 -0.30973974529925D-15
 K-point: -2.50000000E-01  2.50000000E-01 -2.50000000E-01
 Band:  1
   1   1   1   1 -0.14995549986146D+01 -0.22467813413764D-16
   2   1   1   1  0.53060007442390D+00  0.34609678732121D-14
   3   1   1   1  0.43835484976696D+00 -0.33945852874280D-14
   1   1   2   1  0.53060007442390D+00 -0.34459493291867D-14
   2   1   2   1 -0.14995549986224D+01 -0.22253981555921D-16
   3   1   2   1  0.53060007443150D+00  0.10705004045959D-15
   1   1   3   1  0.43835484976696D+00  0.34152607880287D-14
   2   1   3   1  0.53060007443150D+00 -0.93299409674280D-16
   3   1   3   1 -0.14995549986301D+01 -0.16816381283788D-16
 Band:  2
   1   1   1   1 -0.27372321936518D+01 -0.52962883097500D-16
   2   1   1   1  0.29421384580376D+00  0.27226869405607D-13
   3   1   1   1  0.21488045020440D+01  0.16032051512083D-13
   1   1   2   1  0.29421384580376D+00 -0.27137330879426D-13
   2   1   2   1 -0.27372321936031D+01 -0.46062977869549D-16
   3   1   2   1  0.29421384575520D+00 -0.42575135097234D-13
   1   1   3   1  0.21488045020440D+01 -0.16116003424322D-13
   2   1   3   1  0.29421384575520D+00  0.42644773590204D-13
   3   1   3   1 -0.27372321935542D+01 -0.40907239177425D-16
 Band:  3
   1   1   1   1  0.20032626576775D+00 -0.25868725022325D-15
   2   1   1   1 -0.47738605436911D+00 -0.84356861351840D-03
   3   1   1   1 -0.58870252422892D+00  0.41492927877854D-12
   1   1   2   1 -0.47738605436911D+00  0.84356861351887D-03
   2   1   2   1  0.60732703176467D-02 -0.25595088381737D-15
   3   1   2   1  0.86576231283651D+00 -0.84356861390729D-03
   1   1   3   1 -0.58870252422892D+00 -0.41446478560378D-12
   2   1   3   1  0.86576231283651D+00  0.84356861390687D-03
   3   1   3   1  0.20032626569540D+00 -0.24254110818269D-15
 Band:  4
   1   1   1   1  0.60732703223449D-02 -0.24778254806030D-15
   2   1   1   1  0.86576231283303D+00  0.84356861366454D-03
   3   1   1   1 -0.39444952878619D+00 -0.15736485478101D-12
   1   1   2   1  0.86576231283303D+00 -0.84356861366500D-03
   2   1   2   1  0.20032626570318D+00 -0.26282820901392D-15
   3   1   2   1 -0.47738605430598D+00  0.84356861350490D-03
   1   1   3   1 -0.39444952878619D+00  0.15780511582545D-12
   2   1   3   1 -0.47738605430598D+00 -0.84356861350444D-03
   3   1   3   1  0.60732702558226D-02 -0.23015875704325D-15
 K-point:  2.50000000E-01 -2.50000000E-01 -2.50000000E-01
 Band:  1
   1   1   1   1 -0.14995549986154D+01 -0.20619025063149D-16
   2   1   1   1  0.53060007442378D+00 -0.32142013135011D-14
   3   1   1   1  0.53060007442731D+00 -0.20311805511003D-14
   1   1   2   1  0.53060007442378D+00  0.32301870381823D-14
   2   1   2   1 -0.14995549986214D+01 -0.17493279843350D-16
   3   1   2   1  0.43835484977029D+00 -0.12463437599477D-14
   1   1   3   1  0.53060007442731D+00  0.20417266717886D-14
   2   1   3   1  0.43835484977029D+00  0.12661776459242D-14
   3   1   3   1 -0.14995549986291D+01 -0.21967508928210D-16
 Band:  2
   1   1   1   1 -0.27372321936324D+01 -0.47930067565555D-16
   2   1   1   1  0.29421384580297D+00 -0.43623741994135D-14
   3   1   1   1  0.29421384578184D+00 -0.85742735008138D-13
   1   1   2   1  0.29421384580297D+00  0.44324017550090D-14
   2   1   2   1 -0.27372321936340D+01 -0.46871872241485D-16
   3   1   2   1  0.21488045020492D+01  0.81184754512905D-13
   1   1   3   1  0.29421384578184D+00  0.85822083340418D-13
   2   1   3   1  0.21488045020492D+01 -0.81264114409286D-13
   3   1   3   1 -0.27372321935852D+01 -0.49254984361930D-16
 Band:  3
   1   1   1   1 -0.15455623331227D+01 -0.48569290837631D-15
   2   1   1   1  0.20371152648173D+00  0.13547951083191D-04
   3   1   1   1  0.18466473201661D+00 -0.13547951111651D-04
   1   1   2   1  0.20371152648173D+00 -0.13547951083179D-04
   2   1   2   1  0.17519618691703D+01 -0.45784023372181D-16
   3   1   2   1 -0.21403381276439D+01  0.71589839501832D-12
   1   1   3   1  0.18466473201661D+00  0.13547951111660D-04
   2   1   3   1 -0.21403381276439D+01 -0.71584560889353D-12
   3   1   3   1  0.17519618691113D+01 -0.40326084870652D-16
 Band:  4
   1   1   1   1  0.17519618691815D+01 -0.52479347168949D-16
   2   1   1   1  0.18466473198424D+00 -0.13547950927240D-04
   3   1   1   1  0.20371152647811D+00  0.13547950487598D-04
   1   1   2   1  0.18466473198424D+00  0.13547950927258D-04
   2   1   2   1 -0.15455623331111D+01 -0.49776783365591D-15
   3   1   2   1  0.11571860746241D+01  0.63535745039628D-13
   1   1   3   1  0.20371152647811D+00 -0.13547950487594D-04
   2   1   3   1  0.11571860746241D+01 -0.62665998296327D-13
   3   1   3   1 -0.15455623331216D+01 -0.45326530324515D-15
 K-point: -2.50000000E-01 -2.50000000E-01 -2.50000000E-01
 Band:  1
   1   1   1   1 -0.39942356688326D+01 -0.49027147998210D-16
   2   1   1   1  0.13314118896046D+01 -0.11664008569937D-12
   3   1   1   1  0.13314118896241D+01 -0.10295170188888D-12
   1   1   2   1  0.13314118896046D+01  0.11666322269610D-12
   2   1   2   1 -0.39942356688776D+01 -0.54228494108655D-16
   3   1   2   1  0.13314118896490D+01 -0.38298266115061D-12
   1   1   3   1  0.13314118896241D+01  0.10297028706610D-12
   2   1   3   1  0.13314118896490D+01  0.38300950492605D-12
   3   1   3   1 -0.39942356689227D+01 -0.58912204669180D-16
 Band:  2
   1   1   1   1 -0.26318841479112D+00 -0.18392473416680D-16
   2   1   1   1  0.27547469892666D+00 -0.26959456166894D-02
   3   1   1   1 -0.29132996164750D+00 -0.38418788297219D-02
   1   1   2   1  0.27547469892666D+00  0.26959456166894D-02
   2   1   2   1  0.13196038747074D+00 -0.18151916059660D-16
   3   1   2   1 -0.96380148371991D+00 -0.28846824840828D-01
   1   1   3   1 -0.29132996164750D+00  0.38418788297219D-02
   2   1   3   1 -0.96380148371991D+00  0.28846824840828D-01
   3   1   3   1  0.22474316860938D+01 -0.14906509322255D-16
 Band:  3
   1   1   1   1 -0.32033078521271D+00 -0.16018451823763D-16
   2   1   1   1  0.78882073284101D-01 -0.47876107403249D-02
   3   1   1   1  0.13274249667775D+00 -0.21268293396118D-03
   1   1   2   1  0.78882073284101D-01  0.47876107403249D-02
   2   1   2   1  0.14830363637356D+01 -0.92546819817005D-17
   3   1   2   1  0.82272027264842D-01  0.29004982055807D-01
   1   1   3   1  0.13274249667775D+00  0.21268293396119D-03
   2   1   3   1  0.82272027264842D-01 -0.29004982055807D-01
   3   1   3   1 -0.32005526345317D+00 -0.15440987111972D-16
 Band:  4
   1   1   1   1  0.22883395684170D+01 -0.14590989549403D-16
   2   1   1   1 -0.92263022834427D+00  0.74835563569226D-02
   3   1   1   1 -0.40968599117707D+00  0.40545617635958D-02
   1   1   2   1 -0.92263022834427D+00 -0.74835563569226D-02
   2   1   2   1  0.89823617240004D-01 -0.19078464224837D-16
   3   1   2   1  0.31325600028917D+00 -0.15815721529735D-03
   1   1   3   1 -0.40968599117707D+00 -0.40545617635958D-02
   2   1   3   1  0.31325600028917D+00  0.15815721529737D-03
   3   1   3   1 -0.22255605416121D+00 -0.17182433911968D-16
  
 2nd eigenvalue derivatives   - # elements :       9
 qpt  5.00000000E-01  0.00000000E+00  0.00000000E+00   1.0
 K-point:  2.50000000E-01  2.50000000E-01  2.50000000E-01
 Band:  1
   1   1   1   1 -0.36318984339681D+01  0.26809772481415D-16
   2   1   1   1  0.68414367685052D+00  0.43296271577743D-13
   3   1   1   1  0.68414367683827D+00  0.67832871019580D-13
   1   1   2   1  0.68414367685052D+00 -0.43307070037493D-13
   2   1   2   1 -0.26102084538679D+01 -0.22464154072364D-16
   3   1   2   1  0.12419207351781D+01 -0.28035950646986D-13
   1   1   3   1  0.68414367683827D+00 -0.67839812121367D-13
   2   1   3   1  0.12419207351781D+01  0.28048941857731D-13
   3   1   3   1 -0.26102084538433D+01 -0.19137614577852D-16
 Band:  2
   1   1   1   1 -0.18066446445626D+01 -0.15781494356768D-16
   2   1   1   1  0.27588057481689D-01 -0.11690264284527D-01
   3   1   1   1  0.45950880845710D+00  0.18875921188249D-01
   1   1   2   1  0.27588057481689D-01  0.11690264284527D-01
   2   1   2   1 -0.48640226246312D+00 -0.73285290596442D-17
   3   1   2   1  0.28750803168375D+00 -0.11707144692165D-02
   1   1   3   1  0.45950880845710D+00 -0.18875921188249D-01
   2   1   3   1  0.28750803168375D+00  0.11707144692165D-02
   3   1   3   1 -0.98920280969577D+00 -0.61020253520200D-17
 Band:  3
   1   1   1   1 -0.12717147299375D+01 -0.59546416191977D-17
   2   1   1   1  0.71255920515569D+00  0.19750251583673D-01
   3   1   1   1  0.18658734974271D+00 -0.14308318058014D-01
   1   1   2   1  0.71255920515569D+00 -0.19750251583673D-01
   2   1   2   1 -0.94003602593534D+00 -0.62019752397960D-17
   3   1   2   1 -0.20032722429115D-01  0.11773432192576D-02
   1   1   3   1  0.18658734974271D+00  0.14308318058014D-01
   2   1   3   1 -0.20032722429115D-01 -0.11773432192576D-02
   3   1   3   1 -0.51149172407387D+00 -0.11072414686508D-16
 Band:  4
   1   1   1   1  0.83491148302659D+00  0.91742138517113D-17
   2   1   1   1  0.25512178128102D+00 -0.80599872988304D-02
   3   1   1   1  0.34917288574109D+00 -0.45676031304180D-02
   1   1   2   1  0.25512178128102D+00  0.80599872988304D-02
   2   1   2   1 -0.77855297565280D+00 -0.37904724389630D-17
   3   1   2   1 -0.53022343242661D-01 -0.66287492390192D-05
   1   1   3   1  0.34917288574109D+00  0.45676031304180D-02
   2   1   3   1 -0.53022343242661D-01  0.66287492390265D-05
   3   1   3   1 -0.70429673031333D+00 -0.60444271116067D-17
 K-point: -2.50000000E-01  2.50000000E-01  2.50000000E-01
 Band:  1
   1   1   1   1 -0.38061139235302D+01 -0.12419051945604D-16
   2   1   1   1  0.90004228538483D+00  0.19870859440936D-13
   3   1   1   1  0.90004228539647D+00  0.11243068098073D-12
   1   1   2   1  0.90004228538483D+00 -0.19857481324455D-13
   2   1   2   1 -0.21098919812557D+01 -0.19906770884720D-16
   3   1   2   1  0.30980724220587D+00  0.48284320644817D-13
   1   1   3   1  0.90004228539647D+00 -0.11241988312417D-12
   2   1   3   1  0.30980724220587D+00 -0.48269745429134D-13
   3   1   3   1 -0.21098919812818D+01 -0.20474368325722D-16
 Band:  2
   1   1   1   1 -0.45418522040145D+00 -0.60600331165561D-16
   2   1   1   1 -0.70501488301512D+00  0.46074406082741D-12
   3   1   1   1 -0.70501488306653D+00 -0.32629352385643D-12
   1   1   2   1 -0.70501488301512D+00 -0.46072265933564D-12
   2   1   2   1  0.11578625097065D+01 -0.25426845205342D-16
   3   1   2   1  0.25216766564087D+00  0.12945349714999D-11
   1   1   3   1 -0.70501488306653D+00  0.32632888944502D-12
   2   1   3   1  0.25216766564087D+00 -0.12945679365994D-11
   3   1   3   1  0.11578625098036D+01 -0.21643426192203D-16
 Band:  3
   1   1   1   1 -0.69639061743761D+00 -0.23288239737881D-16
   2   1   1   1  0.20368710317136D+00  0.11021069006946D-04
   3   1   1   1  0.18208223198679D+00 -0.11021068971331D-04
   1   1   2   1  0.20368710317136D+00 -0.11021069006934D-04
   2   1   2   1  0.40079340920022D+00 -0.26759140614858D-16
   3   1   2   1 -0.78656290365320D+00 -0.62659883508938D-12
   1   1   3   1  0.18208223198679D+00  0.11021068971353D-04
   2   1   3   1 -0.78656290365320D+00  0.62662136636430D-12
   3   1   3   1  0.40079340910220D+00 -0.19101325842607D-16
 Band:  4
   1   1   1   1  0.29935551200180D+01 -0.75438043133260D-17
   2   1   1   1 -0.12492521970295D+00 -0.11021069079031D-04
   3   1   1   1 -0.10332034849867D+00  0.11021069264373D-04
   1   1   2   1 -0.12492521970295D+00  0.11021069079033D-04
   2   1   2   1 -0.13414914543409D+00 -0.11562467914248D-16
   3   1   2   1  0.36239456093166D+00  0.32379674950510D-12
   1   1   3   1 -0.10332034849867D+00 -0.11021069264376D-04
   2   1   3   1  0.36239456093166D+00 -0.32378525514889D-12
   3   1   3   1 -0.13414914537472D+00 -0.10043880114886D-16
 K-point:  2.50000000E-01 -2.50000000E-01  2.50000000E-01
 Band:  1
   1   1   1   1 -0.20128522613912D+01 -0.20024507585812D-17
   2   1   1   1  0.55101920180388D+00 -0.18041288609939D-14
   3   1   1   1  0.66325685224845D+00  0.13683716596890D-12
   1   1   2   1  0.55101920180388D+00  0.17974382057836D-14
   2   1   2   1 -0.16584069859597D+01 -0.89481902100688D-17
   3   1   2   1  0.44413076642316D+00 -0.66787571013551D-13
   1   1   3   1  0.66325685224845D+00 -0.13682831018791D-12
   2   1   3   1  0.44413076642316D+00  0.66805262315364D-13
   3   1   3   1 -0.16584069870874D+01 -0.16655111921837D-16
 Band:  2
   1   1   1   1 -0.34397172155804D+01 -0.68592428612863D-16
   2   1   1   1  0.21708052448744D+01 -0.35530229374423D-11
   3   1   1   1 -0.19222258714296D+00  0.28800828173322D-12
   1   1   2   1  0.21708052448744D+01  0.35530658045913D-11
   2   1   2   1 -0.31273417867478D+01  0.60591636929451D-17
   3   1   2   1  0.11487585583494D+01  0.10701779829580D-11
   1   1   3   1 -0.19222258714296D+00 -0.28810906673938D-12
   2   1   3   1  0.11487585583494D+01 -0.10701296163596D-11
   3   1   3   1 -0.31273417841084D+01 -0.34157475012808D-16
 Band:  3
   1   1   1   1 -0.45020607666614D+00 -0.18660988154915D-15
   2   1   1   1 -0.29050551794849D+00  0.52249977064780D-03
   3   1   1   1 -0.38684058093698D+00 -0.81245439616964D-04
   1   1   2   1 -0.29050551794849D+00 -0.52249977064750D-03
   2   1   2   1 -0.94904407577697D-01 -0.12179391457363D-15
   3   1   2   1  0.65614564898709D+00  0.60374537512093D-03
   1   1   3   1 -0.38684058093698D+00  0.81245439617325D-04
   2   1   3   1  0.65614564898709D+00 -0.60374537512122D-03
   3   1   3   1  0.63572259378380D-01 -0.16117671145622D-15
 Band:  4
   1   1   1   1  0.16331392340330D+00 -0.11290957127834D-15
   2   1   1   1  0.16940699219189D+01 -0.52249978062222D-03
   3   1   1   1 -0.12326426028128D+01  0.81245436029661D-04
   1   1   2   1  0.16940699219189D+01  0.52249978062225D-03
   2   1   2   1  0.13285529611475D+01  0.21673190840073D-17
   3   1   2   1 -0.16738750643814D+01 -0.60374537600973D-03
   1   1   3   1 -0.12326426028128D+01 -0.81245436029684D-04
   2   1   3   1 -0.16738750643814D+01  0.60374537600973D-03
   3   1   3   1  0.11700762909795D+01 -0.15657579392286D-16
 K-point: -2.50000000E-01 -2.50000000E-01  2.50000000E-01
 Band:  1
   1   1   1   1 -0.20128523088474D+01 -0.12885908849377D-16
   2   1   1   1  0.66325686658957D+00  0.93527947010371D-15
   3   1   1   1  0.55101921888530D+00  0.28811781149582D-13
   1   1   2   1  0.66325686658957D+00 -0.93140548676062D-15
   2   1   2   1 -0.16584069924656D+01 -0.15119430450220D-16
   3   1   2   1  0.44413076176552D+00 -0.82749182882176D-15
   1   1   3   1  0.55101921888530D+00 -0.28805319874913D-13
   2   1   3   1  0.44413076176552D+00  0.84275700023971D-15
   3   1   3   1 -0.16584069920808D+01 -0.19339633920633D-16
 Band:  2
   1   1   1   1 -0.34397173297594D+01 -0.12539728437491D-15
   2   1   1   1 -0.19222254753065D+00 -0.12936981756037D-11
   3   1   1   1  0.21708052838075D+01  0.60879663142970D-12
   1   1   2   1 -0.19222254753065D+00  0.12936589739423D-11
   2   1   2   1 -0.31273418014735D+01 -0.42152712940295D-16
   3   1   2   1  0.11487585468986D+01  0.27842310433094D-12
   1   1   3   1  0.21708052838075D+01 -0.60870542860859D-12
   2   1   3   1  0.11487585468986D+01 -0.27837999509855D-12
   3   1   3   1 -0.31273418005489D+01 -0.49935633314010D-16
 Band:  3
   1   1   1   1 -0.77384975635678D+00 -0.43727970022885D-16
   2   1   1   1  0.18006817051448D+00 -0.27641098129862D-04
   3   1   1   1  0.30073027832250D+00  0.17776343789778D-03
   1   1   2   1  0.18006817051448D+00  0.27641098129901D-04
   2   1   2   1 -0.73306685448919D+00 -0.10803504225068D-15
   3   1   2   1 -0.45348772347922D+00 -0.20540459118071D-03
   1   1   3   1  0.30073027832250D+00 -0.17776343789774D-03
   2   1   3   1 -0.45348772347922D+00  0.20540459118059D-03
   3   1   3   1  0.19065865009961D+01 -0.69837535628872D-16
 Band:  4
   1   1   1   1  0.48695769021882D+00 -0.22059792559068D-15
   2   1   1   1 -0.17995513837386D+01  0.27641086423375D-04
   3   1   1   1  0.11028340961770D+01 -0.17776343850809D-03
   1   1   2   1 -0.17995513837386D+01 -0.27641086423171D-04
   2   1   2   1  0.19667154178974D+01 -0.62913676559779D-16
   3   1   2   1 -0.56424168320458D+00  0.20540459399906D-03
   1   1   3   1  0.11028340961770D+01  0.17776343850833D-03
   2   1   3   1 -0.56424168320458D+00 -0.20540459399916D-03
   3   1   3   1 -0.67293793796257D+00 -0.12080925200734D-15
 K-point:  2.50000000E-01  2.50000000E-01 -2.50000000E-01
 Band:  1
   1   1   1   1 -0.20128522613885D+01 -0.93928725429040D-18
   2   1   1   1  0.66325685224189D+00 -0.24658895736563D-15
   3   1   1   1  0.55101920180758D+00 -0.29061753219680D-13
   1   1   2   1  0.66325685224189D+00  0.25518166838658D-15
   2   1   2   1 -0.16584069870771D+01 -0.19847751075568D-16
   3   1   2   1  0.44413076642355D+00  0.10080754512856D-14
   1   1   3   1  0.55101920180758D+00  0.29053369825530D-13
   2   1   3   1  0.44413076642355D+00 -0.99172236791943D-15
   3   1   3   1 -0.16584069859704D+01 -0.82655541168360D-17
 Band:  2
   1   1   1   1 -0.34397172154595D+01 -0.78180536840317D-16
   2   1   1   1 -0.19222258715606D+00  0.12858135921280D-11
   3   1   1   1  0.21708052447687D+01 -0.60793984775914D-12
   1   1   2   1 -0.19222258715606D+00 -0.12859004664447D-11
   2   1   2   1 -0.31273417842141D+01 -0.17373645092722D-16
   3   1   2   1  0.11487585583507D+01 -0.27898824742179D-12
   1   1   3   1  0.21708052447687D+01  0.60799373178803D-12
   2   1   3   1  0.11487585583507D+01  0.27901575513422D-12
   3   1   3   1 -0.31273417866564D+01 -0.37744537063301D-17
 Band:  3
   1   1   1   1 -0.77393847561410D+00 -0.12886320905501D-16
   2   1   1   1  0.18019090911572D+00 -0.25451889262053D-06
   3   1   1   1  0.30044901093792D+00  0.16368507998572D-05
   1   1   2   1  0.18019090911572D+00  0.25451889264824D-06
   2   1   2   1 -0.73322762049813D+00 -0.83235599264955D-16
   3   1   2   1 -0.45315895423255D+00 -0.18913716149002D-05
   1   1   3   1  0.30044901093792D+00 -0.16368507998396D-05
   2   1   3   1 -0.45315895423255D+00  0.18913716147827D-05
   3   1   3   1  0.19063902883569D+01 -0.37396077072298D-16
 Band:  4
   1   1   1   1  0.48704632226262D+00 -0.20365820229026D-15
   2   1   1   1 -0.17996740929041D+01  0.25453058471727D-06
   3   1   1   1  0.11031153931628D+01 -0.16368502125795D-05
   1   1   2   1 -0.17996740929041D+01 -0.25453058453105D-06
   2   1   2   1  0.19668761710220D+01 -0.46971011346855D-16
   3   1   2   1 -0.56457046116244D+00  0.18913687966107D-05
   1   1   3   1  0.11031153931628D+01  0.16368502128525D-05
   2   1   3   1 -0.56457046116244D+00 -0.18913687967564D-05
   3   1   3   1 -0.67274173496441D+00 -0.10263077579859D-15
 K-point: -2.50000000E-01  2.50000000E-01 -2.50000000E-01
 Band:  1
   1   1   1   1 -0.20128523088501D+01 -0.15104776714478D-16
   2   1   1   1  0.55101921888160D+00  0.17993439724434D-14
   3   1   1   1  0.66325686659614D+00 -0.13637026992836D-12
   1   1   2   1  0.55101921888160D+00 -0.17940099098707D-14
   2   1   2   1 -0.16584069920700D+01 -0.20676577889181D-16
   3   1   2   1  0.44413076176513D+00  0.66921802898712D-13
   1   1   3   1  0.66325686659614D+00  0.13637603794865D-12
   2   1   3   1  0.44413076176513D+00 -0.66916476185937D-13
   3   1   3   1 -0.16584069924759D+01 -0.67065117671293D-17
 Band:  2
   1   1   1   1 -0.34397173298803D+01 -0.15276929202394D-15
   2   1   1   1  0.21708052839133D+01  0.35566462858215D-11
   3   1   1   1 -0.19222254751755D+00 -0.29465977318310D-12
   1   1   2   1  0.21708052839133D+01 -0.35565650756118D-11
   2   1   2   1 -0.31273418006403D+01 -0.41101460464189D-16
   3   1   2   1  0.11487585468973D+01 -0.10699527692427D-11
   1   1   3   1 -0.19222254751755D+00  0.29460020284956D-12
   2   1   3   1  0.11487585468973D+01  0.10699899960581D-11
   3   1   3   1 -0.31273418013677D+01 -0.37432234897312D-16
 Band:  3
   1   1   1   1 -0.45088350587608D+00 -0.20141511749465D-15
   2   1   1   1 -0.29094673509412D+00 -0.59987412725606D-03
   3   1   1   1 -0.38577762795713D+00  0.93276665340926D-04
   1   1   2   1 -0.29094673509412D+00  0.59987412725632D-03
   2   1   2   1 -0.93535485919852D-01 -0.13283113768816D-15
   3   1   2   1  0.65621973724661D+00 -0.69315098351806D-03
   1   1   3   1 -0.38577762795713D+00 -0.93276665340689D-04
   2   1   3   1  0.65621973724661D+00  0.69315098351787D-03
   3   1   3   1  0.62122902518776D-01 -0.80387397161373D-16
 Band:  4
   1   1   1   1  0.16399143982666D+00 -0.97974183426537D-16
   2   1   1   1  0.16945111094633D+01  0.59987413720862D-03
   3   1   1   1 -0.12337055852283D+01 -0.93276661759977D-04
   1   1   2   1  0.16945111094633D+01 -0.59987413720859D-03
   2   1   2   1  0.13271840491307D+01 -0.27845189054470D-16
   3   1   2   1 -0.16739491439297D+01  0.69315098440008D-03
   1   1   3   1 -0.12337055852283D+01  0.93276661759965D-04
   2   1   3   1 -0.16739491439297D+01 -0.69315098440005D-03
   3   1   3   1  0.11715256607235D+01 -0.42164056034678D-16
 K-point:  2.50000000E-01 -2.50000000E-01 -2.50000000E-01
 Band:  1
   1   1   1   1 -0.38061138576715D+01 -0.34620413299931D-17
   2   1   1   1  0.90004226179256D+00 -0.19629918455424D-13
   3   1   1   1  0.90004226180421D+00 -0.11228708850768D-12
   1   1   2   1  0.90004226179256D+00  0.19629599794623D-13
   2   1   2   1 -0.21098919728752D+01 -0.10158973416109D-16
   3   1   2   1  0.30980725065833D+00 -0.47666872637391D-13
   1   1   3   1  0.90004226180421D+00  0.11228408988217D-12
   2   1   3   1  0.30980725065833D+00  0.47683915947350D-13
   3   1   3   1 -0.21098919729012D+01 -0.15178667323150D-16
 Band:  2
   1   1   1   1 -0.45418508558010D+00 -0.28828352861852D-16
   2   1   1   1 -0.70501492581145D+00 -0.45990602139479D-12
   3   1   1   1 -0.70501492586286D+00  0.32502285929996D-12
   1   1   2   1 -0.70501492581145D+00  0.45993266348394D-12
   2   1   2   1  0.11578625231884D+01 -0.35691477599921D-16
   3   1   2   1  0.25216767925839D+00 -0.12925370602980D-11
   1   1   3   1 -0.70501492586286D+00 -0.32500400491850D-12
   2   1   3   1  0.25216767925839D+00  0.12924855144724D-11
   3   1   3   1  0.11578625232855D+01 -0.32527962564683D-16
 Band:  3
   1   1   1   1 -0.69642872556375D+00 -0.12333363704290D-16
   2   1   1   1  0.20272411678155D+00  0.67769361108511D-05
   3   1   1   1  0.18305155952218D+00 -0.67769361466510D-05
   1   1   2   1  0.20272411678155D+00 -0.67769361108425D-05
   2   1   2   1  0.40079893541198D+00 -0.39268516814483D-16
   3   1   2   1 -0.78657477110265D+00  0.67436877259424D-12
   1   1   3   1  0.18305155952217D+00  0.67769361466657D-05
   2   1   3   1 -0.78657477110265D+00 -0.67432433409654D-12
   3   1   3   1  0.40079893547226D+00 -0.31507818713511D-16
 Band:  4
   1   1   1   1  0.29935931031680D+01 -0.14813568348599D-16
   2   1   1   1 -0.12396219210570D+00 -0.67769360392071D-05
   3   1   1   1 -0.10428963482662D+00  0.67769358539245D-05
   1   1   2   1 -0.12396219210570D+00  0.67769360392176D-05
   2   1   2   1 -0.13415468360270D+00 -0.11257029560208D-16
   3   1   2   1  0.36240641317085D+00 -0.37247759217263D-12
   1   1   3   1 -0.10428963482662D+00 -0.67769358539173D-05
   2   1   3   1  0.36240641317085D+00  0.37247804190452D-12
   3   1   3   1 -0.13415468370163D+00 -0.97016107685902D-17
 K-point: -2.50000000E-01 -2.50000000E-01 -2.50000000E-01
 Band:  1
   1   1   1   1 -0.36318985849559D+01 -0.41439063393860D-16
   2   1   1   1  0.68414372425236D+00 -0.42278765969429D-13
   3   1   1   1  0.68414372424011D+00 -0.68002752182008D-13
   1   1   2   1  0.68414372425236D+00  0.42314414358858D-13
   2   1   2   1 -0.26102084728928D+01 -0.33115825270782D-16
   3   1   2   1  0.12419207245824D+01  0.29167223614900D-13
   1   1   3   1  0.68414372424011D+00  0.68048032869885D-13
   2   1   3   1  0.12419207245824D+01 -0.29161924256156D-13
   3   1   3   1 -0.26102084728682D+01 -0.45730813638060D-16
 Band:  2
   1   1   1   1 -0.18066575711411D+01 -0.94518712518213D-16
   2   1   1   1  0.27586707787753D-01  0.11672646406917D-01
   3   1   1   1  0.45947772661180D+00 -0.18851151000823D-01
   1   1   2   1  0.27586707787753D-01 -0.11672646406917D-01
   2   1   2   1 -0.48641141051499D+00 -0.23132469789515D-16
   3   1   2   1  0.28753426734115D+00  0.11686074907941D-02
   1   1   3   1  0.45947772661180D+00  0.18851151000823D-01
   2   1   3   1  0.28753426734115D+00 -0.11686074907941D-02
   3   1   3   1 -0.98919641709748D+00 -0.98848744944577D-17
 Band:  3
   1   1   1   1 -0.12718144476053D+01 -0.43344369976897D-16
   2   1   1   1  0.71255724711710D+00 -0.19765702601505D-01
   3   1   1   1  0.18662135011006D+00  0.14275400528088D-01
   1   1   2   1  0.71255724711710D+00  0.19765702601505D-01
   2   1   2   1 -0.94003163710099D+00 -0.87549325428204D-17
   3   1   2   1 -0.20066623847022D-01 -0.11750145652070D-02
   1   1   3   1  0.18662135011006D+00 -0.14275400528088D-01
   2   1   3   1 -0.20066623847022D-01  0.11750145652070D-02
   3   1   3   1 -0.51149004621413D+00 -0.22733517271358D-16
 Band:  4
   1   1   1   1  0.83502420643028D+00 -0.16093202481358D-16
   2   1   1   1  0.25512506389097D+00  0.80930561942719D-02
   3   1   1   1  0.34916994209647D+00  0.45757504729176D-02
   1   1   2   1  0.25512506389097D+00 -0.80930561942719D-02
   2   1   2   1 -0.77854820579148D+00 -0.26802663549968D-16
   3   1   2   1 -0.53014672237879D-01  0.64070736114540D-05
   1   1   3   1  0.34916994209647D+00 -0.45757504729176D-02
   2   1   3   1 -0.53014672237879D-01 -0.64070736114152D-05
   3   1   3   1 -0.70430479012754D+00 -0.30560948736935D-16
  
 2nd eigenvalue derivatives   - # elements :       9
 qpt  0.00000000E+00  5.00000000E-01  0.00000000E+00   1.0
 K-point:  2.50000000E-01  2.50000000E-01  2.50000000E-01
 Band:  1
   1   1   1   1 -0.26102084539015D+01 -0.20741043516550D-16
   2   1   1   1  0.68414367689358D+00 -0.56505921578021D-13
   3   1   1   1  0.12419207351573D+01  0.23123144146307D-14
   1   1   2   1  0.68414367689358D+00  0.56493012464526D-13
   2   1   2   1 -0.36318984339972D+01  0.23506417454605D-16
   3   1   2   1  0.68414367686876D+00  0.68920863696976D-13
   1   1   3   1  0.12419207351573D+01 -0.23066519482133D-14
   2   1   3   1  0.68414367686876D+00 -0.68929291954724D-13
   3   1   3   1 -0.26102084538523D+01 -0.12929706353435D-16
 Band:  2
   1   1   1   1 -0.42481076876557D+00 -0.67965923687685D-17
   2   1   1   1  0.17222946456749D+00  0.30420829735650D-02
   3   1   1   1  0.76617152241061D-01 -0.15554964189048D-03
   1   1   2   1  0.17222946456749D+00 -0.30420829735649D-02
   2   1   2   1 -0.19632287398518D+01 -0.14389395707956D-16
   3   1   2   1  0.47651082600821D+00  0.31803213463527D-01
   1   1   3   1  0.76617152241061D-01  0.15554964189049D-03
   2   1   3   1  0.47651082600821D+00 -0.31803213463527D-01
   3   1   3   1 -0.10215100875388D+01 -0.40420412242975D-17
 Band:  3
   1   1   1   1 -0.75627348044117D+00 -0.55429836068321D-17
   2   1   1   1  0.36296912948311D+00  0.67673896086151D-02
   3   1   1   1  0.24498860566789D-01 -0.85746851989594D-05
   1   1   2   1  0.36296912948311D+00 -0.67673896086151D-02
   2   1   2   1  0.16684920439150D+01  0.66318444605275D-17
   3   1   2   1  0.36422977953691D+00 -0.30352603834122D-01
   1   1   3   1  0.24498860566789D-01  0.85746851989643D-05
   2   1   3   1  0.36422977953691D+00  0.30352603834122D-01
   3   1   3   1 -0.75634001907718D+00 -0.45561902232809D-17
 Band:  4
   1   1   1   1 -0.10239070148103D+01 -0.26546012566950D-17
   2   1   1   1  0.46007044980042D+00 -0.98094725818115D-02
   3   1   1   1  0.11333695325852D+00  0.16412432734608D-03
   1   1   2   1  0.46007044980042D+00  0.98094725818116D-02
   2   1   2   1 -0.19487111955000D+01 -0.18966655875800D-17
   3   1   2   1  0.15452843833972D+00 -0.14506096289190D-02
   1   1   3   1  0.11333695325852D+00 -0.16412432734608D-03
   2   1   3   1  0.15452843833972D+00  0.14506096289190D-02
   3   1   3   1 -0.42714115746454D+00 -0.33673794818095D-17
 K-point: -2.50000000E-01  2.50000000E-01  2.50000000E-01
 Band:  1
   1   1   1   1 -0.16584069859473D+01 -0.78548723714295D-17
   2   1   1   1  0.55101920180019D+00 -0.55350887963760D-13
   3   1   1   1  0.44413076642023D+00 -0.11881505252435D-12
   1   1   2   1  0.55101920180019D+00  0.55347079156985D-13
   2   1   2   1 -0.20128522614020D+01 -0.12153127296489D-17
   3   1   2   1  0.66325685225294D+00  0.19780026873169D-12
   1   1   3   1  0.44413076642023D+00  0.11882836036788D-12
   2   1   3   1  0.66325685225294D+00 -0.19779048403366D-12
   3   1   3   1 -0.16584069870900D+01 -0.14775769072084D-16
 Band:  2
   1   1   1   1 -0.31273417867311D+01  0.10422172379635D-16
   2   1   1   1  0.21708052447199D+01  0.35919614291224D-11
   3   1   1   1  0.11487585583550D+01  0.20189907565686D-11
   1   1   2   1  0.21708052447199D+01 -0.35919232074574D-11
   2   1   2   1 -0.34397172153310D+01 -0.39545744865183D-16
   3   1   2   1 -0.19222258703990D+00 -0.22939960240204D-11
   1   1   3   1  0.11487585583550D+01 -0.20189648493558D-11
   2   1   3   1 -0.19222258703990D+00  0.22939009083457D-11
   3   1   3   1 -0.31273417840619D+01 -0.33186774614289D-16
 Band:  3
   1   1   1   1 -0.69448013573915D+00 -0.12647968594859D-15
   2   1   1   1  0.10707998441003D+01  0.15667653344346D-04
   3   1   1   1 -0.52700926108033D+00 -0.18103870593079D-04
   1   1   2   1  0.10707998441003D+01 -0.15667653344033D-04
   2   1   2   1  0.47659377015397D+00 -0.24601139637733D-15
   3   1   2   1 -0.17851539135262D+01  0.24362145696314D-05
   1   1   3   1 -0.52700926108033D+00  0.18103870592943D-04
   2   1   3   1 -0.17851539135262D+01 -0.24362145694142D-05
   3   1   3   1  0.19478302190563D+01 -0.57730495839892D-16
 Band:  4
   1   1   1   1  0.19281286891906D+01 -0.37459567216817D-16
   2   1   1   1  0.33276455969151D+00 -0.15667640060039D-04
   3   1   1   1 -0.49072015432679D+00  0.18103869522675D-04
   1   1   2   1  0.33276455969151D+00  0.15667640060062D-04
   2   1   2   1 -0.76348592380659D+00 -0.20161164237331D-16
   3   1   2   1  0.16567073001731D+00 -0.24362242367765D-05
   1   1   3   1 -0.49072015432679D+00 -0.18103869522773D-04
   2   1   3   1  0.16567073001731D+00  0.24362242368295D-05
   3   1   3   1 -0.71418166893022D+00 -0.77060894463894D-16
 K-point:  2.50000000E-01 -2.50000000E-01  2.50000000E-01
 Band:  1
   1   1   1   1 -0.21098919812269D+01 -0.20170109424213D-16
   2   1   1   1  0.90004228536551D+00  0.27596234692500D-13
   3   1   1   1  0.30980724220594D+00  0.17896607216889D-13
   1   1   2   1  0.90004228536551D+00 -0.27586845216455D-13
   2   1   2   1 -0.38061139235283D+01 -0.12271715695432D-16
   3   1   2   1  0.90004228539113D+00  0.19127288186859D-12
   1   1   3   1  0.30980724220594D+00 -0.17880845199909D-13
   2   1   3   1  0.90004228539113D+00 -0.19126606137176D-12
   3   1   3   1 -0.21098919812790D+01 -0.17857582309510D-16
 Band:  2
   1   1   1   1  0.11578625096706D+01 -0.14195726392378D-16
   2   1   1   1 -0.70501488296181D+00  0.80208868658654D-12
   3   1   1   1  0.25216766559452D+00  0.35049502352292D-12
   1   1   2   1 -0.70501488296181D+00 -0.80206790002908D-12
   2   1   2   1 -0.45418522045099D+00 -0.58569464747209D-16
   3   1   2   1 -0.70501488306038D+00  0.92009854369074D-12
   1   1   3   1  0.25216766559452D+00 -0.35051513052624D-12
   2   1   3   1 -0.70501488306038D+00 -0.92006898920790D-12
   3   1   3   1  0.11578625098649D+01 -0.25911349499055D-16
 Band:  3
   1   1   1   1  0.14936413815113D+00 -0.22528177956098D-16
   2   1   1   1 -0.64500637996215D+00  0.36754129143306D-03
   3   1   1   1 -0.24653942666284D+00 -0.79570419060670D-13
   1   1   2   1 -0.64500637996215D+00 -0.36754129143305D-03
   2   1   2   1  0.10379271344899D+01 -0.14175996344807D-16
   3   1   2   1  0.74218151276895D+00  0.36754129164553D-03
   1   1   3   1 -0.24653942666284D+00  0.79593350148376D-13
   2   1   3   1  0.74218151276895D+00 -0.36754129164553D-03
   3   1   3   1  0.14936413715294D+00 -0.16031686713564D-16
 Band:  4
   1   1   1   1  0.11728012562687D+00 -0.21444094897621D-16
   2   1   1   1  0.72376826342424D+00 -0.36754129157968D-03
   3   1   1   1 -0.17762891605414D+00  0.26687362757034D-12
   1   1   2   1  0.72376826342424D+00  0.36754129157968D-03
   2   1   2   1  0.12592373681014D+01 -0.13838414010657D-16
   3   1   2   1 -0.66341962926784D+00 -0.36754129154590D-03
   1   1   3   1 -0.17762891605414D+00 -0.26685868230926D-12
   2   1   3   1 -0.66341962926784D+00  0.36754129154591D-03
   3   1   3   1  0.11728012654778D+00 -0.18250092472202D-16
 K-point: -2.50000000E-01 -2.50000000E-01  2.50000000E-01
 Band:  1
   1   1   1   1 -0.16584069924571D+01 -0.79080429571188D-17
   2   1   1   1  0.66325686658721D+00 -0.25935328344311D-14
   3   1   1   1  0.44413076176226D+00 -0.11633318989356D-13
   1   1   2   1  0.66325686658721D+00  0.25981318245210D-14
   2   1   2   1 -0.20128523088554D+01 -0.89131420505572D-17
   3   1   2   1  0.55101921888580D+00  0.27043805916889D-13
   1   1   3   1  0.44413076176226D+00  0.11645840355891D-13
   2   1   3   1  0.55101921888580D+00 -0.27041858639219D-13
   3   1   3   1 -0.16584069920786D+01 -0.16483911921623D-16
 Band:  2
   1   1   1   1 -0.31273418015187D+01 -0.33658615289762D-16
   2   1   1   1 -0.19222254744080D+00  0.42730030061975D-12
   3   1   1   1  0.11487585469039D+01  0.72907380236422D-12
   1   1   2   1 -0.19222254744080D+00 -0.42736942586603D-12
   2   1   2   1 -0.34397173293822D+01 -0.14808559032881D-15
   3   1   2   1  0.21708052835362D+01 -0.17002166987379D-12
   1   1   3   1  0.11487585469039D+01 -0.72903677437457D-12
   2   1   3   1  0.21708052835362D+01  0.17011255573971D-12
   3   1   3   1 -0.31273418004281D+01 -0.43742150881376D-16
 Band:  3
   1   1   1   1 -0.67293793774388D+00 -0.10109298520811D-15
   2   1   1   1  0.13434538592264D+00 -0.27641096698765D-04
   3   1   1   1 -0.56424168281011D+00  0.20540458852215D-03
   1   1   2   1  0.13434538592264D+00  0.27641096698816D-04
   2   1   2   1 -0.74118220451577D+00 -0.46289185897145D-16
   3   1   2   1  0.39707808666510D+00 -0.17776344070317D-03
   1   1   3   1 -0.56424168281011D+00 -0.20540458852226D-03
   2   1   3   1  0.39707808666510D+00  0.17776344070321D-03
   3   1   3   1  0.19667154175985D+01 -0.65528877549536D-16
 Band:  4
   1   1   1   1  0.19065865010959D+01 -0.79527473431453D-16
   2   1   1   1 -0.17538285989531D+01  0.27641108357628D-04
   3   1   1   1 -0.45348772388515D+00 -0.20540458350438D-03
   1   1   2   1 -0.17538285989531D+01 -0.27641108357399D-04
   2   1   2   1  0.45429013790634D+00 -0.24409366663545D-15
   3   1   2   1  0.10064862877832D+01  0.17776343229847D-03
   1   1   3   1 -0.45348772388515D+00  0.20540458350427D-03
   2   1   3   1  0.10064862877832D+01 -0.17776343229822D-03
   3   1   3   1 -0.73306685484904D+00 -0.94964807713840D-16
 K-point:  2.50000000E-01  2.50000000E-01 -2.50000000E-01
 Band:  1
   1   1   1   1 -0.16584069870686D+01 -0.18444894469255D-16
   2   1   1   1  0.66325685223953D+00  0.25440704741483D-14
   3   1   1   1  0.44413076642029D+00  0.11578352479554D-13
   1   1   2   1  0.66325685223953D+00 -0.25366050294865D-14
   2   1   2   1 -0.20128522613965D+01 -0.19151918253582D-17
   3   1   2   1  0.55101920180807D+00 -0.27014344274612D-13
   1   1   3   1  0.44413076642029D+00 -0.11559270118489D-13
   2   1   3   1  0.55101920180807D+00  0.27009543121062D-13
   3   1   3   1 -0.16584069859682D+01 -0.65506567605894D-17
 Band:  2
   1   1   1   1 -0.31273417842593D+01 -0.16793115814851D-16
   2   1   1   1 -0.19222258706620D+00 -0.42447108702049D-12
   3   1   1   1  0.11487585583560D+01 -0.72766203700591D-12
   1   1   2   1 -0.19222258706620D+00  0.42438395134428D-12
   2   1   2   1 -0.34397172150823D+01 -0.43771264809719D-16
   3   1   2   1  0.21708052444974D+01  0.17290894720967D-12
   1   1   3   1  0.11487585583560D+01  0.72770388268987D-12
   2   1   3   1  0.21708052444974D+01 -0.17286558930343D-12
   3   1   3   1 -0.31273417865356D+01 -0.54129794404801D-17
 Band:  3
   1   1   1   1 -0.67274172258457D+00 -0.11743744573923D-15
   2   1   1   1  0.13419667154553D+00 -0.25452032698069D-06
   3   1   1   1 -0.56457045230670D+00  0.18913742687662D-05
   1   1   2   1  0.13419667154553D+00  0.25452032704728D-06
   2   1   2   1 -0.74107697865445D+00 -0.20168247733883D-16
   3   1   2   1  0.39736883005422D+00 -0.16368479928108D-05
   1   1   3   1 -0.56457045230670D+00 -0.18913742688725D-05
   2   1   3   1  0.39736883005422D+00  0.16368479928313D-05
   3   1   3   1  0.19668761857732D+01 -0.19159721394658D-16
 Band:  4
   1   1   1   1  0.19063902730522D+01 -0.60142848956545D-16
   2   1   1   1 -0.17536798551404D+01  0.25450866902697D-06
   3   1   1   1 -0.45315896309975D+00 -0.18913792886412D-05
   1   1   2   1 -0.17536798551404D+01 -0.25450866879366D-06
   2   1   2   1  0.45418482483151D+00 -0.24208268183409D-15
   3   1   2   1  0.10061955739953D+01  0.16368563949674D-05
   1   1   3   1 -0.45315896309975D+00  0.18913792884991D-05
   2   1   3   1  0.10061955739953D+01 -0.16368563946792D-05
   3   1   3   1 -0.73322763266473D+00 -0.10244814412919D-15
 K-point: -2.50000000E-01  2.50000000E-01 -2.50000000E-01
 Band:  1
   1   1   1   1 -0.21098919728464D+01 -0.18496379185581D-16
   2   1   1   1  0.90004226177324D+00 -0.27969368407308D-13
   3   1   1   1  0.30980725065840D+00 -0.18174659777747D-13
   1   1   2   1  0.90004226177324D+00  0.27967727813974D-13
   2   1   2   1 -0.38061138576696D+01 -0.32298286918901D-17
   3   1   2   1  0.90004226179886D+00 -0.19067792417197D-12
   1   1   3   1  0.30980725065840D+00  0.18193911746587D-13
   2   1   3   1  0.90004226179886D+00  0.19067833822558D-12
   3   1   3   1 -0.21098919728984D+01 -0.14679847910210D-16
 Band:  2
   1   1   1   1  0.11578625231526D+01 -0.24910682377451D-16
   2   1   1   1 -0.70501492575814D+00 -0.80053705682417D-12
   3   1   1   1  0.25216767921204D+00 -0.35304447497184D-12
   1   1   2   1 -0.70501492575814D+00  0.80056112935382D-12
   2   1   2   1 -0.45418508562963D+00 -0.32276966891752D-16
   3   1   2   1 -0.70501492585671D+00 -0.91915392483527D-12
   1   1   3   1  0.25216767921204D+00  0.35298102059472D-12
   2   1   3   1 -0.70501492585671D+00  0.91918246986741D-12
   3   1   3   1  0.11578625233468D+01 -0.18281615359722D-16
 Band:  3
   1   1   1   1  0.14907885381352D+00 -0.28307920506578D-16
   2   1   1   1 -0.64521420307441D+00 -0.42196863215493D-03
   3   1   1   1 -0.24592669581280D+00  0.25052879663017D-11
   1   1   2   1 -0.64521420307441D+00  0.42196863215494D-03
   2   1   2   1  0.10398949207938D+01 -0.15409964530279D-16
   3   1   2   1  0.74206192099668D+00 -0.42196863236557D-03
   1   1   3   1 -0.24592669581280D+00 -0.25052642756372D-11
   2   1   3   1  0.74206192099668D+00  0.42196863236558D-03
   3   1   3   1  0.14907884155832D+00 -0.19280163945402D-16
 Band:  4
   1   1   1   1  0.11756539800763D+00 -0.17702406262464D-16
   2   1   1   1  0.72397612774394D+00  0.42196863229699D-03
   3   1   1   1 -0.17824166211444D+00 -0.26840504670653D-11
   1   1   2   1  0.72397612774394D+00 -0.42196863229698D-03
   2   1   2   1  0.12572694568214D+01 -0.14021148134137D-16
   3   1   2   1 -0.66329999628814D+00  0.42196863226228D-03
   1   1   3   1 -0.17824166211444D+00  0.26840749073540D-11
   2   1   3   1 -0.66329999628814D+00 -0.42196863226226D-03
   3   1   3   1  0.11756541018555D+00 -0.26847132779699D-16
 K-point:  2.50000000E-01 -2.50000000E-01 -2.50000000E-01
 Band:  1
   1   1   1   1 -0.16584069920576D+01 -0.25457820495073D-16
   2   1   1   1  0.55101921887791D+00  0.55610519683228D-13
   3   1   1   1  0.44413076176220D+00  0.11887360507767D-12
   1   1   2   1  0.55101921887791D+00 -0.55602237531949D-13
   2   1   2   1 -0.20128523088609D+01 -0.10810315308497D-16
   3   1   2   1  0.66325686660063D+00 -0.19748229167465D-12
   1   1   3   1  0.44413076176220D+00 -0.11886137976012D-12
   2   1   3   1  0.66325686660063D+00  0.19748216656914D-12
   3   1   3   1 -0.16584069924784D+01 -0.98088905099904D-17
 Band:  2
   1   1   1   1 -0.31273418006236D+01 -0.48641857347736D-16
   2   1   1   1  0.21708052837587D+01 -0.35922231675264D-11
   3   1   1   1  0.11487585469030D+01 -0.20189433290728D-11
   1   1   2   1  0.21708052837587D+01  0.35923117431242D-11
   2   1   2   1 -0.34397173296309D+01 -0.11829828713184D-15
   3   1   2   1 -0.19222254741449D+00  0.22926490326783D-11
   1   1   3   1  0.11487585469030D+01  0.20189740903844D-11
   2   1   3   1 -0.19222254741449D+00 -0.22926887536187D-11
   3   1   3   1 -0.31273418013213D+01 -0.34930564694307D-16
 Band:  3
   1   1   1   1 -0.69538845545481D+00 -0.12188694406161D-15
   2   1   1   1  0.10693953696516D+01  0.96341397249440D-05
   3   1   1   1 -0.52538642542634D+00 -0.11132200259598D-04
   1   1   2   1  0.10693953696516D+01 -0.96341397247198D-05
   2   1   2   1  0.47612789862714D+00 -0.15219602912332D-15
   3   1   2   1 -0.17845039840120D+01  0.14980552055105D-05
   1   1   3   1 -0.52538642542634D+00  0.11132200259483D-04
   2   1   3   1 -0.17845039840120D+01 -0.14980552053282D-05
   3   1   3   1  0.19469764807725D+01 -0.71854499437104D-16
 Band:  4
   1   1   1   1  0.19290370185473D+01 -0.53391666968099D-16
   2   1   1   1  0.33416900453895D+00 -0.96341530078607D-05
   3   1   1   1 -0.49234298126958D+00  0.11132201331499D-04
   1   1   2   1  0.33416900453895D+00  0.96341530078920D-05
   2   1   2   1 -0.76301996506624D+00 -0.43816863814593D-16
   3   1   2   1  0.16502077106745D+00 -0.14980455382974D-05
   1   1   3   1 -0.49234298126958D+00 -0.11132201331594D-04
   2   1   3   1  0.16502077106745D+00  0.14980455383538D-05
   3   1   3   1 -0.71332791776197D+00 -0.11992222208573D-15
 K-point: -2.50000000E-01 -2.50000000E-01 -2.50000000E-01
 Band:  1
   1   1   1   1 -0.26102084729265D+01 -0.42241387495838D-16
   2   1   1   1  0.68414372429543D+00  0.57307552331906D-13
   3   1   1   1  0.12419207245616D+01 -0.34250910009698D-14
   1   1   2   1  0.68414372429543D+00 -0.57267548955277D-13
   2   1   2   1 -0.36318985849849D+01 -0.44290946572844D-16
   3   1   2   1  0.68414372427060D+00 -0.68697187373752D-13
   1   1   3   1  0.12419207245616D+01  0.34263863877613D-14
   2   1   3   1  0.68414372427060D+00  0.68726482379010D-13
   3   1   3   1 -0.26102084728772D+01 -0.35002774847532D-16
 Band:  2
   1   1   1   1 -0.42481051510178D+00 -0.24913780077591D-16
   2   1   1   1  0.17223919248536D+00 -0.30372728374359D-02
   3   1   1   1  0.76620684821228D-01  0.15563753220250D-03
   1   1   2   1  0.17223919248536D+00  0.30372728374359D-02
   2   1   2   1 -0.19632175982534D+01 -0.73918871240988D-16
   3   1   2   1  0.47648412189928D+00 -0.31750831635040D-01
   1   1   3   1  0.76620684821228D-01 -0.15563753220250D-03
   2   1   3   1  0.47648412189928D+00  0.31750831635040D-01
   3   1   3   1 -0.10215107135140D+01 -0.56539449229225D-17
 Band:  3
   1   1   1   1 -0.75627401577546D+00 -0.30040235232611D-16
   2   1   1   1  0.36293584561893D+00 -0.68091657126606D-02
   3   1   1   1  0.24498862295550D-01  0.86159455836765D-05
   1   1   2   1  0.36293584561893D+00  0.68091657126606D-02
   2   1   2   1  0.16684909975537D+01 -0.95610961503697D-17
   3   1   2   1  0.36426560896461D+00  0.30294963439346D-01
   1   1   3   1  0.24498862295550D-01 -0.86159455836225D-05
   2   1   3   1  0.36426560896461D+00 -0.30294963439346D-01
   3   1   3   1 -0.75633949917915D+00 -0.27960981105338D-16
 Band:  4
   1   1   1   1 -0.10239067224960D+01 -0.51685950441457D-17
   2   1   1   1  0.46009398062416D+00  0.98464385497271D-02
   3   1   1   1  0.11333342419387D+00 -0.16425347804163D-03
   1   1   2   1  0.46009398062416D+00 -0.98464385497271D-02
   2   1   2   1 -0.19487212115798D+01 -0.80580573612907D-16
   3   1   2   1  0.15451928789838D+00  0.14558681952068D-02
   1   1   3   1  0.11333342419387D+00  0.16425347804164D-03
   2   1   3   1  0.15451928789838D+00 -0.14558681952068D-02
   3   1   3   1 -0.42714104074366D+00 -0.28557715816679D-16
  
 2nd eigenvalue derivatives   - # elements :       9
 qpt  5.00000000E-01  5.00000000E-01  0.00000000E+00   1.0
 K-point:  2.50000000E-01  2.50000000E-01  2.50000000E-01
 Band:  1
   1   1   1   1 -0.36318984128939D+01  0.42249462122669D-16
   2   1   1   1  0.22636113289699D+01  0.57063933847724D-14
   3   1   1   1  0.68414369401722D+00 -0.25984876501112D-13
   1   1   2   1  0.22636113289699D+01 -0.57503265395610D-14
   2   1   2   1 -0.36318984129568D+01  0.45050232711295D-16
   3   1   2   1  0.68414369404897D+00 -0.89008300811341D-14
   1   1   3   1  0.68414369401722D+00  0.25967135864083D-13
   2   1   3   1  0.68414369404897D+00  0.88848195514145D-14
   3   1   3   1 -0.26102084364179D+01 -0.55944435668119D-17
 Band:  2
   1   1   1   1 -0.18092790694691D+01 -0.67516996225640D-17
   2   1   1   1  0.13326158732755D+01  0.29696724335189D-02
   3   1   1   1  0.44983556167130D+00 -0.13087616472705D-01
   1   1   2   1  0.13326158732755D+01 -0.29696724335189D-02
   2   1   2   1 -0.17400686742824D+01 -0.12942663434046D-17
   3   1   2   1  0.24064158305792D+00  0.11761356081074D-01
   1   1   3   1  0.44983556167130D+00  0.13087616472705D-01
   2   1   3   1  0.24064158305792D+00 -0.11761356081074D-01
   3   1   3   1 -0.98669932420203D+00 -0.15246593050577D-19
 Band:  3
   1   1   1   1 -0.12211672582472D+01  0.28070671872008D-17
   2   1   1   1  0.31134111783742D+00  0.52095267883041D-02
   3   1   1   1  0.19444031970965D+00  0.14627399562576D-01
   1   1   2   1  0.31134111783742D+00 -0.52095267883041D-02
   2   1   2   1 -0.90524911663230D+00  0.25546513689190D-17
   3   1   2   1  0.34940831160651D+00 -0.13458634306168D-01
   1   1   3   1  0.19444031970965D+00 -0.14627399562576D-01
   2   1   3   1  0.34940831160651D+00  0.13458634306168D-01
   3   1   3   1 -0.51794285210352D+00 -0.37947076036993D-17
 Band:  4
   1   1   1   1  0.78699842475669D+00  0.14865428224313D-16
   2   1   1   1 -0.13910469112774D+01 -0.81791992216992D-02
   3   1   1   1  0.35099315287701D+00 -0.15397830889499D-02
   1   1   2   1 -0.13910469112774D+01  0.81791992216991D-02
   2   1   2   1  0.40186988805665D+00  0.17990979799681D-16
   3   1   2   1  0.40521913953713D+00  0.16972782262957D-02
   1   1   3   1  0.35099315287701D+00  0.15397830889499D-02
   2   1   3   1  0.40521913953713D+00 -0.16972782262957D-02
   3   1   3   1 -0.70034909853439D+00  0.24521603823012D-18
 K-point: -2.50000000E-01  2.50000000E-01  2.50000000E-01
 Band:  1
   1   1   1   1 -0.20128523043641D+01 -0.72990020087554D-17
   2   1   1   1  0.79857635600354D+00 -0.93918131172847D-15
   3   1   1   1  0.55101922251882D+00 -0.27835979369869D-14
   1   1   2   1  0.79857635600354D+00  0.93560541650011D-15
   2   1   2   1 -0.20128522623178D+01  0.15583999930498D-17
   3   1   2   1  0.66325685178748D+00  0.11937570648764D-14
   1   1   3   1  0.55101922251882D+00  0.27859242123299D-14
   2   1   3   1  0.66325685178748D+00 -0.11851000491101D-14
   3   1   3   1 -0.16584069871485D+01 -0.12588023140413D-16
 Band:  2
   1   1   1   1 -0.34397173181584D+01 -0.31057164188813D-16
   2   1   1   1  0.14611350760763D+01 -0.13530572408513D-12
   3   1   1   1  0.21708052944866D+01 -0.85629410404345D-12
   1   1   2   1  0.14611350760763D+01  0.13528119880057D-12
   2   1   2   1 -0.34397172148887D+01  0.69961077556528D-16
   3   1   2   1 -0.19222258692918D+00  0.10753148514499D-11
   1   1   3   1  0.21708052944866D+01  0.85636141367961D-12
   2   1   3   1 -0.19222258692918D+00 -0.10753874147454D-11
   3   1   3   1 -0.31273417843228D+01 -0.10643171206773D-16
 Band:  3
   1   1   1   1 -0.76348594237669D+00 -0.12792980139121D-16
   2   1   1   1  0.26505094102153D+00  0.13231420397192D-04
   3   1   1   1  0.33276455078156D+00 -0.15667644126156D-04
   1   1   2   1  0.26505094102153D+00 -0.13231420397204D-04
   2   1   2   1  0.46589008047146D+00 -0.10873004105570D-15
   3   1   2   1 -0.17701726109711D+01 -0.24362223442595D-05
   1   1   3   1  0.33276455078156D+00  0.15667644126141D-04
   2   1   3   1 -0.17701726109711D+01  0.24362223443876D-05
   3   1   3   1  0.19281286745773D+01 -0.25537292279721D-16
 Band:  4
   1   1   1   1  0.47659386605777D+00 -0.49922070503249D-17
   2   1   1   1  0.23775967583006D+00 -0.13231421609008D-04
   3   1   1   1  0.10707998156280D+01  0.15667646205997D-04
   1   1   2   1  0.23775967583006D+00  0.13231421608969D-04
   2   1   2   1 -0.75278223466341D+00  0.29008926297214D-17
   3   1   2   1  0.15068942670514D+00  0.24362200601545D-05
   1   1   3   1  0.10707998156280D+01 -0.15667646205927D-04
   2   1   3   1  0.15068942670514D+00 -0.24362200601507D-05
   3   1   3   1 -0.69448012383079D+00 -0.36417312200375D-16
 K-point:  2.50000000E-01 -2.50000000E-01  2.50000000E-01
 Band:  1
   1   1   1   1 -0.20128522623146D+01  0.36775104011106D-17
   2   1   1   1  0.79857635600319D+00  0.90416939992089D-14
   3   1   1   1  0.66325685178382D+00 -0.29081627966903D-13
   1   1   2   1  0.79857635600319D+00 -0.90465374202397D-14
   2   1   2   1 -0.20128523043668D+01 -0.56778115841454D-17
   3   1   2   1  0.55101922251827D+00  0.36321677211875D-13
   1   1   3   1  0.66325685178382D+00  0.29083067892650D-13
   2   1   3   1  0.55101922251827D+00 -0.36311804093737D-13
   3   1   3   1 -0.16584069871439D+01 -0.15505864644764D-16
 Band:  2
   1   1   1   1 -0.34397172150376D+01  0.20771633202678D-16
   2   1   1   1  0.14611350760752D+01 -0.19358604049632D-12
   3   1   1   1 -0.19222258688465D+00  0.83294453484949D-12
   1   1   2   1  0.14611350760752D+01  0.19363083072557D-12
   2   1   2   1 -0.34397173180015D+01 -0.69066273440476D-16
   3   1   2   1  0.21708052943711D+01 -0.98842932386918D-12
   1   1   3   1 -0.19222258688465D+00 -0.83301346870392D-12
   2   1   3   1  0.21708052943711D+01  0.98848212409956D-12
   3   1   3   1 -0.31273417842483D+01 -0.83397098445562D-17
 Band:  3
   1   1   1   1  0.23704766085712D+00 -0.65795666458142D-16
   2   1   1   1 -0.62474117637646D+00  0.44125423364613D-03
   3   1   1   1 -0.13487478176996D+01  0.81245430291983D-04
   1   1   2   1 -0.62474117637646D+00 -0.44125423364603D-03
   2   1   2   1  0.16331396209010D+00 -0.27811903306621D-16
   3   1   2   1  0.16940699001952D+01  0.52249977864162D-03
   1   1   3   1 -0.13487478176996D+01 -0.81245430291980D-04
   2   1   3   1  0.16940699001952D+01 -0.52249977864161D-03
   3   1   3   1  0.13285529624271D+01 -0.21641559453449D-16
 Band:  4
   1   1   1   1 -0.52393981521148D+00 -0.47879490255615D-16
   2   1   1   1  0.11275517932287D+01 -0.44125423473886D-03
   3   1   1   1 -0.27073536645883D+00 -0.81245430175618D-04
   1   1   2   1  0.11275517932287D+01  0.44125423473877D-03
   2   1   2   1 -0.45020603824219D+00 -0.28703829000080D-16
   3   1   2   1 -0.29050553383882D+00 -0.52249977858858D-03
   1   1   3   1 -0.27073536645883D+00  0.81245430175692D-04
   2   1   3   1 -0.29050553383882D+00  0.52249977858865D-03
   3   1   3   1 -0.94904411732298D-01 -0.23870367835471D-16
 K-point: -2.50000000E-01 -2.50000000E-01  2.50000000E-01
 Band:  1
   1   1   1   1 -0.38061139252329D+01 -0.11035054710093D-16
   2   1   1   1  0.20060295249889D+01  0.68168384160237D-13
   3   1   1   1  0.90004228469814D+00 -0.41315060636032D-13
   1   1   2   1  0.20060295249889D+01 -0.68168817052168D-13
   2   1   2   1 -0.38061139252152D+01 -0.66783152539206D-17
   3   1   2   1  0.90004228469039D+00  0.91911046075606D-13
   1   1   3   1  0.90004228469814D+00  0.41322223082535D-13
   2   1   3   1  0.90004228469039D+00 -0.91901591740758D-13
   3   1   3   1 -0.21098919810425D+01 -0.14760230878836D-16
 Band:  2
   1   1   1   1 -0.45418522155204D+00 -0.80528640978484D-16
   2   1   1   1  0.18642145776528D+01  0.85621360859813D-13
   3   1   1   1 -0.70501488327235D+00  0.62051021810173D-12
   1   1   2   1  0.18642145776528D+01 -0.85574279884734D-13
   2   1   2   1 -0.45418522160371D+00 -0.66720201518405D-16
   3   1   2   1 -0.70501488324368D+00  0.97065194276158D-12
   1   1   3   1 -0.70501488327235D+00 -0.62047302068946D-12
   2   1   3   1 -0.70501488324368D+00 -0.97061807195784D-12
   3   1   3   1  0.11578625105915D+01 -0.22674947412625D-16
 Band:  3
   1   1   1   1 -0.69453538527232D+00 -0.27097612995347D-16
   2   1   1   1  0.30907492460681D+00  0.39579094667738D-12
   3   1   1   1  0.15976138616131D+00  0.12504388514659D-03
   1   1   2   1  0.30907492460681D+00 -0.39576062366549D-12
   2   1   2   1 -0.69453538527479D+00 -0.29236948559232D-16
   3   1   2   1  0.22569923423119D+00 -0.12504388595698D-03
   1   1   3   1  0.15976138616131D+00 -0.12504388514659D-03
   2   1   3   1  0.22569923423119D+00  0.12504388595699D-03
   3   1   3   1  0.40052445042664D+00 -0.27345268203411D-16
 Band:  4
   1   1   1   1  0.29916998889866D+01 -0.25533394604675D-16
   2   1   1   1 -0.27637628851016D+01  0.60347197633066D-13
   3   1   1   1 -0.80999502163665D-01 -0.12504388228038D-03
   1   1   2   1 -0.27637628851016D+01 -0.60302538456196D-13
   2   1   2   1  0.29916998889815D+01 -0.28412578292810D-16
   3   1   2   1 -0.14693735023039D+00  0.12504388932540D-03
   1   1   3   1 -0.80999502163665D-01  0.12504388228039D-03
   2   1   3   1 -0.14693735023039D+00 -0.12504388932539D-03
   3   1   3   1 -0.13388018681144D+00 -0.14528106371276D-16
 K-point:  2.50000000E-01  2.50000000E-01 -2.50000000E-01
 Band:  1
   1   1   1   1 -0.38061138542357D+01  0.66663643394770D-17
   2   1   1   1  0.20060294876234D+01 -0.68196784451077D-13
   3   1   1   1  0.90004226787369D+00  0.41187718206909D-13
   1   1   2   1  0.20060294876234D+01  0.68186530030647D-13
   2   1   2   1 -0.38061138542179D+01  0.48305561615610D-17
   3   1   2   1  0.90004226786594D+00 -0.91260905198776D-13
   1   1   3   1  0.90004226787369D+00 -0.41195933541202D-13
   2   1   3   1  0.90004226786594D+00  0.91258130253886D-13
   3   1   3   1 -0.21098919642814D+01 -0.29162534535189D-17
 Band:  2
   1   1   1   1 -0.45418506889333D+00  0.40032140445731D-16
   2   1   1   1  0.18642144791978D+01 -0.85319723737326D-13
   3   1   1   1 -0.70501491037301D+00 -0.61867754110155D-12
   1   1   2   1  0.18642144791978D+01  0.85231503460849D-13
   2   1   2   1 -0.45418506894500D+00  0.48674598668987D-16
   3   1   2   1 -0.70501491034433D+00 -0.96832543584735D-12
   1   1   3   1 -0.70501491037301D+00  0.61866437057865D-12
   2   1   3   1 -0.70501491034433D+00  0.96829896871564D-12
   3   1   3   1  0.11578625375554D+01  0.28396559192186D-16
 Band:  3
   1   1   1   1 -0.69451063595569D+00  0.45314618656638D-17
   2   1   1   1  0.30905429385181D+00 -0.39448872301344D-12
   3   1   1   1  0.15956359213572D+00  0.11514103053535D-05
   1   1   2   1  0.30905429385181D+00  0.39445820746430D-12
   2   1   2   1 -0.69451063595816D+00  0.50612287066964D-17
   3   1   2   1  0.22589290969676D+00 -0.11514094975736D-05
   1   1   3   1  0.15956359213572D+00 -0.11514103053570D-05
   2   1   3   1  0.22589290969676D+00  0.11514094975727D-05
   3   1   3   1  0.40052086569579D+00  0.15157811238444D-16
 Band:  4
   1   1   1   1  0.29916750002079D+01  0.18306817416684D-16
   2   1   1   1 -0.27637421692295D+01 -0.62357058003282D-13
   3   1   1   1 -0.80801680968295D-01 -0.11514131728253D-05
   1   1   2   1 -0.27637421692295D+01  0.62317932519954D-13
   2   1   2   1  0.29916750002028D+01  0.18072641034307D-16
   3   1   2   1 -0.14713099852618D+00  0.11514061272772D-05
   1   1   3   1 -0.80801680968295D-01  0.11514131728197D-05
   2   1   3   1 -0.14713099852618D+00 -0.11514061272783D-05
   3   1   3   1 -0.13387662599430D+00  0.23624591589171D-17
 K-point: -2.50000000E-01  2.50000000E-01 -2.50000000E-01
 Band:  1
   1   1   1   1 -0.20128523043664D+01 -0.75868272508747D-17
   2   1   1   1  0.79857635600319D+00 -0.90691333098111D-14
   3   1   1   1  0.66325687244257D+00  0.29083209400811D-13
   1   1   2   1  0.79857635600319D+00  0.90701162236057D-14
   2   1   2   1 -0.20128522623150D+01 -0.26992567551248D-18
   3   1   2   1  0.55101920114112D+00 -0.36398388107646D-13
   1   1   3   1  0.66325687244257D+00 -0.29076492792055D-13
   2   1   3   1  0.55101920114112D+00  0.36390046992108D-13
   3   1   3   1 -0.16584069864220D+01  0.76455262839225D-18
 Band:  2
   1   1   1   1 -0.34397173182785D+01 -0.10259194086272D-15
   2   1   1   1  0.14611350760752D+01  0.19390349808170D-12
   3   1   1   1 -0.19222253354617D+00 -0.83465354593597D-12
   1   1   2   1  0.14611350760752D+01 -0.19375110493489D-12
   2   1   2   1 -0.34397172147606D+01 -0.53460394189852D-16
   3   1   2   1  0.21708052444372D+01  0.98651089418796D-12
   1   1   3   1 -0.19222253354617D+00  0.83462694393053D-12
   2   1   3   1  0.21708052444372D+01 -0.98646886780129D-12
   3   1   3   1 -0.31273417876152D+01 -0.25536352835627D-16
 Band:  3
   1   1   1   1  0.23641393326453D+00 -0.67571510736730D-16
   2   1   1   1 -0.62479689462485D+00 -0.50659734876870D-03
   3   1   1   1 -0.13477460397595D+01 -0.93276654925597D-04
   1   1   2   1 -0.62479689462485D+00  0.50659734876884D-03
   2   1   2   1  0.16399140051792D+00 -0.82584180418800D-16
   3   1   2   1  0.16945111289096D+01 -0.59987413857963D-03
   1   1   3   1 -0.13477460397595D+01  0.93276654925570D-04
   2   1   3   1  0.16945111289096D+01  0.59987413857966D-03
   3   1   3   1  0.13271840406600D+01 -0.13298549620791D-16
 Band:  4
   1   1   1   1 -0.52330600949467D+00 -0.17952133082010D-15
   2   1   1   1  0.11276075114772D+01  0.50659734985334D-03
   3   1   1   1 -0.27173718506810D+00  0.93276654826205D-04
   1   1   2   1  0.11276075114772D+01 -0.50659734985362D-03
   2   1   2   1 -0.45088355479430D+00 -0.14475299407186D-15
   3   1   2   1 -0.29094672509640D+00  0.59987413851350D-03
   1   1   3   1 -0.27173718506810D+00 -0.93276654825864D-04
   2   1   3   1 -0.29094672509640D+00 -0.59987413851318D-03
   3   1   3   1 -0.93535486721776D-01 -0.17697245978930D-15
 K-point:  2.50000000E-01 -2.50000000E-01 -2.50000000E-01
 Band:  1
   1   1   1   1 -0.20128522623122D+01 -0.28910482833007D-18
   2   1   1   1  0.79857635600354D+00  0.12039720742823D-14
   3   1   1   1  0.55101920114167D+00  0.25422090738255D-14
   1   1   2   1  0.79857635600354D+00 -0.11988271885185D-14
   2   1   2   1 -0.20128523043696D+01 -0.84716298948012D-17
   3   1   2   1  0.66325687244623D+00 -0.11095083827733D-14
   1   1   3   1  0.55101920114167D+00 -0.25457205264313D-14
   2   1   3   1  0.66325687244623D+00  0.11177529309415D-14
   3   1   3   1 -0.16584069864266D+01 -0.65736250366822D-17
 Band:  2
   1   1   1   1 -0.34397172149175D+01 -0.52956591155095D-16
   2   1   1   1  0.14611350760763D+01  0.13239461256616D-12
   3   1   1   1  0.21708052445527D+01  0.86177335356031D-12
   1   1   2   1  0.14611350760763D+01 -0.13222438535081D-12
   2   1   2   1 -0.34397173181296D+01 -0.13360015039331D-15
   3   1   2   1 -0.19222253359070D+00 -0.10801527353488D-11
   1   1   3   1  0.21708052445527D+01 -0.86171328751904D-12
   2   1   3   1 -0.19222253359070D+00  0.10800865212766D-11
   3   1   3   1 -0.31273417876897D+01 -0.23699177051031D-16
 Band:  3
   1   1   1   1 -0.76301995798450D+00 -0.30443908341276D-16
   2   1   1   1  0.26383045826824D+00  0.81360973814807D-05
   3   1   1   1  0.33416900427045D+00 -0.96341489440309D-05
   1   1   2   1  0.26383045826824D+00 -0.81360973815483D-05
   2   1   2   1  0.46638153572154D+00 -0.19732967885990D-15
   3   1   2   1 -0.17708625914435D+01 -0.14980473898228D-05
   1   1   3   1  0.33416900427045D+00  0.96341489440719D-05
   2   1   3   1 -0.17708625914435D+01  0.14980473899892D-05
   3   1   3   1  0.19290370198760D+01 -0.40063599613944D-16
 Band:  4
   1   1   1   1  0.47612780354141D+00 -0.22659420514254D-15
   2   1   1   1  0.23898015858334D+00 -0.81360961751019D-05
   3   1   1   1  0.10693953995959D+01  0.96341468705862D-05
   1   1   2   1  0.23898015858334D+00  0.81360961750711D-05
   2   1   2   1 -0.75327361178931D+00 -0.32122731080704D-16
   3   1   2   1  0.15137936650837D+00  0.14980496663955D-05
   1   1   3   1  0.10693953995959D+01 -0.96341468702865D-05
   2   1   3   1  0.15137936650837D+00 -0.14980496663426D-05
   3   1   3   1 -0.69538846588607D+00 -0.11945857732283D-15
 K-point: -2.50000000E-01 -2.50000000E-01 -2.50000000E-01
 Band:  1
   1   1   1   1 -0.36318985845456D+01 -0.36373043166996D-16
   2   1   1   1  0.22636114412960D+01 -0.45525301110700D-14
   3   1   1   1  0.68414372365896D+00  0.26030269229180D-13
   1   1   2   1  0.22636114412960D+01  0.45707136968500D-14
   2   1   2   1 -0.36318985846084D+01 -0.49753109743246D-16
   3   1   2   1  0.68414372369070D+00  0.99292701944141D-14
   1   1   3   1  0.68414372365896D+00 -0.26019805586345D-13
   2   1   3   1  0.68414372369070D+00 -0.99089687072226D-14
   3   1   3   1 -0.26102084744678D+01 -0.18018368793761D-16
 Band:  2
   1   1   1   1 -0.18092759545824D+01 -0.48753310619826D-16
   2   1   1   1  0.13325804207159D+01 -0.29601374597875D-02
   3   1   1   1  0.44986454183012D+00  0.13059575028739D-01
   1   1   2   1  0.13325804207159D+01  0.29601374597876D-02
   2   1   2   1 -0.17400534474675D+01 -0.49507593459356D-16
   3   1   2   1  0.24064959788394D+00 -0.11735333686549D-01
   1   1   3   1  0.44986454183012D+00 -0.13059575028739D-01
   2   1   3   1  0.24064959788394D+00  0.11735333686549D-01
   3   1   3   1 -0.98670844470359D+00 -0.50787036726184D-17
 Band:  3
   1   1   1   1 -0.12210634868981D+01 -0.38466942508370D-16
   2   1   1   1  0.31126887664284D+00 -0.52567773669514D-02
   3   1   1   1  0.19440597490033D+00 -0.14596016938724D-01
   1   1   2   1  0.31126887664284D+00  0.52567773669514D-02
   2   1   2   1 -0.90514807844141D+00 -0.21380368903230D-16
   3   1   2   1  0.34941037124964D+00  0.13429621561031D-01
   1   1   3   1  0.19440597490033D+00  0.14596016938724D-01
   2   1   3   1  0.34941037124964D+00 -0.13429621561031D-01
   3   1   3   1 -0.51794375058618D+00 -0.12155240430454D-16
 Band:  4
   1   1   1   1  0.78689162814855D+00 -0.15139866899223D-16
   2   1   1   1 -0.13909392753208D+01  0.82169148266133D-02
   3   1   1   1  0.35099850162594D+00  0.15364419090639D-02
   1   1   2   1 -0.13909392753208D+01 -0.82169148266133D-02
   2   1   2   1  0.40175371267840D+00 -0.20767527331001D-16
   3   1   2   1  0.40520904916640D+00 -0.16942878756837D-02
   1   1   3   1  0.35099850162594D+00 -0.15364419090639D-02
   2   1   3   1  0.40520904916640D+00  0.16942878756838D-02
   3   1   3   1 -0.70033905826255D+00 -0.16821650815997D-16
  
 2nd eigenvalue derivatives   - # elements :       9
 qpt  0.00000000E+00  0.00000000E+00  5.00000000E-01   1.0
 K-point:  2.50000000E-01  2.50000000E-01  2.50000000E-01
 Band:  1
   1   1   1   1 -0.26102084539112D+01 -0.22048695001537D-16
   2   1   1   1  0.12419207351378D+01 -0.87612504355441D-14
   3   1   1   1  0.68414367692361D+00  0.60997121537901D-13
   1   1   2   1  0.12419207351378D+01  0.87799446338568D-14
   2   1   2   1 -0.26102084538865D+01 -0.18770645713805D-16
   3   1   2   1  0.68414367691162D+00  0.43939413795789D-13
   1   1   3   1  0.68414367692361D+00 -0.61021223606965D-13
   2   1   3   1  0.68414367691162D+00 -0.43944722309233D-13
   3   1   3   1 -0.36318984340259D+01  0.31908190185345D-16
 Band:  2
   1   1   1   1 -0.69567091466854D+00 -0.55556891010410D-17
   2   1   1   1 -0.40452548961432D-01 -0.10956664630438D-03
   3   1   1   1  0.36380426478337D+00  0.70885267467636D-02
   1   1   2   1 -0.40452548961432D-01  0.10956664630439D-03
   2   1   2   1 -0.78956968620145D+00 -0.54180462471121D-17
   3   1   2   1  0.23616487526180D+00  0.28858260646971D-01
   1   1   3   1  0.36380426478337D+00 -0.70885267467636D-02
   2   1   3   1  0.23616487526180D+00 -0.28858260646971D-01
   3   1   3   1  0.87149319033706D+00  0.98971564721929D-17
 Band:  3
   1   1   1   1 -0.51156662385846D+00 -0.85126811199057D-17
   2   1   1   1 -0.18956078039155D-01 -0.19220657128406D-03
   3   1   1   1  0.18546052653544D+00  0.90485322272226D-03
   1   1   2   1 -0.18956078039155D-01  0.19220657128406D-03
   2   1   2   1 -0.94017746435921D+00 -0.25050999415046D-17
   3   1   2   1  0.71269303197078D+00 -0.32582913139824D-01
   1   1   3   1  0.18546052653544D+00 -0.90485322272226D-03
   2   1   3   1  0.71269303197078D+00  0.32582913139824D-01
   3   1   3   1 -0.12673762848205D+01 -0.32053844306471D-17
 Band:  4
   1   1   1   1 -0.99775372547934D+00 -0.40505115537701D-17
   2   1   1   1  0.27386159311041D+00  0.30177321817887D-03
   3   1   1   1  0.44600425248367D+00 -0.79933799696246D-02
   1   1   2   1  0.27386159311041D+00 -0.30177321817887D-03
   2   1   2   1 -0.47524411347749D+00 -0.10430575470726D-16
   3   1   2   1  0.46411136580039D-01  0.37246524934635D-02
   1   1   3   1  0.44600425248367D+00  0.79933799696246D-02
   2   1   3   1  0.46411136580039D-01 -0.37246524934635D-02
   3   1   3   1 -0.18475647969175D+01 -0.13865982286112D-16
 K-point: -2.50000000E-01  2.50000000E-01  2.50000000E-01
 Band:  1
   1   1   1   1 -0.16584069859452D+01 -0.74039378961700D-17
   2   1   1   1  0.44413076641832D+00 -0.13130479793785D-14
   3   1   1   1  0.55101920179943D+00 -0.22663883413339D-13
   1   1   2   1  0.44413076641832D+00  0.13242810977960D-14
   2   1   2   1 -0.16584069870818D+01 -0.16275850626054D-16
   3   1   2   1  0.66325685225062D+00  0.21259393239360D-13
   1   1   3   1  0.55101920179943D+00  0.22659337862025D-13
   2   1   3   1  0.66325685225062D+00 -0.21252797739898D-13
   3   1   3   1 -0.20128522614091D+01  0.31951337850446D-18
 Band:  2
   1   1   1   1 -0.31273417866093D+01 -0.52611024989334D-17
   2   1   1   1  0.11487585583554D+01  0.22007013746841D-12
   3   1   1   1  0.21708052444509D+01 -0.13174205479214D-11
[...]
 Band:  4
   1   1   1   1 -0.99505516987233D+00 -0.43503612170981D-17
   2   1   1   1  0.27624385266108D+00  0.14349128872451D-02
   3   1   1   1  0.43477191244685D+00 -0.19023298027356D-02
   1   1   2   1  0.27624385266108D+00 -0.14349128872451D-02
   2   1   2   1 -0.17935989975105D+01 -0.73436909494001D-16
   3   1   2   1  0.13679183804187D+01 -0.17365598720121D-03
   1   1   3   1  0.43477191244685D+00  0.19023298027356D-02
   2   1   3   1  0.13679183804187D+01  0.17365598720131D-03
   3   1   3   1 -0.18483219370375D+01 -0.49427760604077D-16
  
 2nd eigenvalue derivatives   - # elements :       9
 qpt  5.00000000E-01  5.00000000E-01  5.00000000E-01   1.0
 K-point:  2.50000000E-01  2.50000000E-01  2.50000000E-01
 Band:  1
   1   1   1   1 -0.53473413310709D+01  0.62227756502645D-16
   2   1   1   1  0.17824470934901D+01 -0.19870576637710D-12
   3   1   1   1  0.17824470934913D+01 -0.16699823629758D-12
   1   1   2   1  0.17824470934901D+01  0.19864739684138D-12
   2   1   2   1 -0.53473413310807D+01  0.71204582837272D-16
   3   1   2   1  0.17824470934991D+01 -0.62388904616308D-12
   1   1   3   1  0.17824470934913D+01  0.16694031816958D-12
   2   1   3   1  0.17824470934991D+01  0.62383516263120D-12
   3   1   3   1 -0.53473413310906D+01  0.59444780905932D-16
 Band:  2
   1   1   1   1 -0.30396032390146D+00  0.11458158784644D-16
   2   1   1   1  0.39520075902027D+00  0.38264048065323D-02
   3   1   1   1 -0.49128341446138D+00  0.54322707744914D-02
   1   1   2   1  0.39520075902027D+00 -0.38264048065323D-02
   2   1   2   1  0.30019017533776D+00  0.12168263562018D-16
   3   1   2   1 -0.15003770874071D+01  0.40884947972507D-01
   1   1   3   1 -0.49128341446138D+00 -0.54322707744914D-02
   2   1   3   1 -0.15003770874071D+01 -0.40884947972507D-01
   3   1   3   1  0.35352399495901D+01  0.84005021939537D-17
 Band:  3
   1   1   1   1 -0.39133905231266D+00  0.71465691772172D-17
   2   1   1   1  0.76586927732753D-01  0.67124434828774D-02
   3   1   1   1  0.19296028008667D+00  0.29945504243325D-03
   1   1   2   1  0.76586927732753D-01 -0.67124434828774D-02
   2   1   2   1  0.23663695640154D+01  0.46473521442291D-17
   3   1   2   1  0.81343299528444D-01 -0.41116444182282D-01
   1   1   3   1  0.19296028008667D+00 -0.29945504243326D-03
   2   1   3   1  0.81343299528444D-01  0.41116444182282D-01
   3   1   3   1 -0.39091093879228D+00  0.64083865811300D-17
 Band:  4
   1   1   1   1  0.35978144584461D+01  0.86383861032342D-17
   2   1   1   1 -0.14392927036744D+01 -0.10538848289251D-01
   3   1   1   1 -0.66918188254182D+00 -0.57317258167784D-02
   1   1   2   1 -0.14392927036744D+01  0.10538848289251D-01
   2   1   2   1  0.23595534287761D+00  0.10809199198149D-16
   3   1   2   1  0.45152877095945D+00  0.23149621031549D-03
   1   1   3   1 -0.66918188254182D+00  0.57317258167784D-02
   2   1   3   1  0.45152877095945D+00 -0.23149621031550D-03
   3   1   3   1 -0.24181392856835D+00  0.11935925071565D-16
 K-point: -2.50000000E-01  2.50000000E-01  2.50000000E-01
 Band:  1
   1   1   1   1 -0.18479914620355D+01  0.11207670855051D-17
   2   1   1   1  0.36240099408104D+00  0.75082293077501D-14
   3   1   1   1  0.36240099408679D+00 -0.52588726171647D-13
   1   1   2   1  0.36240099408104D+00 -0.75117884367542D-14
   2   1   2   1 -0.18479914141288D+01  0.97007050560064D-17
   3   1   2   1  0.11231894272852D+01  0.59929750379965D-13
   1   1   3   1  0.36240099408679D+00  0.52584841035215D-13
   2   1   3   1  0.11231894272852D+01 -0.59941437249636D-13
   3   1   3   1 -0.18479914141403D+01  0.97464657041612D-17
 Band:  2
   1   1   1   1 -0.16447596230564D+01 -0.18934543677461D-16
   2   1   1   1  0.30972076642490D+00  0.11057839390452D-12
   3   1   1   1  0.30972076634334D+00 -0.33004060270876D-12
   1   1   2   1  0.30972076642490D+00 -0.11059364100824D-12
   2   1   2   1 -0.16447594971756D+01  0.76654665881085D-16
   3   1   2   1  0.10253179641800D+01  0.44057059041689D-12
   1   1   3   1  0.30972076634334D+00  0.33001567771981D-12
   2   1   3   1  0.10253179641800D+01 -0.44067367884823D-12
   3   1   3   1 -0.16447594970093D+01  0.90357891475244D-16
 Band:  3
   1   1   1   1 -0.83614531642368D+00 -0.74324866633374D-17
   2   1   1   1  0.16133821261261D+00  0.16579887878541D-04
   3   1   1   1  0.13549657082293D+00 -0.16579888109162D-04
   1   1   2   1  0.16133821261261D+00 -0.16579887878550D-04
   2   1   2   1  0.43232919244724D+00  0.25606964048355D-16
   3   1   2   1 -0.72916397565372D+00 -0.76802904055003D-12
   1   1   3   1  0.13549657082293D+00  0.16579888109157D-04
   2   1   3   1 -0.72916397565373D+00  0.76799965544184D-12
   3   1   3   1  0.43232919229227D+00  0.24817509489179D-16
 Band:  4
   1   1   1   1  0.43232931918822D+00  0.36234132945481D-16
   2   1   1   1  0.13549654216196D+00 -0.16579887967524D-04
   3   1   1   1  0.16133818390770D+00  0.16579888396463D-04
   1   1   2   1  0.13549654216196D+00  0.16579887967524D-04
   2   1   2   1 -0.83614526989724D+00 -0.39706522287117D-17
   3   1   2   1  0.53931054374536D+00  0.39158928074553D-12
   1   1   3   1  0.16133818390770D+00 -0.16579888396476D-04
   2   1   3   1  0.53931054374536D+00 -0.39155268807518D-12
   3   1   3   1 -0.83614526965303D+00 -0.21557081151851D-16
 K-point:  2.50000000E-01 -2.50000000E-01  2.50000000E-01
 Band:  1
   1   1   1   1 -0.18479914141192D+01  0.92870670264587D-17
   2   1   1   1  0.36240099408109D+00  0.18498161802056D-13
   3   1   1   1  0.11231894272815D+01  0.12066457370647D-13
   1   1   2   1  0.36240099408109D+00 -0.18499683750783D-13
   2   1   2   1 -0.18479914620448D+01 -0.41151619439585D-18
   3   1   2   1  0.36240099409223D+00 -0.30557525880785D-13
   1   1   3   1  0.11231894272815D+01 -0.12074723758801D-13
   2   1   3   1  0.36240099409223D+00  0.30557970211537D-13
   3   1   3   1 -0.18479914141421D+01  0.82780710150524D-17
 Band:  2
   1   1   1   1 -0.16447594972469D+01  0.82430434377054D-16
   2   1   1   1  0.30972076642462D+00  0.63492263494087D-13
   3   1   1   1  0.10253179641689D+01  0.13606058663993D-12
   1   1   2   1  0.30972076642462D+00 -0.63514386322210D-13
   2   1   2   1 -0.16447596229827D+01 -0.13790064905435D-16
   3   1   2   1  0.30972076625964D+00 -0.19926434592393D-12
   1   1   3   1  0.10253179641689D+01 -0.13615752417708D-12
   2   1   3   1  0.30972076625964D+00  0.19923052014680D-12
   3   1   3   1 -0.16447594969142D+01  0.90329992110974D-16
 Band:  3
   1   1   1   1 -0.16386867398801D+00  0.92667522011989D-17
   2   1   1   1 -0.68119211899127D+00  0.55292217330840D-03
   3   1   1   1 -0.13296608186469D+00 -0.99782183742847D-13
   1   1   2   1 -0.68119211899127D+00 -0.55292217330838D-03
   2   1   2   1 -0.23994736803485D+00  0.18163887017485D-16
   3   1   2   1  0.97802687548523D+00  0.55292217301896D-03
   1   1   3   1 -0.13296608186469D+00  0.99796112352631D-13
   2   1   3   1  0.97802687548523D+00 -0.55292217301901D-03
   3   1   3   1 -0.16386867502962D+00 -0.56378512969246D-17
 Band:  4
   1   1   1   1 -0.23994740351030D+00 -0.83309925527197D-17
   2   1   1   1  0.97802687376638D+00 -0.55292217335449D-03
   3   1   1   1 -0.56887350039797D-01  0.27829894870482D-12
   1   1   2   1  0.97802687376638D+00  0.55292217335441D-03
   2   1   2   1 -0.16386862915223D+00 -0.10032109334770D-16
   3   1   2   1 -0.68119212079995D+00 -0.55292217315170D-03
   1   1   3   1 -0.56887350039797D-01 -0.27827402730145D-12
   2   1   3   1 -0.68119212079995D+00  0.55292217315174D-03
   3   1   3   1 -0.23994740229019D+00  0.28545010322470D-17
 K-point: -2.50000000E-01 -2.50000000E-01  2.50000000E-01
 Band:  1
   1   1   1   1 -0.18479914680945D+01 -0.52144677820568D-17
   2   1   1   1  0.11231894689732D+01 -0.35457845037788D-14
   3   1   1   1  0.36240098810773D+00  0.39463081061938D-13
   1   1   2   1  0.11231894689732D+01  0.35474163006544D-14
   2   1   2   1 -0.18479914681060D+01 -0.35435117777848D-17
   3   1   2   1  0.36240098811357D+00  0.31889890253516D-13
   1   1   3   1  0.36240098810773D+00 -0.39464200694081D-13
   2   1   3   1  0.36240098811357D+00 -0.31893505364787D-13
   3   1   3   1 -0.18479914200382D+01  0.87355556804064D-17
 Band:  2
   1   1   1   1 -0.16447596373770D+01 -0.60348855377644D-16
   2   1   1   1  0.10253180788073D+01 -0.13712828601235D-12
   3   1   1   1  0.30972075041419D+00  0.34715284784481D-12
   1   1   2   1  0.10253180788073D+01  0.13717878798716D-12
   2   1   2   1 -0.16447596372107D+01 -0.27009706502845D-16
   3   1   2   1  0.30972075032972D+00  0.19779908835235D-12
   1   1   3   1  0.30972075041419D+00 -0.34715937723403D-12
   2   1   3   1  0.30972075032972D+00 -0.19780676429082D-12
   3   1   3   1 -0.16447595145440D+01  0.43286181463043D-16
 Band:  3
   1   1   1   1 -0.83550753985062D+00 -0.57811930944017D-16
   2   1   1   1  0.53867278181934D+00 -0.25789558419835D-11
   3   1   1   1  0.10898318939710D+00  0.18811365914582D-03
   1   1   2   1  0.53867278181933D+00  0.25790395434500D-11
   2   1   2   1 -0.83550754005441D+00 -0.27114901070149D-16
   3   1   2   1  0.18785161814495D+00 -0.18811366009728D-03
   1   1   3   1  0.10898318939710D+00 -0.18811365914583D-03
   2   1   3   1  0.18785161814495D+00  0.18811366009730D-03
   3   1   3   1  0.43169144020430D+00 -0.25595391171200D-16
 Band:  4
   1   1   1   1  0.43169155341543D+00 -0.44056830564656D-17
   2   1   1   1 -0.72852628405904D+00  0.30590423486211D-12
   3   1   1   1  0.18785157541779D+00 -0.18811365433708D-03
   1   1   2   1 -0.72852628405904D+00 -0.30588836765860D-12
   2   1   2   1  0.43169155370849D+00 -0.15724445364282D-16
   3   1   2   1  0.10898314662570D+00  0.18811366266308D-03
   1   1   3   1  0.18785157541779D+00  0.18811365433709D-03
   2   1   3   1  0.10898314662570D+00 -0.18811366266308D-03
   3   1   3   1 -0.83550750819795D+00 -0.49301049975919D-16
 K-point:  2.50000000E-01  2.50000000E-01 -2.50000000E-01
 Band:  1
   1   1   1   1 -0.18479914141216D+01  0.73536328070230D-17
   2   1   1   1  0.11231894272777D+01  0.35976079603270D-14
   3   1   1   1  0.36240099408682D+00 -0.39307620531943D-13
   1   1   2   1  0.11231894272777D+01 -0.36063693758291D-14
   2   1   2   1 -0.18479914141330D+01  0.90019253158956D-17
   3   1   2   1  0.36240099409266D+00 -0.31790894220985D-13
   1   1   3   1  0.36240099408682D+00  0.39296815214159D-13
   2   1   3   1  0.36240099409266D+00  0.31782421508809D-13
   3   1   3   1 -0.18479914620546D+01  0.26134474811574D-17
 Band:  2
   1   1   1   1 -0.16447594971553D+01  0.77943308836466D-16
   2   1   1   1  0.10253179641598D+01  0.13587613020721D-12
   3   1   1   1  0.30972076634311D+00 -0.34802704376111D-12
   1   1   2   1  0.10253179641598D+01 -0.13597514606817D-12
   2   1   2   1 -0.16447594969890D+01  0.72643677085218D-16
   3   1   2   1  0.30972076625864D+00 -0.20007640914295D-12
   1   1   3   1  0.30972076634311D+00  0.34801590663881D-12
   2   1   3   1  0.30972076625864D+00  0.20006406106481D-12
   3   1   3   1 -0.16447596229119D+01 -0.24294504996720D-16
 Band:  3
   1   1   1   1 -0.83549899776861D+00 -0.26125449128109D-16
   2   1   1   1  0.53866427160252D+00  0.22945358916561D-11
   3   1   1   1  0.10874903047406D+00  0.17321583216893D-05
   1   1   2   1  0.53866427160252D+00 -0.22944453267808D-11
   2   1   2   1 -0.83549899756341D+00 -0.60338995839507D-16
   3   1   2   1  0.18808569580136D+00 -0.17321573641420D-05
   1   1   3   1  0.10874903047406D+00 -0.17321583216816D-05
   2   1   3   1  0.18808569580136D+00  0.17321573641370D-05
   3   1   3   1  0.43168304680815D+00  0.41941475897308D-16
 Band:  4
   1   1   1   1  0.43168292031250D+00  0.15680512147588D-16
   2   1   1   1 -0.72851770350518D+00 -0.26116238167365D-13
   3   1   1   1  0.18808572425625D+00 -0.17321631321894D-05
   1   1   2   1 -0.72851770350518D+00  0.26096794923107D-13
   2   1   2   1  0.43168292019656D+00  0.17669912953641D-16
   3   1   2   1  0.10874905888472D+00  0.17321547917393D-05
   1   1   3   1  0.18808572425625D+00  0.17321631321666D-05
   2   1   3   1  0.10874905888472D+00 -0.17321547917398D-05
   3   1   3   1 -0.83549904394795D+00 -0.74260067061946D-16
 K-point: -2.50000000E-01  2.50000000E-01 -2.50000000E-01
 Band:  1
   1   1   1   1 -0.18479914680921D+01 -0.71216356782902D-17
   2   1   1   1  0.36240098810200D+00 -0.18411930756523D-13
   3   1   1   1  0.11231894689770D+01 -0.12219458772059D-13
   1   1   2   1  0.36240098810200D+00  0.18410570146229D-13
   2   1   2   1 -0.18479914200285D+01  0.76194614011860D-17
   3   1   2   1  0.36240098811314D+00  0.30412283538484D-13
   1   1   3   1  0.11231894689770D+01  0.12215151689821D-13
   2   1   3   1  0.36240098811314D+00 -0.30415520136195D-13
   3   1   3   1 -0.18479914681150D+01 -0.26904466548374D-17
 Band:  2
   1   1   1   1 -0.16447596374686D+01 -0.30092697736807D-16
   2   1   1   1  0.30972075049570D+00 -0.65491275134065D-13
   3   1   1   1  0.10253180788164D+01 -0.13401085940915D-12
   1   1   2   1  0.30972075049570D+00  0.65466699814207D-13
   2   1   2   1 -0.16447595146149D+01  0.41243387931107D-16
   3   1   2   1  0.30972075033072D+00  0.19934111139817D-12
   1   1   3   1  0.10253180788164D+01  0.13406008424746D-12
   2   1   3   1  0.30972075033072D+00 -0.19934659794758D-12
   3   1   3   1 -0.16447596371359D+01 -0.48469861251221D-16
 Band:  3
   1   1   1   1 -0.16454509588832D+00 -0.21128628064328D-16
   2   1   1   1 -0.68124487068048D+00 -0.63480163039688D-03
   3   1   1   1 -0.13228964278517D+00  0.78296759434064D-12
   1   1   2   1 -0.68124487068048D+00  0.63480163039692D-03
   2   1   2   1 -0.23927092227823D+00 -0.26863544043052D-16
   3   1   2   1  0.97807963303096D+00 -0.63480163007267D-03
   1   1   3   1 -0.13228964278517D+00 -0.78294012866205D-12
   2   1   3   1  0.97807963303096D+00  0.63480163007264D-03
   3   1   3   1 -0.16454510554140D+00 -0.12131536742821D-16
 Band:  4
   1   1   1   1 -0.23927089058907D+00 -0.45842746594383D-17
   2   1   1   1  0.97807963554017D+00  0.63480163043846D-03
   3   1   1   1 -0.57563859456363D-01 -0.98032194977351D-12
   1   1   2   1  0.97807963554017D+00 -0.63480163043849D-03
   2   1   2   1 -0.16454514576269D+00 -0.23590714613980D-16
   3   1   2   1 -0.68124486826111D+00  0.63480163022898D-03
   1   1   3   1 -0.57563859456363D-01  0.98034974071275D-12
   2   1   3   1 -0.68124486826111D+00 -0.63480163022896D-03
   3   1   3   1 -0.23927088075748D+00 -0.25844722226182D-16
 K-point:  2.50000000E-01 -2.50000000E-01 -2.50000000E-01
 Band:  1
   1   1   1   1 -0.18479914200191D+01  0.76359184807480D-17
   2   1   1   1  0.36240098810195D+00 -0.75263199119550D-14
   3   1   1   1  0.36240098810771D+00  0.52499761736076D-13
   1   1   2   1  0.36240098810195D+00  0.75215703784107D-14
   2   1   2   1 -0.18479914681018D+01 -0.39526601593047D-17
   3   1   2   1  0.11231894689807D+01 -0.60056454700407D-13
   1   1   3   1  0.36240098810771D+00 -0.52503778707835D-13
   2   1   3   1  0.11231894689807D+01  0.60057605592012D-13
   3   1   3   1 -0.18479914681132D+01 -0.33135608119523D-17
 Band:  2
   1   1   1   1 -0.16447595146885D+01  0.42050150145028D-16
   2   1   1   1  0.30972075049598D+00 -0.11137631417216D-12
   3   1   1   1  0.30972075041442D+00  0.33058991111094D-12
   1   1   2   1  0.30972075049598D+00  0.11135402681014D-12
   2   1   2   1 -0.16447596373974D+01 -0.36712385810856D-16
   3   1   2   1  0.10253180788275D+01 -0.44181573104061D-12
   1   1   3   1  0.30972075041442D+00 -0.33061310554643D-12
   2   1   3   1  0.10253180788275D+01  0.44187920749134D-12
   3   1   3   1 -0.16447596372310D+01 -0.49027971486092D-16
 Band:  3
   1   1   1   1 -0.83615837273671D+00 -0.46398844558867D-16
   2   1   1   1  0.16018255903406D+00  0.10195094582805D-04
   3   1   1   1  0.13665216323113D+00 -0.10195094350516D-04
   1   1   2   1  0.16018255903406D+00 -0.10195094582797D-04
   2   1   2   1  0.43234241792002D+00 -0.75290068276492D-17
   3   1   2   1 -0.72917714838990D+00  0.79188773963824D-12
   1   1   3   1  0.13665216323113D+00  0.10195094350525D-04
   2   1   3   1 -0.72917714838990D+00 -0.79188447268179D-12
   3   1   3   1  0.43234241788570D+00 -0.68768694200362D-18
 Band:  4
   1   1   1   1  0.43234230464740D+00 -0.29899322830988D-16
   2   1   1   1  0.13665220582509D+00 -0.10195094495065D-04
   3   1   1   1  0.16018260158408D+00  0.10195094063887D-04
   1   1   2   1  0.13665220582509D+00  0.10195094495072D-04
   2   1   2   1 -0.83615840434910D+00  0.16453772578321D-16
   3   1   2   1  0.53932364614450D+00 -0.41789362071786D-12
   1   1   3   1  0.16018260158408D+00 -0.10195094063891D-04
   2   1   3   1  0.53932364614450D+00  0.41789222944970D-12
   3   1   3   1 -0.83615840422554D+00 -0.22191975359210D-16
 K-point: -2.50000000E-01 -2.50000000E-01 -2.50000000E-01
 Band:  1
   1   1   1   1 -0.53473414784043D+01 -0.32868572938968D-16
   2   1   1   1  0.17824471604598D+01  0.19771785821707D-12
   3   1   1   1  0.17824471604610D+01  0.16709447252440D-12
   1   1   2   1  0.17824471604598D+01 -0.19769939236808D-12
   2   1   2   1 -0.53473414784141D+01 -0.29980669993948D-16
   3   1   2   1  0.17824471604689D+01  0.62500000740438D-12
   1   1   3   1  0.17824471604610D+01 -0.16707140619943D-12
   2   1   3   1  0.17824471604689D+01 -0.62498967658544D-12
   3   1   3   1 -0.53473414784240D+01 -0.35681164543171D-16
 Band:  2
   1   1   1   1 -0.30395509131811D+00 -0.13437330675242D-16
   2   1   1   1  0.39522213124173D+00 -0.38141190726466D-02
   3   1   1   1 -0.49130100920659D+00 -0.54353408171570D-02
   1   1   2   1  0.39522213124173D+00  0.38141190726466D-02
   2   1   2   1  0.30030106624791D+00 -0.11666608299007D-16
   3   1   2   1 -0.15005078947725D+01 -0.40811366467302D-01
   1   1   3   1 -0.49130100920659D+00  0.54353408171570D-02
   2   1   3   1 -0.15005078947725D+01  0.40811366467302D-01
   3   1   3   1  0.35352509130824D+01 -0.51589600443707D-17
 Band:  3
   1   1   1   1 -0.39133642460291D+00 -0.94070420330879D-17
   2   1   1   1  0.76455686731404D-01 -0.67733255634361D-02
   3   1   1   1  0.19296046483350D+00 -0.30089555681325D-03
   1   1   2   1  0.76455686731404D-01  0.67733255634361D-02
   2   1   2   1  0.23663480144929D+01 -0.23824919223895D-17
   3   1   2   1  0.81497472635056D-01  0.41035121145848D-01
   1   1   3   1  0.19296046483350D+00  0.30089555681327D-03
   2   1   3   1  0.81497472635056D-01 -0.41035121145848D-01
   3   1   3   1 -0.39091510049077D+00 -0.10707025848886D-16
 Band:  4
   1   1   1   1  0.35978066887636D+01 -0.64200862237140D-17
   2   1   1   1 -0.14391828760811D+01  0.10587444635923D-01
   3   1   1   1 -0.66916451373005D+00  0.57362363738239D-02
   1   1   2   1 -0.14391828760811D+01 -0.10587444635923D-01
   2   1   2   1  0.23586609210044D+00 -0.11799063076134D-16
   3   1   2   1  0.45150536403159D+00 -0.22375467908481D-03
   1   1   3   1 -0.66916451373005D+00 -0.57362363738239D-02
   2   1   3   1  0.45150536403159D+00  0.22375467908482D-03
   3   1   3   1 -0.24182063975154D+00 -0.14960745900659D-16

 List of bloks and their characteristics 
  
 2nd eigenvalue derivatives   - # elements :       9
 qpt  0.00000000E+00  0.00000000E+00  0.00000000E+00   1.0
  
 2nd eigenvalue derivatives   - # elements :       9
 qpt  5.00000000E-01  0.00000000E+00  0.00000000E+00   1.0
  
 2nd eigenvalue derivatives   - # elements :       9
 qpt  0.00000000E+00  5.00000000E-01  0.00000000E+00   1.0
  
 2nd eigenvalue derivatives   - # elements :       9
 qpt  5.00000000E-01  5.00000000E-01  0.00000000E+00   1.0
  
 2nd eigenvalue derivatives   - # elements :       9
 qpt  0.00000000E+00  0.00000000E+00  5.00000000E-01   1.0
  
 2nd eigenvalue derivatives   - # elements :       9
 qpt  5.00000000E-01  0.00000000E+00  5.00000000E-01   1.0
  
 2nd eigenvalue derivatives   - # elements :       9
 qpt  0.00000000E+00  5.00000000E-01  5.00000000E-01   1.0
  
 2nd eigenvalue derivatives   - # elements :       9
 qpt  5.00000000E-01  5.00000000E-01  5.00000000E-01   1.0
