
 **** DERIVATIVE DATABASE ****    
+DDB, Version number    100401

 He BCC conventional cell  DDB file                                                                                                                                                                                                                                      

    usepaw         0
     natom         2
      nkpt         4
    nsppol         1
      nsym         1
    ntypat         1
    occopt         1
     nband         8
     acell  0.43000000000000D+01  0.43000000000000D+01  0.43000000000000D+01
       amu  0.40026020000000D+01
   dilatmx  0.10000000000000D+01
      ecut  0.80000000000000D+01
    ecutsm  0.00000000000000D+00
     intxc         0
      iscf         7
       ixc         1
       kpt  0.00000000000000D+00  0.00000000000000D+00  0.50000000000000D+00
            0.00000000000000D+00  0.50000000000000D+00  0.00000000000000D+00
            0.50000000000000D+00  0.00000000000000D+00  0.00000000000000D+00
            0.50000000000000D+00  0.50000000000000D+00  0.50000000000000D+00
    kptnrm  0.10000000000000D+01
     ngfft        12   12   12
    nspden         1
   nspinor         1
       occ  0.20000000000000D+01  0.20000000000000D+01  0.00000000000000D+00
            0.00000000000000D+00  0.00000000000000D+00  0.00000000000000D+00
            0.00000000000000D+00  0.00000000000000D+00
     rprim  0.10000000000000D+01  0.00000000000000D+00  0.00000000000000D+00
            0.00000000000000D+00  0.10000000000000D+01  0.00000000000000D+00
            0.00000000000000D+00  0.00000000000000D+00  0.10000000000000D+01
     sciss  0.00000000000000D+00
    spinat  0.00000000000000D+00  0.00000000000000D+00  0.00000000000000D+00
            0.00000000000000D+00  0.00000000000000D+00  0.00000000000000D+00
    symafm         1
    symrel         1    0    0    0    1    0    0    0    1
     tnons  0.00000000000000D+00  0.00000000000000D+00  0.00000000000000D+00
    tolwfr  0.10000000000000D+01
   tphysel  0.00000000000000D+00
    tsmear  0.40000000000000D-01
     typat         1    1
       wtk  0.25000000000000D+00  0.25000000000000D+00  0.25000000000000D+00
            0.25000000000000D+00
      xred  0.00000000000000D+00  0.00000000000000D+00  0.00000000000000D+00
            0.50000000000000D+00  0.50000000000000D+00  0.50000000000000D+00
     znucl  0.20000000000000D+01
      zion  0.20000000000000D+01
 
  Description of the potentials (KB energies)
  vrsio8 (for pseudopotentials)=100401
  usepaw =  0
  dimekb =  1       lmnmax=  1
  Atom type=    1   pspso=  0   nekb=   0
  iln lpsang iproj  ekb(:)
 
 **** Database of total energy derivatives ****
 Number of data blocks=    4
  
 2nd derivatives (non-stat.)  - # elements :      36
 qpt  0.00000000E+00  0.00000000E+00  0.00000000E+00   1.0
   1   1   1   1  0.77957737020974D+00  0.00000000000000D+00
   2   1   1   1  0.67270780403161D-13  0.00000000000000D+00
   3   1   1   1 -0.55434779372465D-12  0.00000000000000D+00
   1   2   1   1 -0.77957697413555D+00  0.00000000000000D+00
   2   2   1   1  0.20823951284043D-11  0.00000000000000D+00
   3   2   1   1  0.24769209800359D-11  0.00000000000000D+00
   1   1   2   1  0.13767263565918D-12  0.00000000000000D+00
   2   1   2   1  0.77957736953874D+00  0.00000000000000D+00
   3   1   2   1 -0.65057102545386D-12  0.00000000000000D+00
   1   2   2   1  0.20557837175092D-11  0.00000000000000D+00
   2   2   2   1 -0.77957697372318D+00  0.00000000000000D+00
   3   2   2   1  0.23425027644904D-11  0.00000000000000D+00
   1   1   3   1 -0.74190217752817D-12  0.00000000000000D+00
   2   1   3   1 -0.91071359407730D-12  0.00000000000000D+00
   3   1   3   1  0.77957737283076D+00  0.00000000000000D+00
   1   2   3   1  0.25939311162082D-11  0.00000000000000D+00
   2   2   3   1  0.24847687106045D-11  0.00000000000000D+00
   3   2   3   1 -0.77957697555423D+00  0.00000000000000D+00
   1   1   1   2 -0.77957697413555D+00  0.00000000000000D+00
   2   1   1   2  0.20779081722578D-11  0.00000000000000D+00
   3   1   1   2  0.24732733726662D-11  0.00000000000000D+00
   1   2   1   2  0.77957736973955D+00  0.00000000000000D+00
   2   2   1   2 -0.73107139325521D-12  0.00000000000000D+00
   3   2   1   2 -0.22293852864147D-12  0.00000000000000D+00
   1   1   2   2  0.20608472669956D-11  0.00000000000000D+00
   2   1   2   2 -0.77957697372318D+00  0.00000000000000D+00
   3   1   2   2  0.23434509827738D-11  0.00000000000000D+00
   1   2   2   2 -0.66273857743113D-12  0.00000000000000D+00
   2   2   2   2  0.77957736906831D+00  0.00000000000000D+00
   3   2   2   2  0.16466309761201D-13  0.00000000000000D+00
   1   1   3   2  0.25976527931542D-11  0.00000000000000D+00
   2   1   3   2  0.24837119420799D-11  0.00000000000000D+00
   3   1   3   2 -0.77957697555423D+00  0.00000000000000D+00
   1   2   3   2 -0.41154850367838D-12  0.00000000000000D+00
   2   2   3   2 -0.24418063835613D-12  0.00000000000000D+00
   3   2   3   2  0.77957737236325D+00  0.00000000000000D+00
  
 2nd derivatives (non-stat.)  - # elements :      36
 qpt  0.00000000E+00  5.00000000E-01  5.00000000E-01   1.0
   1   1   1   1  0.25559079502856D+01  0.00000000000000D+00
   2   1   1   1 -0.99208551371422D-10 -0.22987109900748D-15
   3   1   1   1 -0.61246695659553D-10 -0.10727317953682D-15
   1   2   1   1 -0.41819905589235D-10  0.27213385835625D-15
   2   2   1   1  0.12665540590325D-09 -0.92586970433568D-16
   3   2   1   1  0.14864564689882D-09  0.17623450923907D-15
   1   1   2   1  0.70713474842209D-11  0.19922161913982D-15
   2   1   2   1  0.28832862714668D+01  0.00000000000000D+00
   3   1   2   1  0.38913526804530D-08 -0.30649479867664D-16
   1   2   2   1 -0.11880394290717D-10 -0.17627441741598D-15
   2   2   2   1 -0.36290760710546D-08 -0.63853083057633D-16
   3   2   2   1 -0.16028284000173D+01  0.55214082430409D-15
   1   1   3   1 -0.11382980239151D-10 -0.40865973156885D-16
   2   1   3   1  0.37284953870062D-08  0.14813915269371D-15
   3   1   3   1  0.28832862786289D+01  0.00000000000000D+00
   1   2   3   1 -0.11280691382566D-10  0.94023664802365D-16
   2   2   3   1 -0.16028284048707D+01  0.46530063134571D-15
   3   2   3   1 -0.34505038077412D-08 -0.96418155417026D-16
   1   1   1   2 -0.41819789955292D-10 -0.19058149883858D-15
   2   1   1   2  0.12670215847218D-09  0.15845541642521D-15
   3   1   1   2  0.14860520931998D-09 -0.40526753653142D-16
   1   2   1   2  0.25559079498889D+01  0.00000000000000D+00
   2   2   1   2 -0.99818578389206D-10 -0.97296135309069D-16
   3   2   1   2 -0.60960251892697D-10 -0.40729537077071D-15
   1   1   2   2 -0.11926207740427D-10  0.50763201030818D-16
   2   1   2   2 -0.36290756845838D-08  0.22380505611700D-15
   3   1   2   2 -0.16028284000182D+01 -0.38101456170963D-15
   1   2   2   2  0.64513327754557D-11  0.17877865551715D-15
   2   2   2   2  0.28832862710877D+01  0.00000000000000D+00
   3   2   2   2  0.38919684073263D-08 -0.52830444594809D-15
   1   1   3   2 -0.11248385553723D-10 -0.81731946313771D-16
   2   1   3   2 -0.16028284048698D+01 -0.68144331749580D-15
   3   1   3   2 -0.34505038203522D-08 -0.19187851458819D-15
   1   2   3   2 -0.11095868238557D-10  0.25670685371908D-15
   2   2   3   2  0.37291104872015D-08  0.36647678857390D-15
   3   2   3   2  0.28832862782511D+01  0.00000000000000D+00
  
 2nd derivatives (non-stat.)  - # elements :      36
 qpt  5.00000000E-01  0.00000000E+00  5.00000000E-01   1.0
   1   1   1   1  0.28832862775610D+01  0.00000000000000D+00
   2   1   1   1  0.68397517769880D-11  0.20432986578443D-16
   3   1   1   1  0.39528654957830D-08 -0.10216493289221D-15
   1   2   1   1 -0.36805533366725D-08  0.31288010698240D-16
   2   2   1   1 -0.11591074386810D-10 -0.18996292209646D-16
   3   2   1   1 -0.16028284055198D+01 -0.32114885673256D-16
   1   1   2   1 -0.87096176335133D-10 -0.17878863256137D-15
   2   1   2   1  0.25559079506060D+01  0.00000000000000D+00
   3   1   2   1 -0.57999295017316D-10  0.30649479867664D-15
   1   2   2   1  0.12012199897975D-09 -0.15069327601601D-15
   2   2   2   1 -0.42240174056983D-10  0.85802580358695D-16
   3   2   2   1  0.13780920788690D-09  0.17176479342503D-15
   1   1   3   1  0.37807176885786D-08 -0.45974219801496D-16
   2   1   3   1 -0.10109804543630D-10  0.18389687920598D-15
   3   1   3   1  0.28832862833661D+01  0.00000000000000D+00
   1   2   3   1 -0.16028284093294D+01 -0.46248466548170D-15
   2   2   3   1 -0.11144993235280D-10  0.35518277450809D-17
   3   2   3   1 -0.34907511090487D-08  0.43420096479191D-16
   1   1   1   2 -0.36805539418401D-08 -0.43483949562248D-15
   2   1   1   2 -0.11485449714291D-10  0.38631115249868D-16
   3   1   1   2 -0.16028284055203D+01 -0.24181484064399D-15
   1   2   1   2  0.28832862771802D+01  0.00000000000000D+00
   2   2   1   2  0.62009588891656D-11  0.59480643424820D-16
   3   2   1   2  0.39531858491461D-08 -0.11697086652620D-15
   1   1   2   2  0.12003510866212D-09  0.30390076717742D-16
   2   1   2   2 -0.42239612209715D-10 -0.95340634640429D-16
   3   1   2   2  0.13780128715139D-09 -0.18557302263625D-17
   1   2   2   2 -0.87725942170430D-10 -0.53227530955074D-16
   2   2   2   2  0.25559079502100D+01  0.00000000000000D+00
   3   2   2   2 -0.57435637328858D-10 -0.83650033066557D-16
   1   1   3   2 -0.16028284093289D+01 -0.59141047038453D-15
   2   1   3   2 -0.11145122158645D-10 -0.16346389262754D-15
   3   1   3   2 -0.34907515202626D-08  0.76942965084448D-16
   1   2   3   2  0.37810376456935D-08 -0.10312272913808D-15
   2   2   3   2 -0.95271620839536D-11 -0.38977817536783D-16
   3   2   3   2  0.28832862829894D+01  0.00000000000000D+00
  
 2nd derivatives (non-stat.)  - # elements :      36
 qpt  5.00000000E-01  5.00000000E-01  0.00000000E+00   1.0
   1   1   1   1  0.28832862530025D+01  0.00000000000000D+00
   2   1   1   1  0.37299950754319D-08 -0.46995869130418D-15
   3   1   1   1  0.45604897358473D-11 -0.71515453024549D-16
   1   2   1   1 -0.34960529004165D-08  0.76112875004699D-15
   2   2   1   1 -0.16028283819035D+01  0.14092696941293D-15
   3   2   1   1 -0.12197953217921D-10  0.26858203061117D-16
   1   1   2   1  0.37258691063052D-08 -0.20432986578443D-15
   2   1   2   1  0.28832862516452D+01  0.00000000000000D+00
   3   1   2   1  0.51470603003842D-11 -0.35757726512275D-16
   1   2   2   1 -0.16028283808548D+01 -0.39671598993234D-15
   2   2   2   1 -0.34920533958120D-08  0.30010949037088D-16
   3   2   2   1 -0.12426154884069D-10 -0.39110013372800D-16
   1   1   3   1 -0.10676991725258D-09  0.39333499163502D-15
   2   1   3   1 -0.11523393376310D-09 -0.60788135070867D-15
   3   1   3   1  0.25559079492959D+01  0.00000000000000D+00
   1   2   3   1  0.17216365575040D-09  0.42909271814730D-15
   2   2   3   1  0.16835860534894D-09 -0.46995869130418D-15
   3   2   3   1 -0.41161756146788D-10 -0.23066926254570D-16
   1   1   1   2 -0.34960526852316D-08 -0.25221967807765D-15
   2   1   1   2 -0.16028283819018D+01 -0.87290379644518D-16
   3   1   1   2 -0.12182655615547D-10  0.48528343123801D-16
   1   2   1   2  0.28832862526191D+01  0.00000000000000D+00
   2   2   1   2  0.37292138963883D-08  0.16334416809681D-15
   3   2   1   2  0.48365929535985D-11 -0.41970930805109D-16
   1   1   2   2 -0.16028283808565D+01 -0.37877970380261D-15
   2   1   2   2 -0.34920528680663D-08 -0.15005474518544D-15
   3   1   2   2 -0.12433437328192D-10 -0.54275120598988D-17
   1   2   2   2  0.37250871384167D-08  0.35757726512275D-15
   2   2   2   2  0.28832862512649D+01  0.00000000000000D+00
   3   2   2   2  0.57162158028974D-11  0.16056057275726D-15
   1   1   3   2  0.17215726313889D-09  0.13648596503569D-16
   2   1   3   2  0.16837056850341D-09  0.45535229855475D-16
   3   1   3   2 -0.41161854041545D-10 -0.51980400426605D-16
   1   2   3   2 -0.10649820818202D-09 -0.86476030844068D-17
   2   2   3   2 -0.11467698781562D-09 -0.30876956476057D-15
   3   2   3   2  0.25559079489005D+01  0.00000000000000D+00

 List of bloks and their characteristics 
  
 2nd derivatives (non-stat.)  - # elements :      36
 qpt  0.00000000E+00  0.00000000E+00  0.00000000E+00   1.0
  
 2nd derivatives (non-stat.)  - # elements :      36
 qpt  0.00000000E+00  5.00000000E-01  5.00000000E-01   1.0
  
 2nd derivatives (non-stat.)  - # elements :      36
 qpt  5.00000000E-01  0.00000000E+00  5.00000000E-01   1.0
  
 2nd derivatives (non-stat.)  - # elements :      36
 qpt  5.00000000E-01  5.00000000E-01  0.00000000E+00   1.0
