
 **** DERIVATIVE DATABASE ****    
+DDB, Version number    100401

 He BCC conventional cell  EIGR2D file                                                                                                                                                                                                                                   

    usepaw         0
     natom         2
      nkpt         4
    nsppol         1
      nsym         1
    ntypat         1
    occopt         1
     nband         8
     acell  0.43000000000000D+01  0.43000000000000D+01  0.43000000000000D+01
       amu  0.40026020000000D+01
   dilatmx  0.10000000000000D+01
      ecut  0.80000000000000D+01
    ecutsm  0.00000000000000D+00
     intxc         0
      iscf         7
       ixc         1
       kpt  0.00000000000000D+00  0.00000000000000D+00  0.50000000000000D+00
            0.00000000000000D+00  0.50000000000000D+00  0.00000000000000D+00
            0.50000000000000D+00  0.00000000000000D+00  0.00000000000000D+00
            0.50000000000000D+00  0.50000000000000D+00  0.50000000000000D+00
    kptnrm  0.10000000000000D+01
     ngfft        12   12   12
    nspden         1
   nspinor         1
       occ  0.20000000000000D+01  0.20000000000000D+01  0.00000000000000D+00
            0.00000000000000D+00  0.00000000000000D+00  0.00000000000000D+00
            0.00000000000000D+00  0.00000000000000D+00
     rprim  0.10000000000000D+01  0.00000000000000D+00  0.00000000000000D+00
            0.00000000000000D+00  0.10000000000000D+01  0.00000000000000D+00
            0.00000000000000D+00  0.00000000000000D+00  0.10000000000000D+01
     sciss  0.00000000000000D+00
    spinat  0.00000000000000D+00  0.00000000000000D+00  0.00000000000000D+00
            0.00000000000000D+00  0.00000000000000D+00  0.00000000000000D+00
    symafm         1
    symrel         1    0    0    0    1    0    0    0    1
     tnons  0.00000000000000D+00  0.00000000000000D+00  0.00000000000000D+00
    tolwfr  0.10000000000000D+01
   tphysel  0.00000000000000D+00
    tsmear  0.40000000000000D-01
     typat         1    1
       wtk  0.25000000000000D+00  0.25000000000000D+00  0.25000000000000D+00
            0.25000000000000D+00
      xred  0.00000000000000D+00  0.00000000000000D+00  0.00000000000000D+00
            0.50000000000000D+00  0.50000000000000D+00  0.50000000000000D+00
     znucl  0.20000000000000D+01
      zion  0.20000000000000D+01
 
  Description of the potentials (KB energies)
  vrsio8 (for pseudopotentials)=100401
  usepaw =  0
  dimekb =  1       lmnmax=  1
  Atom type=    1   pspso=  0   nekb=   0
  iln lpsang iproj  ekb(:)
 
 **** Database of total energy derivatives ****
 Number of data blocks=    4
  
 2nd eigenvalue derivatives   - # elements :      36
 qpt  0.00000000E+00  0.00000000E+00  0.00000000E+00   1.0
 K-point:  0.00000000E+00  0.00000000E+00  5.00000000E-01
 Band:  1
   1   1   1   1 -0.21884065294473D+01 -0.92699285747511D-17
   2   1   1   1 -0.62249871598564D-12 -0.53722998249494D-16
   3   1   1   1 -0.28425325159874D-09 -0.32624267414936D-17
   1   2   1   1  0.25831791915022D+00  0.50161297090132D-16
   2   2   1   1  0.28394292667967D-12 -0.24265864919955D-17
   3   2   1   1 -0.22650074317016D-09 -0.22420084416005D-16
   1   1   2   1 -0.62242238815270D-12  0.50836309965251D-16
   2   1   2   1 -0.21884065295675D+01 -0.65594231435373D-17
   3   1   2   1 -0.27302297480648D-09 -0.35108962073067D-16
   1   2   2   1  0.28800854930122D-12  0.15119059234323D-16
   2   2   2   1  0.25831791923582D+00  0.10359316687858D-15
   3   2   2   1 -0.21500271851620D-09 -0.24545911801374D-16
   1   1   3   1 -0.28425325853763D-09 -0.10743819484484D-17
   2   1   3   1 -0.27302299909261D-09  0.38144728156027D-16
   3   1   3   1 -0.15101705935207D+01 -0.55565361339882D-17
   1   2   3   1  0.22479451836466D-09  0.12389141328532D-16
   2   2   3   1  0.21349252296016D-09 -0.23196078891762D-16
   3   2   3   1 -0.16819896086481D+00  0.59172318256169D-16
   1   1   1   2  0.25831791915022D+00 -0.58834914470016D-16
   2   1   1   2  0.28800507985427D-12 -0.20323229662254D-16
   3   1   1   2  0.22479451923202D-09 -0.12389141328532D-16
   1   2   1   2 -0.26613884592150D+00  0.21684043449710D-17
   2   2   1   2 -0.11275865224175D-13 -0.34194093371627D-18
   3   2   1   2  0.28323137484377D-09 -0.58588070027691D-17
   1   1   2   2  0.28395333502053D-12  0.58960334439491D-17
   2   1   2   2  0.25831791923582D+00 -0.10879733730651D-15
   3   1   2   2  0.21349254377684D-09  0.13655099773890D-16
   1   2   2   2 -0.11274130500699D-13  0.11212112451902D-17
   2   2   2   2 -0.26613884594929D+00 -0.22293907171733D-17
   3   2   2   2  0.27203817603763D-09  0.24078239375901D-16
   1   1   3   2 -0.22650074143543D-09  0.20685360940028D-16
   2   1   3   2 -0.21500270377105D-09  0.15004932683502D-16
   3   1   3   2 -0.16819896086481D+00 -0.71749063457001D-16
   1   2   3   2  0.28323137573823D-09  0.62924878717633D-17
   2   2   3   2  0.27203817461461D-09 -0.24945601113889D-16
   3   2   3   2 -0.27583154124933D+00 -0.18702487475375D-17
 Band:  2
   1   1   1   1 -0.26613884593271D+00 -0.17076184216647D-17
   2   1   1   1 -0.16722110892167D-13  0.11907102627023D-17
   3   1   1   1  0.28375925191043D-09 -0.78838038783096D-18
   1   2   1   1  0.25831791915251D+00  0.35650833205916D-16
   2   2   1   1  0.30437002744577D-12  0.32018768334288D-17
   3   2   1   1  0.22711501107088D-09 -0.24351881766031D-17
   1   1   2   1 -0.16720376168691D-13 -0.12006061737284D-18
   2   1   2   1 -0.26613884596056D+00  0.18770250111155D-17
   3   1   2   1  0.27253306742083D-09 -0.13603639926478D-17
   1   2   2   1  0.30048630684371D-12  0.55281520631641D-17
   2   2   2   1  0.25831791923837D+00 -0.12207072051068D-16
   3   2   2   1  0.21558948644654D-09 -0.13408044218308D-16
   1   1   3   1  0.28375925153096D-09  0.78838038783096D-18
   2   1   3   1  0.27253307166277D-09  0.26614065996304D-17
   3   1   3   1 -0.27583154126018D+00 -0.45536491244391D-17
   1   2   3   1 -0.22417098706190D-09 -0.19355614159808D-16
   2   2   3   1 -0.21289234454675D-09  0.26662317221935D-16
   3   2   3   1 -0.16819896086396D+00 -0.10890924566848D-15
   1   1   1   2  0.25831791915251D+00 -0.32181386253963D-16
   2   1   1   2  0.30048110267328D-12 -0.55281520631641D-17
   3   1   1   2 -0.22417098792926D-09  0.21957699373773D-16
   1   2   1   2 -0.21884065294206D+01 -0.73183646642772D-17
   2   2   1   2 -0.69248079492823D-12 -0.56105786875663D-17
   3   2   1   2 -0.28372445340202D-09  0.53537073952658D-16
   1   1   2   2  0.30437696633967D-12 -0.84060472613592D-17
   2   1   2   2  0.25831791923837D+00  0.17411242478999D-16
   3   1   2   2 -0.21289233847521D-09 -0.23192870269982D-16
   1   2   2   2 -0.69247385603433D-12  0.39571703745259D-17
   2   2   2   2 -0.21884065295401D+01 -0.56581800876587D-17
   3   2   2   2 -0.27251413750352D-09 -0.20158036108053D-16
   1   1   3   2  0.22711501974450D-09  0.41699116525799D-17
   2   1   3   2  0.21558948210973D-09  0.13408044218308D-16
   3   1   3   2 -0.16819896086396D+00  0.11975126739334D-15
   1   2   3   2 -0.28372442564644D-09 -0.51802350476681D-16
   2   2   3   2 -0.27251415138131D-09  0.12351780466157D-16
   3   2   3   2 -0.15101705935097D+01  0.22768245622196D-17
 Band:  3
   1   1   1   1 -0.27858326297864D+01 -0.15178830414797D-16
   2   1   1   1 -0.49402908657405D-13  0.35477211814470D-16
   3   1   1   1 -0.96724810893398D-10 -0.72226531998171D-16
   1   2   1   1 -0.55399126193097D+00  0.91624998909759D-16
   2   2   1   1  0.67441169836202D-12  0.27359934013628D-16
   3   2   1   1  0.15477270196943D-09 -0.21959838017312D-16
   1   1   2   1 -0.49326580824462D-13 -0.27020434869083D-16
   2   1   2   1 -0.27858326297100D+01 -0.10299920638612D-16
   3   1   2   1 -0.10641762034793D-09 -0.25214061283328D-16
   1   2   2   1  0.65821944384781D-12 -0.14578008977209D-16
   2   2   2   1 -0.55399126188934D+00  0.60381688124551D-17
   3   2   2   1  0.15520947328738D-09 -0.35304749130787D-16
   1   1   3   1 -0.96724797015610D-10  0.68757085046217D-16
   2   1   3   1 -0.10641761340903D-09  0.11336273475513D-16
   3   1   3   1 -0.11525102260024D+01 -0.12143064331838D-16
   1   2   3   1 -0.15180271208800D-09  0.51678538445323D-16
   2   2   3   1 -0.15269777238644D-09  0.50341422964482D-16
   3   2   3   1  0.15507146185996D-01 -0.26625277269069D-16
   1   1   1   2 -0.55399126193097D+00 -0.22236059870687D-16
   2   1   1   2  0.65822291329476D-12  0.41696681213486D-17
   3   1   1   2 -0.15180269647549D-09 -0.65556326253138D-16
   1   2   1   2 -0.99222798195789D+00 -0.21033522146219D-16
   2   2   1   2  0.81017996673462D-12  0.17245334629373D-17
   3   2   1   2  0.10331963124146D-09 -0.83356554290775D-17
   1   1   2   2  0.67436312610469D-12 -0.44707168773397D-16
   2   1   2   2 -0.55399126188934D+00 -0.23385403572223D-16
   3   1   2   2 -0.15269778106005D-09 -0.57280316868389D-16
   1   2   2   2  0.81016955839376D-12  0.58648817444612D-17
   2   2   2   2 -0.99222798198065D+00 -0.16317242695907D-16
   3   2   2   2  0.11245996086638D-09 -0.19754456445120D-17
   1   1   3   2  0.15477268115275D-09  0.28898731921220D-16
   2   1   3   2  0.15520941777622D-09  0.31835302178833D-16
   3   1   3   2  0.15507146185996D-01 -0.54906726101841D-16
   1   2   3   2  0.10331965205814D-09 -0.20726854267834D-17
   2   2   3   2  0.11245994959068D-09  0.19754456445120D-17
   3   2   3   2 -0.55358804251411D-01 -0.17347234759768D-17
 Band:  4
   1   1   1   1 -0.99222798197929D+00 -0.43368086899420D-17
   2   1   1   1  0.78627057122083D-12 -0.60801837110070D-17
   3   1   1   1  0.95853316353337D-10  0.11191725185351D-15
   1   2   1   1 -0.55399126193445D+00 -0.88475861327748D-17
   2   2   1   1  0.54544931939182D-12 -0.13648265950157D-17
   3   2   1   1 -0.15489216856683D-09  0.44712609779757D-16
   1   1   2   1  0.78625322398607D-12  0.30444176280476D-17
   2   1   2   1 -0.99222798197913D+00 -0.87278274885083D-17
   3   1   2   1  0.10559650988120D-09  0.32442072237593D-17
   1   2   2   1  0.56034408883743D-12  0.19901608963736D-16
   2   2   2   1 -0.55399126189026D+00  0.15010279093089D-15
   3   2   2   1 -0.15536541768028D-09 -0.33681369324727D-16
   1   1   3   1  0.95853312883890D-10 -0.12232559270937D-15
   2   1   3   1  0.10559653416733D-09  0.71641336321015D-17
   3   1   3   1 -0.55358804253172D-01  0.13010426069826D-17
   1   2   3   1  0.15169115740037D-09 -0.57462418985991D-18
   2   2   3   1  0.15259432749159D-09  0.20056162050170D-16
   3   2   3   1  0.15507146182195D-01 -0.35066072715715D-16
   1   1   1   2 -0.55399126193445D+00  0.29664267844497D-16
   2   1   1   2  0.56026776100448D-12 -0.40718290675457D-16
   3   1   1   2  0.15169111229756D-09  0.75135180937671D-17
   1   2   1   2 -0.27858326298906D+01 -0.67220534694101D-17
   2   2   1   2 -0.36405167075371D-12 -0.33784325965332D-16
   3   2   1   2 -0.10427757896208D-09  0.10132449694281D-15
   1   1   2   2  0.54540768602840D-12  0.15242614402830D-16
   2   1   2   2 -0.55399126189026D+00 -0.39080488468375D-16
   3   1   2   2  0.15259431361381D-09 -0.47811737665799D-16
   1   2   2   2 -0.36403779296590D-12  0.29339097058141D-16
   2   2   2   2 -0.27858326298072D+01 -0.16696713456277D-16
   3   2   2   2 -0.11346546116873D-09 -0.11129502849063D-15
   1   1   3   2 -0.15489215468904D-09 -0.62059844539525D-16
   2   1   3   2 -0.15536541768028D-09  0.16334134564959D-16
   3   1   3   2  0.15507146182195D-01 -0.48325672317511D-17
   1   2   3   2 -0.10427747487868D-09 -0.94385603038898D-16
   2   2   3   2 -0.11346538484090D-09  0.12170336934649D-15
   3   2   3   2 -0.11525102260504D+01 -0.23852447794681D-16
 Band:  5
   1   1   1   1 -0.10141455058234D+01 -0.22551405187698D-16
   2   1   1   1 -0.64644079085604D-02 -0.61432936966101D-16
   3   1   1   1 -0.17111594330831D-09 -0.27622811581695D-16
   1   2   1   1  0.25462032995463D+00 -0.34728808979670D-16
   2   2   1   1 -0.16815618998645D-02 -0.18649807105932D-16
   3   2   1   1 -0.16059060612475D-09 -0.20778657257035D-16
   1   1   2   1 -0.64644079085604D-02  0.58830851752136D-16
   2   1   2   1  0.13565798936034D+01 -0.93742830338528D-16
   3   1   2   1 -0.13361069799353D-09 -0.28843384805189D-16
   1   2   2   1 -0.16815619001849D-02  0.36854413399068D-16
   2   2   2   1  0.96262907194876D-01 -0.37064231716817D-15
   3   2   2   1 -0.53602771114834D-10 -0.41886989879880D-16
   1   1   3   1 -0.17111592249162D-09  0.22418641153764D-16
   2   1   3   1 -0.13361070883555D-09  0.27325501763710D-16
   3   1   3   1 -0.50224169884081D+00 -0.84567769453869D-17
   1   2   3   1  0.15989761452409D-09  0.10319501377098D-16
   2   2   3   1  0.62329786403308D-10  0.32647044784110D-16
   3   2   3   1 -0.45770835933716D-01 -0.34694469641909D-17
   1   1   1   2  0.25462032995463D+00  0.20851021171856D-16
   2   1   1   2 -0.16815619001849D-02 -0.42058583826998D-16
   3   1   1   2  0.15989762493243D-09  0.17436074238531D-16
   1   2   1   2 -0.24579655395891D+00  0.38489177123235D-17
   2   2   1   2 -0.11038218682044D-02 -0.24372420178065D-16
   3   2   1   2  0.17079113103609D-09 -0.86597921649011D-17
   1   1   2   2 -0.16815618998645D-02  0.17131924064453D-16
   2   1   2   2  0.96262907194876D-01  0.24902193846961D-15
   3   1   2   2  0.62329786403308D-10 -0.19202937845289D-16
   1   2   2   2 -0.11038218682044D-02  0.26757664957533D-16
   2   2   2   2  0.39116748415032D+00 -0.28731357570866D-16
   3   2   2   2  0.12388456729147D-09 -0.16269752188958D-16
   1   1   3   2 -0.16059063388033D-09  0.13839763353128D-16
   2   1   3   2 -0.53602775668483D-10  0.50777447694262D-16
   3   1   3   2 -0.45770835933716D-01  0.17347234882141D-17
   1   2   3   2  0.17079113884235D-09  0.34556217369707D-17
   2   2   3   2  0.12388456870094D-09  0.14318188278484D-16
   3   2   3   2 -0.18296935636265D+00 -0.60715321659188D-17
 Band:  6
   1   1   1   1 -0.24579600149247D+00  0.47162794503119D-17
   2   1   1   1 -0.41742550704022D-04  0.19093363072121D-16
   3   1   1   1  0.17060389402871D-09  0.13897872740061D-16
   1   2   1   1  0.25462038075403D+00  0.69329206343393D-17
   2   2   1   1  0.13339126970713D-02  0.24320503269704D-16
   3   2   1   1  0.16115393770780D-09  0.17360318049727D-16
   1   1   2   1 -0.41742550704019D-04 -0.14973394816676D-16
   2   1   2   1  0.39116672608383D+00 -0.22056737946502D-16
   3   1   2   1  0.13275068797843D-09 -0.67615247848997D-17
   1   2   2   1  0.13339126970372D-02  0.11835284732499D-18
   2   2   2   1  0.96262856370465D-01 -0.50055577884354D-15
   3   2   2   1  0.54265657380090D-10  0.35725382033737D-16
   1   1   3   1  0.17060388643929D-09 -0.52242553601771D-17
   2   1   3   1  0.13275069589310D-09  0.13917259123304D-16
   3   1   3   1 -0.18296902333295D+00 -0.66678433607859D-17
   1   2   3   1 -0.15981044150924D-09  0.10381121275576D-16
   2   2   3   1 -0.60002199218717D-10  0.33293633617098D-16
   3   2   3   1 -0.45770835933792D-01  0.17780915625994D-16
   1   1   1   2  0.25462038075403D+00 -0.20810708442154D-16
   2   1   1   2  0.13339126970372D-02  0.85552645325590D-17
   3   1   1   2 -0.15981043110090D-09 -0.10381121275576D-16
   1   2   1   2 -0.10141470230488D+01  0.75894152073985D-18
   2   2   1   2  0.60453025670178D-02  0.59754395603458D-16
   3   2   1   2 -0.17084223524365D-09  0.35714019351200D-17
   1   1   2   2  0.13339126970713D-02 -0.26922588483669D-16
   2   1   2   2  0.96262856370465D-01  0.40644703027180D-15
   3   1   2   2 -0.60002189894579D-10 -0.24620016237214D-16
   1   2   2   2  0.60453025670178D-02 -0.52598661265054D-16
   2   2   2   2  0.13565816163133D+01 -0.39450051298601D-15
   3   2   2   2 -0.12507087193728D-09  0.12326155774715D-15
   1   1   3   2  0.16115395505503D-09 -0.27768658905588D-16
   2   1   3   2  0.54265656079047D-10 -0.29003328564327D-16
   3   1   3   2 -0.45770835933792D-01 -0.99746599840982D-17
   1   2   3   2 -0.17084231851038D-09 -0.18366784591432D-17
   2   2   3   2 -0.12507087584040D-09 -0.12521312165762D-15
   3   2   3   2 -0.50224203187651D+00  0.71557343384043D-17
 Band:  7
   1   1   1   1  0.13652034597208D+01 -0.62978593694252D-16
   2   1   1   1  0.73570256640384D-02  0.87058564040978D-18
   3   1   1   1 -0.12243843234266D-09  0.19528057502668D-15
   1   2   1   1  0.96263014646833D-01 -0.43600862152185D-15
   2   2   1   1  0.16921523207503D-02 -0.70040669052546D-17
   3   2   1   1 -0.75363939995997D-10 -0.15368261798446D-15
   1   1   2   1  0.73570256640384D-02 -0.91105221512996D-17
   2   1   2   1 -0.10210083816046D+01 -0.11600963245595D-16
   3   1   2   1 -0.15877700786183D-09  0.36523396566163D-17
   1   2   2   1  0.16921523211261D-02 -0.88973838806508D-17
   2   2   2   1  0.25462022243514D+00 -0.27757526993177D-16
   3   2   2   1 -0.14866475899706D-09 -0.70340470615365D-17
   1   1   3   1 -0.12243839417874D-09 -0.19918370284763D-15
   2   1   3   1 -0.15877695928957D-09  0.10225448151198D-16
   3   1   3   1 -0.50509428138943D+00 -0.10733601507606D-16
   1   2   3   1  0.58211795207525D-10 -0.38103541849464D-16
   2   2   3   1  0.14782632941105D-09 -0.10438370595468D-16
   3   2   3   1 -0.45770835951728D-01  0.22117724317765D-16
   1   1   1   2  0.96263014646833D-01  0.27951759045073D-15
   2   1   1   2  0.16921523211261D-02  0.23921708457377D-17
   3   1   1   2  0.58211797375929D-10  0.42874031408401D-16
   1   2   1   2  0.38254187494038D+00 -0.24855334804230D-16
   2   2   1   2  0.25886856848579D-03 -0.53372188838226D-17
   3   2   1   2  0.13672556644942D-09 -0.14240729637094D-15
   1   1   2   2  0.16921523207503D-02  0.96061521192198D-17
   2   1   2   2  0.25462022243514D+00  0.34696420897085D-16
   3   1   2   2  0.14782632594161D-09  0.13907817547422D-16
   1   2   2   2  0.25886856848579D-03  0.89150860530247D-17
   2   2   2   2 -0.23893163537300D+00 -0.11384122811098D-16
   3   2   2   2  0.15865523186868D-09 -0.32389478612156D-19
   1   1   3   2 -0.75363913975145D-10  0.14175639408712D-15
   2   1   3   2 -0.14866472430260D-09 -0.33742937943243D-17
   3   1   3   2 -0.45770835951728D-01 -0.35128150387591D-16
   1   2   3   2  0.13672555951052D-09  0.14739462636437D-15
   2   2   3   2  0.15865523880757D-09  0.69712833825194D-17
   3   2   3   2 -0.18011677383456D+00 -0.61799523831674D-17
 Band:  8
   1   1   1   1  0.38254336537713D+00 -0.79363599025939D-16
   2   1   1   1 -0.85087520569241D-03  0.62039701966582D-17
   3   1   1   1  0.12219669314898D-09 -0.80672215991500D-17
   1   2   1   1  0.96262748727701D-01  0.11371134294303D-17
   2   2   1   1 -0.13445031167410D-02  0.69587307853770D-18
   3   2   1   1  0.76290382108196D-10 -0.26766863644601D-16
   1   1   2   1 -0.85087520569241D-03 -0.70713319346466D-17
   2   1   2   1 -0.23893292027132D+00 -0.99746599868666D-17
   3   1   2   1  0.15870042114810D-09  0.87010654353936D-17
   1   2   2   1 -0.13445031167621D-02 -0.47313900745053D-17
   2   2   2   1  0.25462048835780D+00  0.34701531822981D-16
   3   2   2   1  0.14877620067610D-09  0.24291889039390D-16
   1   1   3   1  0.12219669184794D-09  0.14138753765069D-16
   2   1   3   1  0.15870041854601D-09 -0.15639959339301D-16
   3   1   3   1 -0.18011710687127D+00  0.43368086899420D-18
   1   2   3   1 -0.57800197615211D-10 -0.18823837049120D-16
   2   2   3   1 -0.14729076814754D-09 -0.31210419897461D-16
   3   2   3   1 -0.45770835951836D-01  0.40332320821212D-16
   1   1   1   2  0.96262748727701D-01 -0.26486929188653D-15
   2   1   1   2 -0.13445031167621D-02 -0.47278035342513D-18
   3   1   1   2 -0.57800218215052D-10  0.24678528780541D-16
   1   2   1   2  0.13652070197843D+01 -0.24451469494979D-15
   2   2   1   2 -0.52003492679175D-02 -0.19512707936413D-16
   3   2   1   2 -0.13699163813121D-09  0.28947257550316D-17
   1   1   2   2 -0.13445031167410D-02 -0.15632348165261D-17
   2   1   2   2  0.25462048835780D+00  0.20809619408277D-16
   3   1   2   2 -0.14729078549478D-09  0.17332632089646D-16
   1   2   2   2 -0.52003492679175D-02  0.19512707936413D-16
   2   2   2   2 -0.10210121473099D+01 -0.11492543028346D-16
   3   2   2   2 -0.15917528451764D-09  0.20856810667806D-16
   1   1   3   2  0.76290375169302D-10  0.21345852782174D-16
   2   1   3   2  0.14877619026775D-09 -0.13883548183529D-16
   3   1   3   2 -0.45770835951836D-01 -0.17780915633513D-16
   1   2   3   2 -0.13699159996729D-09 -0.18940917907817D-16
   2   2   3   2 -0.15917529839543D-09 -0.24326257619760D-16
   3   2   3   2 -0.50509394835853D+00  0.40657581468206D-17
 K-point:  0.00000000E+00  5.00000000E-01  0.00000000E+00
 Band:  1
   1   1   1   1 -0.22452232693169D+01 -0.79011233319881D-17
   2   1   1   1 -0.21547050539493D-09  0.17264967456381D-16
   3   1   1   1 -0.77820432389797D-12  0.41942758208401D-17
   1   2   1   1  0.25831791912334D+00 -0.21599474196049D-16
   2   2   1   1 -0.17180718744851D-09 -0.31891315780714D-17
   3   2   1   1  0.36903322737057D-12 -0.20336476092849D-17
   1   1   2   1 -0.21547049498659D-09 -0.14662882242416D-16
   2   1   2   1 -0.15466541287724D+01  0.34423418976415D-17
   3   1   2   1 -0.24005688032463D-09 -0.49872050877739D-16
   1   2   2   1  0.17057500623798D-09  0.17214579142564D-16
   2   2   2   1 -0.16819896067573D+00  0.24604427040266D-16
   3   2   2   1  0.19829711916379D-09  0.19371030345035D-17
   1   1   3   1 -0.77822514057968D-12 -0.92324277911087D-17
   2   1   3   1 -0.24005685950795D-09  0.47703646532768D-16
   3   1   3   1 -0.22452232688666D+01 -0.71828393927165D-17
   1   2   3   1  0.35711528406732D-12 -0.73053898159448D-17
   2   2   3   1 -0.19996463001422D-09  0.42600774930383D-16
   3   2   3   1  0.25831791880210D+00  0.32861423517755D-17
   1   1   1   2  0.25831791912334D+00  0.19864750720073D-16
   2   1   1   2  0.17057500884006D-09 -0.12877770452622D-16
   3   1   1   2  0.35712048823775D-12  0.73053898159448D-17
   1   2   1   2 -0.20932210612386D+00 -0.13959102970751D-17
   2   2   1   2  0.21461716273464D-09 -0.21852285157476D-17
   3   2   1   2 -0.21056696967656D-13 -0.24819831375485D-17
   1   1   2   2 -0.17180719525477D-09 -0.28031537388222D-18
   2   1   2   2 -0.16819896067573D+00 -0.27206512254231D-16
   3   1   2   2 -0.19996462827950D-09 -0.51274392310267D-16
   1   2   2   2  0.21461716034940D-09  0.30525902537361D-17
   2   2   2   2 -0.23934800619200D+00 -0.30899761915837D-17
   3   2   2   2  0.23906742295095D-09  0.11135705883266D-16
   1   1   3   2  0.36902628847667D-12 -0.92420549845644D-17
   2   1   3   2  0.19829710875545D-09  0.23997056554385D-17
   3   1   3   2  0.25831791880210D+00 -0.93576745176943D-17
   1   2   3   2 -0.21056696967656D-13  0.21838275401150D-17
   2   2   3   2  0.23906742327621D-09 -0.89673015382946D-17
   3   2   3   2 -0.20932210602801D+00 -0.15077186461127D-17
 Band:  2
   1   1   1   1 -0.20932210613243D+00  0.18973538018496D-18
   2   1   1   1  0.21504106338178D-09  0.44178643414022D-18
   3   1   1   1 -0.23580313049387D-13 -0.24103173383935D-17
   1   2   1   1  0.25831791912591D+00  0.16623372337621D-16
   2   2   1   1  0.17231368690615D-09 -0.61446093906076D-17
   3   2   1   1  0.35617180794869D-12 -0.66618466788668D-17
   1   1   2   1  0.21504106414072D-09  0.85925617284239D-18
   2   1   2   1 -0.23934800620108D+00  0.67762635780344D-18
   3   1   2   1  0.23958615584327D-09 -0.29375237043620D-18
   1   2   2   1 -0.17008340077948D-09  0.21494626157025D-17
   2   2   2   1 -0.16819896067601D+00  0.46037177011862D-16
   3   2   2   1 -0.19771797262825D-09 -0.31910118337242D-16
   1   1   3   1 -0.23579445687649D-13  0.28609388663328D-17
   2   1   3   1  0.23958615779484D-09 -0.23083328435290D-17
   3   1   3   1 -0.20932210603667D+00  0.11519648082658D-18
   1   2   3   1  0.36640270895463D-12 -0.91215999401380D-18
   2   2   3   1  0.20053100683702D-09 -0.25695999348957D-16
   3   2   3   1  0.25831791880474D+00 -0.91720427563372D-17
   1   1   1   2  0.25831791912591D+00 -0.16623372337621D-16
   2   1   1   2 -0.17008340858573D-09 -0.41473913972569D-18
   3   1   1   2  0.36640617840158D-12 -0.42920104339166D-17
   1   2   1   2 -0.22452232692866D+01 -0.72234969741847D-17
   2   2   1   2 -0.21505068410092D-09 -0.25076032556123D-16
   3   2   1   2 -0.76405459785650D-12 -0.22819965985199D-16
   1   1   2   2  0.17231368256934D-09  0.96140563425612D-17
   2   1   2   2 -0.16819896067601D+00 -0.55578156129734D-16
   3   1   2   2  0.20053101898008D-09  0.15287658493096D-16
   1   2   2   2 -0.21505069797871D-09  0.26810756032100D-16
   2   2   2   2 -0.15466541287594D+01 -0.42283884726935D-17
   3   2   2   2 -0.23952926203256D-09 -0.21757754846143D-16
   1   1   3   2  0.35617354267217D-12  0.83965701548436D-17
   2   1   3   2 -0.19771797262825D-09  0.44053182669080D-16
   3   1   3   2  0.25831791880474D+00  0.22331488524299D-17
   1   2   3   2 -0.76406153675041D-12  0.22647171263959D-16
   2   2   3   2 -0.23952926203256D-09  0.10048371383299D-16
   3   2   3   2 -0.22452232688354D+01 -0.60579796387628D-17
 Band:  3
   1   1   1   1 -0.29186051410954D+01 -0.16046192152785D-16
   2   1   1   1 -0.82284560088291D-10 -0.54310654952518D-16
   3   1   1   1 -0.26606496140395D-12 -0.60414283412187D-16
   1   2   1   1 -0.55399126141445D+00  0.50273507066760D-16
   2   2   1   1  0.12982636537900D-09  0.87971309058847D-16
   3   2   1   1  0.70155593980643D-12 -0.85187538536912D-17
   1   1   2   1 -0.82284608660549D-10  0.43902314096657D-16
   2   1   2   1 -0.12337274277493D+01 -0.69388939039072D-17
   3   1   2   1 -0.55044917267718D-10  0.96379138749532D-16
   1   2   2   1 -0.12757289065552D-09  0.24313349396258D-16
   2   2   2   1  0.15507146404045D-01 -0.26180113998811D-16
   3   2   2   1 -0.12399667839220D-09 -0.33390570066171D-16
   1   1   3   1 -0.26603026693443D-12  0.61715326019170D-16
   2   1   3   1 -0.55045007473339D-10 -0.65154116181949D-16
   3   1   3   1 -0.29186051412090D+01 -0.16913553890774D-16
   1   2   3   1  0.69504192440513D-12  0.31434245214805D-16
   2   2   3   1  0.12697135640661D-09 -0.31144456727814D-16
   3   2   3   1 -0.55399126169654D+00  0.45363147138737D-16
   1   1   1   2 -0.55399126141445D+00 -0.53742954018713D-16
   2   1   1   2 -0.12757292534999D-09 -0.27782796348212D-16
   3   1   1   2  0.69500722993561D-12 -0.26230074786875D-16
   1   2   1   2 -0.85945546967764D+00  0.10842021724855D-18
   2   2   1   2  0.87555394193549D-10  0.22547916832625D-16
   3   2   1   2  0.77856255784828D-12 -0.13066626109592D-16
   1   1   2   2  0.12982628211227D-09 -0.70624074299079D-16
   2   1   2   2  0.15507146404045D-01 -0.20657419852563D-16
   3   1   2   2  0.12697140150942D-09  0.51961138439535D-16
   1   2   2   2  0.87555404601890D-10 -0.29486810736532D-16
   2   2   2   2  0.25858397388303D-01 -0.12576745200832D-16
   3   2   2   2  0.62253616897843D-10  0.43368034653436D-17
   1   1   3   2  0.70153512312472D-12  0.67840303777144D-17
   2   1   3   2 -0.12399673390335D-09  0.19512782258356D-16
   3   1   3   2 -0.55399126169654D+00 -0.19342294999085D-16
   1   2   3   2  0.77854868006048D-12  0.13283466544089D-16
   2   2   3   2  0.62253632510354D-10 -0.32092379080973D-16
   3   2   3   2 -0.85945546965743D+00 -0.46620693416877D-17
 Band:  4
   1   1   1   1 -0.85945546968446D+00 -0.21684043449710D-17
   2   1   1   1  0.81313381685852D-10  0.46768906516347D-16
   3   1   1   1  0.74370085014364D-12  0.18632265879093D-16
   1   2   1   1 -0.55399126141934D+00  0.10896546596621D-16
   2   2   1   1 -0.12996988429850D-09 -0.39629125745829D-16
   3   2   1   1  0.66965424421663D-12  0.23600744695153D-16
   1   1   2   1  0.81313379951129D-10 -0.29421671756579D-16
   2   1   2   1  0.25858397389419D-01 -0.60715321659188D-17
   3   1   2   1  0.54209120866009D-10 -0.11647712833511D-15
   1   2   2   1  0.12738064081917D-09 -0.45715808803242D-16
   2   2   2   1  0.15507146399797D-01 -0.45463621720295D-17
   3   2   2   1  0.12389629718531D-09 -0.24647849278498D-16
   1   1   3   1  0.74371125848450D-12 -0.14674927949521D-16
   2   1   3   1  0.54209110457668D-10  0.74843764911667D-16
   3   1   3   1 -0.85945546966307D+00  0.66136332521616D-17
   1   2   3   1  0.69071736719974D-12  0.51559756955345D-17
   2   2   3   1 -0.12712395179526D-09 -0.59704139059825D-16
   3   2   3   1 -0.55399126169863D+00  0.11531911584788D-15
   1   1   1   2 -0.55399126141934D+00  0.81854116391237D-17
   2   1   1   2  0.12738066163585D-09  0.38776914899335D-16
   3   1   1   2  0.69074512277535D-12 -0.17299040027372D-16
   1   2   1   2 -0.29186051411977D+01 -0.18648277366751D-16
   2   2   1   2 -0.88346354142616D-10 -0.76529370308947D-16
   3   2   1   2 -0.23113666928635D-12  0.13846507604970D-15
   1   1   2   2 -0.12996987042071D-09  0.36159678793875D-16
   2   1   2   2  0.15507146399797D-01 -0.24076575181588D-16
   3   1   2   2 -0.12712392750913D-09  0.52765245155918D-16
   1   2   2   2 -0.88346381898192D-10  0.62651582501132D-16
   2   2   2   2 -0.12337274277939D+01 -0.33827107781548D-16
   3   2   2   2 -0.63263124180979D-10  0.66528823513957D-16
   1   1   3   2  0.66961261085320D-12 -0.23600744695153D-16
   2   1   3   2  0.12389629024641D-09  0.62811765749988D-16
   3   1   3   2 -0.55399126169863D+00 -0.11011494541995D-15
   1   2   3   2 -0.23102564698389D-12 -0.13841086594108D-15
   2   2   3   2 -0.63263068669827D-10 -0.80406611321772D-16
   3   2   3   2 -0.29186051412851D+01 -0.15720931501040D-16
 Band:  5
   1   1   1   1 -0.10622105595166D+01 -0.43910187985663D-16
   2   1   1   1 -0.13565762791991D-09 -0.17364387811934D-17
   3   1   1   1  0.84616352770642D-03 -0.20750767686804D-18
   1   2   1   1  0.25462074673533D+00 -0.10422330265000D-16
   2   2   1   1 -0.12777597926073D-09  0.52129865080338D-17
   3   2   1   1  0.12554331263324D-03  0.27152057541187D-16
   1   1   2   1 -0.13565767649217D-09  0.17153052165637D-20
   2   1   2   1 -0.52221123572609D+00 -0.59631119486703D-18
   3   1   2   1 -0.11503858614475D-09  0.77967810440831D-16
   1   2   2   1  0.12712182923823D-09 -0.52257732666762D-17
   2   2   2   1 -0.45770835896871D-01 -0.39031278328910D-17
   3   2   2   1  0.61251758309357D-10  0.84733505475088D-16
   1   1   3   1  0.84616352770643D-03  0.18530524391873D-16
   2   1   3   1 -0.11503858657843D-09 -0.70595235667929D-16
   3   1   3   1  0.14169706810523D+01 -0.10714627969588D-15
   1   2   3   1  0.12554331241165D-03 -0.10075859493850D-16
   2   2   3   1 -0.64991196853482D-10 -0.87684289516426D-16
   3   2   3   1  0.96262489771335D-01 -0.15579421800387D-15
   1   1   1   2  0.25462074673533D+00  0.45116799784536D-16
   2   1   1   2  0.12712181362572D-09  0.69604967426530D-17
   3   1   1   2  0.12554331241165D-03  0.13545306445803D-16
   1   2   1   2 -0.19773941843030D+00 -0.43368086899420D-18
   2   2   1   2  0.13547183420979D-09  0.35108384837269D-17
   3   2   1   2 -0.28112894111269D-03 -0.30422997722151D-17
   1   1   2   2 -0.12777598619962D-09 -0.69477099840106D-17
   2   1   2   2 -0.45770835896871D-01 -0.20816681699779D-16
   3   1   2   2 -0.64991193384036D-10  0.93972662116842D-16
   1   2   2   2  0.13547184375077D-09 -0.35108384837269D-17
   2   2   2   2 -0.16299981972270D+00  0.53125906451790D-17
   3   2   2   2  0.11680287577357D-09  0.55157527835081D-16
   1   1   3   2  0.12554331263324D-03 -0.25200493630714D-16
   2   1   3   2  0.61251744865250D-10 -0.74542005053725D-16
   3   1   3   2  0.96262489771335D-01 -0.16316450861421D-15
   1   2   3   2 -0.28112894111269D-03  0.74875286794057D-17
   2   2   3   2  0.11680287533989D-09 -0.49736516972653D-16
   3   2   3   2  0.33078461404988D+00 -0.36795111228727D-16
 Band:  6
   1   1   1   1 -0.19773877796259D+00 -0.20383000842727D-16
   2   1   1   1  0.13520993974759D-09 -0.69351835741498D-17
   3   1   1   1  0.71564516443355D-03 -0.58307776913304D-17
   1   2   1   1  0.25462069559205D+00  0.10403947182273D-16
   2   2   1   1  0.12827030370914D-09 -0.33864976048238D-17
   3   2   1   1  0.54554828093444D-04 -0.43067602382236D-17
   1   1   2   1  0.13520994061495D-09 -0.52078807576879D-17
   2   1   2   1 -0.16299993530894D+00 -0.48789097761848D-17
   3   1   2   1  0.11501200191875D-09  0.25508465431897D-16
   1   2   2   1 -0.12689069002588D-09 -0.13893784475315D-16
   2   2   2   1 -0.45770835896859D-01  0.86736173722208D-17
   3   2   2   1 -0.61176824984302D-10  0.57960414409538D-16
   1   1   3   1  0.71564516443355D-03  0.11143368336509D-16
   2   1   3   1  0.11501200300295D-09 -0.21171656741955D-16
   3   1   3   1  0.33078404490259D+00  0.83348042009823D-17
   1   2   3   1  0.54554827852019D-04 -0.75681728395369D-17
   2   2   3   1  0.65297553771076D-10  0.89567720062850D-16
   3   2   3   1  0.96262540895056D-01 -0.41850817973817D-15
   1   1   1   2  0.25462069559205D+00  0.31229416241171D-16
   2   1   1   2 -0.12689071431200D-09 -0.17187268084761D-17
   3   1   1   2  0.54554827852015D-04 -0.11054445403472D-17
   1   2   1   2 -0.10622102285482D+01 -0.36862873864507D-17
   2   2   1   2 -0.13561587530073D-09  0.69727514689807D-17
   3   2   1   2 -0.47010946909467D-03 -0.75268450866769D-17
   1   1   2   2  0.12827031932165D-09 -0.10491290202991D-16
   2   1   2   2 -0.45770835896859D-01 -0.27321894738971D-16
   3   1   2   2  0.65297556373161D-10 -0.80460421813971D-16
   1   2   2   2 -0.13561590305631D-09 -0.17685810410503D-17
   2   2   2   2 -0.52221112014387D+00  0.53125906451790D-17
   3   2   2   2 -0.11645162316638D-09 -0.11346987831533D-15
   1   1   3   2  0.54554828093428D-04  0.40899198037265D-17
   2   1   3   2 -0.61176810239152D-10 -0.59911978320011D-16
   3   1   3   2  0.96262540895056D-01  0.38591435192783D-15
   1   2   3   2 -0.47010946909466D-03 -0.71309142421298D-18
   2   2   3   2 -0.11645162099797D-09  0.85063781396208D-16
   3   2   3   2  0.14169702786477D+01 -0.35136281904824D-15
 Band:  7
   1   1   1   1  0.14198933821203D+01 -0.14255903315469D-15
   2   1   1   1 -0.10822841296951D-09 -0.52584253192898D-16
   3   1   1   1 -0.11828317103709D-02  0.43691715590752D-16
   1   2   1   1  0.96262543353299D-01 -0.64039257420389D-16
   2   2   1   1 -0.45040548246731D-10  0.47925189633427D-16
   3   2   1   1 -0.13027701738367D-03  0.99125346103675D-17
   1   1   2   1 -0.10822842251049D-09  0.56487381013846D-16
   2   1   2   1 -0.52317787397934D+00 -0.58004816227974D-17
   3   1   2   1 -0.15231318220055D-09  0.17324940593832D-16
   1   2   2   1  0.52433897108988D-10  0.63173925601809D-16
   2   2   2   1 -0.45770835844564D-01  0.56378512957383D-17
   3   2   2   1  0.14676431849053D-09  0.51834004964181D-17
   1   1   3   1 -0.11828317103710D-02 -0.54858997967353D-16
   2   1   3   1 -0.15231316832277D-09 -0.36406898829577D-16
   3   1   3   1 -0.10645366248217D+01 -0.31875543871074D-16
   1   2   3   1 -0.13027701703617D-03 -0.11565061364781D-16
   2   2   3   1 -0.14739655286449D-09  0.12132690650603D-16
   3   2   3   1  0.25462069333066D+00 -0.24275662398068D-16
   1   1   1   2  0.96262543353299D-01 -0.13564367769713D-15
   2   1   1   2  0.52433906649967D-10 -0.68811776898734D-16
   3   1   1   2 -0.13027701703617D-03  0.11565061364781D-16
   1   2   1   2  0.32786090261836D+00 -0.64618449480136D-16
   2   2   1   2  0.10005893093720D-09  0.14659030055370D-16
   3   2   1   2  0.59649206753991D-03 -0.95995579150003D-17
   1   1   2   2 -0.45040554751944D-10 -0.43371540508988D-16
   2   1   2   2 -0.45770835844564D-01 -0.25587171269472D-16
   3   1   2   2 -0.14739657021173D-09 -0.17336861078533D-16
   1   2   2   2  0.10005893028668D-09 -0.13791668317381D-16
   2   2   2   2 -0.16203318141925D+00 -0.37404974950750D-17
   3   2   2   2  0.15202688504409D-09 -0.17087209615411D-17
   1   1   3   2 -0.13027701738367D-03 -0.11647258086344D-16
   2   1   3   2  0.14676433930721D-09 -0.13857017876302D-16
   3   1   3   2  0.25462069333066D+00  0.17336768494160D-16
   1   2   3   2  0.59649206753990D-03  0.78648344390235D-17
   2   2   3   2  0.15202689285034D-09  0.51781679134947D-17
   3   2   3   2 -0.19541234170376D+00  0.34694469519536D-17
 Band:  8
   1   1   1   1  0.32786127309130D+00  0.50171455531767D-16
   2   1   1   1  0.10889275006478D-09 -0.47122197166816D-16
   3   1   1   1 -0.37897698235384D-03 -0.22196886953247D-16
   1   2   1   1  0.96262488036965D-01 -0.17903512794792D-15
   2   2   1   1  0.44538599918460D-10  0.12720646102124D-17
   3   2   1   1 -0.49821121978204D-04  0.10713475502199D-17
   1   1   2   1  0.10889275418475D-09  0.44086431083856D-16
   2   1   2   1 -0.16203306583876D+00  0.14094628242312D-17
   3   1   2   1  0.15217872508443D-09 -0.51991407753657D-17
   1   2   2   1 -0.52075305984908D-10  0.18145715786369D-17
   2   2   2   1 -0.45770835844647D-01  0.43368086936700D-17
   3   2   2   1 -0.14619224912374D-09 -0.24285205549678D-16
   1   1   3   1 -0.37897698235383D-03  0.16775876090820D-16
   2   1   3   1  0.15217872942123D-09  0.15607481631227D-16
   3   1   3   1 -0.19541278353636D+00 -0.91072982488782D-17
   1   2   3   1 -0.49821121881742D-04  0.14928512821247D-16
   2   2   3   1  0.14761658595407D-09 -0.17126719276462D-17
   3   2   3   1  0.25462074864306D+00  0.13869498166153D-16
   1   1   1   2  0.96262488036965D-01  0.33587852472510D-15
   2   1   1   2 -0.52075320513218D-10 -0.22482524476311D-17
   3   1   1   2 -0.49821121881742D-04 -0.24252651504623D-16
   1   2   1   2  0.14198940620623D+01 -0.25152135148948D-15
   2   2   1   2 -0.10000558738079D-09 -0.25757230069119D-17
   3   2   1   2  0.15474634208721D-03  0.29945565502958D-16
   1   1   2   2  0.44538602520545D-10 -0.45246711276689D-17
   2   1   2   2 -0.45770835844647D-01 -0.11709383466571D-16
   3   1   2   2  0.14761658421935D-09  0.51821188795998D-17
   1   2   2   2 -0.10000557393668D-09 -0.11105643795388D-17
   2   2   2   2 -0.52317798956404D+00  0.29273458657109D-17
   3   2   2   2 -0.15252629319048D-09  0.31214472428153D-16
   1   1   3   2 -0.49821121978201D-04  0.17475780982424D-17
   2   1   3   2 -0.14619226300153D-09  0.20815758597725D-16
   3   1   3   2  0.25462074864306D+00 -0.69306042622461D-17
   1   2   3   2  0.15474634208725D-03 -0.26692958985501D-16
   2   2   3   2 -0.15252634176274D-09 -0.27745025476200D-16
   3   2   3   2 -0.10645372334721D+01 -0.97578195523695D-17
 K-point:  5.00000000E-01  0.00000000E+00  0.00000000E+00
 Band:  1
   1   1   1   1 -0.15398951650427D+01  0.43097036356299D-17
   2   1   1   1 -0.22131538713935D-09 -0.26778964925738D-16
   3   1   1   1 -0.25667655734134D-09  0.35820852894783D-17
   1   2   1   1 -0.16819896071730D+00  0.40836201819266D-16
   2   2   1   1  0.17291893629386D-09 -0.66356269324121D-17
   3   2   1   1  0.21167623093541D-09 -0.37700383260310D-16
   1   1   2   1 -0.22131536979211D-09  0.31983135353669D-16
   2   1   2   1 -0.22346973628415D+01 -0.68169211595026D-17
   3   1   2   1 -0.75126466462724D-12  0.14093281695406D-16
   1   2   2   1 -0.17413986600803D-09  0.43518698485303D-16
   2   2   2   1  0.25831791921450D+00 -0.30496309213236D-16
   3   2   2   1  0.35474559758903D-12  0.95652599909541D-17
   1   1   3   1 -0.25667658509692D-09 -0.79188939794203D-17
   2   1   3   1 -0.75129935909676D-12 -0.11315013628412D-16
   3   1   3   1 -0.22346973622702D+01 -0.43232561627859D-17
   1   2   3   1 -0.21349887882176D-09 -0.49737621283269D-16
   2   2   3   1  0.34250567334561D-12 -0.16022454721197D-17
   3   2   3   1  0.25831791880755D+00 -0.27341585260550D-16
   1   1   1   2 -0.16819896071730D+00 -0.48642457461162D-16
   2   1   1   2 -0.17413986774275D-09 -0.43518698485303D-16
   3   1   1   2 -0.21349888576065D-09  0.47135536069304D-16
   1   2   1   2 -0.24610696989460D+00  0.28731357570866D-17
   2   2   1   2  0.22047864371236D-09 -0.16488325918878D-17
   3   2   1   2  0.25561583755198D-09  0.77891609892431D-17
   1   1   2   2  0.17291893455914D-09  0.22988182424701D-17
   2   1   2   2  0.25831791921450D+00  0.28761585737259D-16
   3   1   2   2  0.34251434696299D-12 -0.36019249558107D-17
   1   2   2   2  0.22047864338710D-09  0.25161943298762D-17
   2   2   2   2 -0.21984801273825D+00 -0.70473141211558D-18
   3   2   2   2 -0.20330356050990D-13 -0.33639312508157D-17
   1   1   3   2  0.21167623006805D-09  0.32496212832380D-16
   2   1   3   2  0.35474212814208D-12 -0.78305365149773D-17
   3   1   3   2  0.25831791880755D+00  0.16065882666700D-16
   1   2   3   2  0.25561583874461D-09 -0.73554801202489D-17
   2   2   3   2 -0.20326886604038D-13  0.20493361166771D-17
   3   2   3   2 -0.21984801261517D+00 -0.21819568721271D-17
 Band:  2
   1   1   1   1 -0.24610696990434D+00 -0.32526065174565D-17
   2   1   1   1  0.22088139935830D-09 -0.81092906804783D-17
   3   1   1   1  0.25619175572854D-09 -0.41878250010064D-16
   1   2   1   1 -0.16819896071773D+00  0.11734179462606D-16
   2   2   1   1 -0.17241868804124D-09 -0.14317632812363D-17
   3   2   1   1 -0.21106596557018D-09  0.83425318219394D-16
   1   1   2   1  0.22088139957514D-09  0.42061628595305D-17
   2   1   2   1 -0.21984801274742D+00 -0.74538899358378D-18
   3   1   2   1 -0.19985693262554D-13  0.18094137411446D-17
   1   2   2   1  0.17465054144714D-09  0.67689379004925D-17
   2   2   2   1  0.25831791921717D+00  0.15666284336608D-16
   3   2   2   1  0.33394017802738D-12 -0.28391101853413D-17
   1   1   3   1  0.25619175952324D-09  0.39276164796098D-16
   2   1   3   1 -0.19986560624292D-13  0.57583103832347D-18
   3   1   3   1 -0.21984801262431D+00 -0.44723339615027D-18
   1   2   3   1  0.21409819429487D-09  0.53960548715420D-16
   2   2   3   1  0.34591472346029D-12 -0.30944805533458D-17
   3   2   3   1  0.25831791881017D+00 -0.17976571814706D-16
   1   1   1   2 -0.16819896071773D+00 -0.12167860331600D-16
   2   1   1   2  0.17465055532493D-09 -0.76362996384809D-17
   3   1   1   2  0.21409820123376D-09 -0.44419569597548D-16
   1   2   1   2 -0.15398951650298D+01  0.10245710529988D-16
   2   2   1   2 -0.22091177830816D-09  0.29463420934341D-18
   3   2   1   2 -0.25608576594959D-09  0.10261879628369D-15
   1   1   2   2 -0.17241869498014D-09 -0.29050454087057D-17
   2   1   2   2  0.25831791921717D+00 -0.35615604310342D-16
   3   1   2   2  0.34591298873681D-12 -0.10783307254469D-16
   1   2   2   2 -0.22091180953319D-09  0.36084936116044D-17
   2   2   2   2 -0.22346973628116D+01 -0.41064157282888D-17
   3   2   2   2 -0.73036780616487D-12 -0.44269256461167D-16
   1   1   3   2 -0.21106595516184D-09 -0.75619062577498D-16
   2   1   3   2  0.33392976968652D-12  0.37064719233297D-17
   3   1   3   2  0.25831791881017D+00  0.13639763124764D-16
   1   2   3   2 -0.25608575901070D-09 -0.10261879628369D-15
   2   2   3   2 -0.73034698948315D-12  0.42351573868583D-16
   3   2   3   2 -0.22346973622402D+01 -0.65729756706934D-17
 Band:  3
   1   1   1   1 -0.12235812601910D+01 -0.17130394325271D-16
   2   1   1   1 -0.89671764375313D-10 -0.29122260291992D-16
   3   1   1   1 -0.53700295240345D-10 -0.43689990253936D-16
   1   2   1   1  0.15507146361132D-01 -0.49468896595558D-16
   2   2   1   1 -0.12952589026374D-09 -0.18099252451744D-16
   3   2   1   1 -0.12530322099457D-09 -0.43605793431122D-16
   1   1   2   1 -0.89671604780753D-10  0.39530601147853D-16
   2   1   2   1 -0.29020183575422D+01 -0.16805133673525D-16
   3   1   2   1 -0.25667952464024D-12 -0.84581798648239D-16
   1   2   2   1  0.13168500879867D-09 -0.38515821178664D-16
   2   2   2   1 -0.55399126147196D+00  0.57588980889444D-16
   3   2   2   1  0.67027831310469D-12  0.21465319034329D-16
   1   1   3   1 -0.53700260545875D-10 -0.11821160977322D-16
   2   1   3   1 -0.25670034132196D-12  0.48586286521720D-16
   3   1   3   1 -0.29020183577398D+01  0.00000000000000D+00
   1   2   3   1  0.12840011173261D-09  0.58953780091149D-16
   2   2   3   1  0.65178732636811D-12  0.23215977984062D-16
   3   2   3   1 -0.55399126179833D+00 -0.95156800248599D-17
   1   1   1   2  0.15507146361132D-01  0.34723747049755D-16
   2   1   1   2  0.13168493594029D-09  0.72907986110815D-17
   3   1   1   2  0.12840011173261D-09 -0.69362120947010D-16
   1   2   1   2  0.15712229868958D-01 -0.22117724318704D-16
   2   2   1   2  0.94711593787621D-10  0.91011048562858D-16
   3   2   1   2  0.60998839311289D-10  0.34987781501692D-16
   1   1   2   2 -0.12952593536655D-09  0.11160358547836D-16
   2   1   2   2 -0.55399126147196D+00 -0.48915363509560D-16
   3   1   2   2  0.65180467360287D-12  0.62743211075438D-17
   1   2   2   2  0.94711562562599D-10 -0.77133260755044D-16
   2   2   2   2 -0.87604225337955D+00 -0.71557343384043D-17
   3   2   2   2  0.76721005308304D-12  0.67303147023475D-17
   1   1   3   2 -0.12530324875015D-09  0.22789111719401D-16
   2   1   3   2  0.67029912978640D-12 -0.58528077505379D-17
   3   1   3   2 -0.55399126179833D+00  0.16454573928767D-16
   1   2   3   2  0.60998815025161D-10 -0.62743357117321D-16
   2   2   3   2  0.76720658363609D-12 -0.16921815123711D-16
   3   2   3   2 -0.87604225335042D+00 -0.14636729328554D-16
 Band:  4
   1   1   1   1  0.15712229871758D-01 -0.22985086056693D-16
   2   1   1   1  0.88702011602991D-10  0.57424282024655D-16
   3   1   1   1  0.52803916553979D-10 -0.21332671583379D-16
   1   2   1   1  0.15507146356382D-01 -0.23041932441309D-16
   2   2   1   1  0.12931963860766D-09  0.22101431791838D-16
   3   2   1   1  0.12520476040036D-09 -0.43806667404316D-16
   1   1   2   1  0.88702013337714D-10 -0.40077047264887D-16
   2   1   2   1 -0.87604225338646D+00 -0.74809949901500D-17
   3   1   2   1  0.75510344504925D-12 -0.24429541961505D-17
   1   2   2   1 -0.13182646394139D-09  0.25664472091527D-16
   2   2   2   1 -0.55399126148049D+00 -0.70920846838020D-17
   3   2   2   1  0.66856351184363D-12 -0.10260005083729D-16
   1   1   3   1  0.52803921758150D-10  0.42149353295101D-16
   2   1   3   1  0.75508262836754D-12  0.74302841895838D-17
   3   1   3   1 -0.87604225336000D+00 -0.66136332521616D-17
   1   2   3   1 -0.12850310265174D-09  0.10933723641576D-15
   2   2   3   1  0.68611200163167D-12  0.79668709489143D-17
   3   2   3   1 -0.55399126179982D+00 -0.63245662273878D-16
   1   1   1   2  0.15507146356382D-01 -0.12519898816216D-16
   2   1   1   2 -0.13182641536913D-09  0.55605504760553D-17
   3   1   1   2 -0.12850308183506D-09 -0.10239834251185D-15
   1   2   1   2 -0.12235812602357D+01 -0.24502969098172D-16
   2   2   1   2 -0.95515817943718D-10 -0.97666655401569D-16
   3   2   1   2 -0.61980332445390D-10 -0.32810895821466D-15
   1   1   2   2  0.12931964901600D-09 -0.49857007407467D-16
   2   1   2   2 -0.55399126148049D+00  0.88268081597788D-17
   3   1   2   2  0.68616057388900D-12  0.21523428142691D-16
   1   2   2   2 -0.95515859577082D-10  0.66441632833987D-16
   2   2   2   2 -0.29020183576650D+01 -0.13010426069826D-16
   3   2   2   2 -0.18871796486630D-12  0.67494289165220D-16
   1   1   3   2  0.12520474999201D-09  0.29928879596502D-16
   2   1   3   2  0.66854616460887D-12  0.11994728559706D-16
   3   1   3   2 -0.55399126179982D+00  0.71919279653762D-16
   1   2   3   2 -0.61980367139859D-10  0.31423117040685D-15
   2   2   3   2 -0.18872490376021D-12 -0.64241682647763D-16
   3   2   3   2 -0.29020183578095D+01  0.26020852139652D-17
 Band:  5
   1   1   1   1 -0.51921029153985D+00 -0.21955093992831D-16
   2   1   1   1 -0.13542737757629D-09 -0.68243283093121D-17
   3   1   1   1 -0.12318689974487D-09  0.10042353945589D-15
   1   2   1   1 -0.45770835921704D-01  0.22985086058758D-16
   2   2   1   1  0.12567228064444D-09 -0.18999242084259D-16
   3   2   1   1  0.65008267777631D-10  0.18071570161664D-16
   1   1   2   1 -0.13542730818735D-09  0.10293775261266D-16
   2   1   2   1 -0.10549867808471D+01 -0.36320772778264D-16
   3   1   2   1  0.33229668762683D-02 -0.38435780140600D-18
   1   2   2   1 -0.12637333154997D-09 -0.51530698574426D-17
   2   2   2   1  0.25462061242214D+00  0.34949700992933D-17
   3   2   2   1  0.65015754582893D-03  0.45482120630100D-17
   1   1   3   1 -0.12318692056155D-09 -0.12037285942962D-15
   2   1   3   1  0.33229668762683D-02  0.21959981033868D-16
   3   1   3   1  0.14078946390065D+01 -0.10148132334464D-15
   1   2   3   1 -0.68771035453287D-10 -0.64417426697812D-16
   2   2   3   1  0.65015754494060D-03 -0.81435583339577D-17
   3   2   3   1  0.96262624180086D-01 -0.17391456714817D-15
   1   1   1   2 -0.45770835921704D-01 -0.20383000844793D-16
   2   1   1   2 -0.12637330379440D-09  0.10357240285373D-16
   3   1   1   2 -0.68771033284883D-10  0.66368990608286D-16
   1   2   1   2 -0.16600076388070D+00  0.56378512969246D-17
   2   2   1   2  0.13526853184877D-09 -0.35365631553736D-17
   3   2   1   2  0.12501322575977D-09 -0.18462419247006D-18
   1   1   2   2  0.12567228931806D-09  0.85909012283983D-17
   2   1   2   2  0.25462061242214D+00  0.45077287228057D-16
   3   1   2   2  0.65015754494061D-03  0.20720261680389D-17
   1   2   2   2  0.13526854746129D-09  0.10475457059281D-16
   2   2   2   2 -0.20496064486807D+00 -0.48789097761848D-17
   3   2   2   2 -0.39679348291271D-03  0.38182305101289D-17
   1   1   3   2  0.65008258236652D-10 -0.18505251030659D-16
   2   1   3   2  0.65015754582894D-03 -0.49818929320042D-17
   3   1   3   2  0.96262624180085D-01  0.10737165881187D-15
   1   2   3   2  0.12501322467557D-09 -0.56700675389517D-17
   2   2   3   2 -0.39679348291271D-03  0.10606792660559D-17
   3   2   3   2  0.33985810378347D+00 -0.75961914709766D-16
 Band:  6
   1   1   1   1 -0.16600410034969D+00 -0.92157184661268D-18
   2   1   1   1  0.13456239114176D-09 -0.86522665342498D-17
   3   1   1   1  0.12292809559355D-09 -0.43140074206118D-16
   1   2   1   1 -0.45770835921726D-01  0.15178830402813D-16
   2   2   1   1 -0.12546320332369D-09  0.17929738610241D-17
   3   2   1   1 -0.65692063338076D-10 -0.14333309062502D-16
   1   1   2   1  0.13456238680495D-09  0.34480961063194D-17
   2   1   2   1 -0.20494221452829D+00  0.29815559743351D-17
   3   1   2   1  0.33434683824785D-02 -0.34873957308573D-18
   1   2   2   1  0.12743709270478D-09 -0.45823618918248D-17
   2   2   2   1  0.25461884852944D+00  0.17240333013889D-16
   3   2   2   1 -0.46853287583808D-03 -0.40818007665978D-17
   1   1   3   1  0.12292809450935D-09  0.44441116813101D-16
   2   1   3   1  0.33434683824785D-02  0.13245215283227D-17
   3   1   3   1  0.33984173278011D+00 -0.47149241975963D-16
   1   2   3   1  0.69215640705215D-10  0.63279224495133D-16
   2   2   3   1 -0.46853287801266D-03  0.31926991298410D-17
   3   2   3   1  0.96264388048835D-01 -0.13379858286983D-15
   1   1   1   2 -0.45770835921726D-01 -0.14311468664825D-16
   2   1   1   2  0.12743709097005D-09 -0.40912554880593D-17
   3   1   1   2  0.69215643307300D-10 -0.57858213632705D-16
   1   2   1   2 -0.51920695507542D+00 -0.29815559743351D-17
   2   2   1   2 -0.13520039561116D-09 -0.38394922341210D-17
   3   2   1   2 -0.12405894934618D-09 -0.54391432955540D-16
   1   1   2   2 -0.12546318944591D-09 -0.17929738610241D-17
   2   1   2   2  0.25461884852944D+00  0.10690174587869D-18
   3   1   2   2 -0.46853287801266D-03  0.24451521670836D-17
   1   2   2   2 -0.13520034703890D-09  0.38394922341210D-17
   2   2   2   2 -0.10549717094231D+01 -0.12305694657710D-16
   3   2   2   2 -0.54522010276911D-02  0.26625328716546D-16
   1   1   3   2 -0.65692061169672D-10  0.18453277317946D-16
   2   1   3   2 -0.46853287583808D-03  0.13839620318967D-16
   3   1   3   2  0.96264388048835D-01 -0.10572878208653D-15
   1   2   3   2 -0.12405891855483D-09  0.58511401210985D-16
   2   2   3   2 -0.54522010276911D-02 -0.33564222620453D-16
   3   2   3   2  0.14078775080997D+01 -0.30787275940442D-15
 Band:  7
   1   1   1   1 -0.51818186451005D+00 -0.11058862159352D-16
   2   1   1   1 -0.10726858883859D-09 -0.32462274184362D-17
   3   1   1   1 -0.16393967301670D-09 -0.14916917565423D-17
   1   2   1   1 -0.45770835851457D-01  0.22985086047889D-16
   2   2   1   1  0.50503706294852D-10  0.58924801784137D-16
   3   2   1   1  0.15855640489656D-09  0.21702623407506D-17
   1   1   2   1 -0.10726859621117D-09  0.10185121322343D-16
   2   1   2   1  0.14047766079766D+01 -0.18166485026352D-15
   3   1   2   1 -0.61325366642617D-02 -0.21706123697351D-16
   1   2   2   1 -0.54037289621056D-10 -0.10696372127888D-15
   2   2   2   1  0.96264421326545D-01 -0.17959230824729D-15
   3   2   2   1 -0.63079571444950D-03  0.44224777084650D-17
   1   1   3   1 -0.16393965220002D-09  0.13634756088380D-16
   2   1   3   1 -0.61325366642617D-02 -0.53989306147863D-17
   3   1   3   1 -0.10525035217424D+01 -0.50198560586079D-16
   1   2   3   1 -0.15847304149267D-09 -0.10368424239975D-16
   2   2   3   1 -0.63079571206069D-03  0.60613317925534D-17
   3   2   3   1  0.25461881550152D+00  0.27870846882107D-16
   1   1   1   2 -0.45770835851457D-01 -0.22985086047889D-16
   2   1   1   2 -0.54037297427311D-10  0.10891528518936D-15
   3   1   1   2 -0.15847302761488D-09  0.10368424239975D-16
   1   2   1   2 -0.16702919084011D+00  0.97578195523695D-18
   2   2   1   2  0.10892840549788D-09 -0.79276926906121D-17
   3   2   1   2  0.16310496767725D-09 -0.31271509129330D-16
   1   1   2   2  0.50503700223319D-10 -0.60009003956622D-16
   2   1   2   2  0.96264421326545D-01  0.68149877442939D-16
   3   1   2   2 -0.63079571206071D-03 -0.12349704392969D-16
   1   2   2   2  0.10892840549788D-09  0.10529777904577D-16
   2   2   2   2  0.34294201071539D+00  0.16005534571317D-16
   3   2   2   2  0.32935053431757D-02  0.15819325358408D-16
   1   1   3   2  0.15855641183546D-09  0.82380785151103D-17
   2   1   3   2 -0.63079571444950D-03  0.98889909683436D-17
   3   1   3   2  0.25461881550152D+00  0.24170857397197D-16
   1   2   3   2  0.16310497678455D-09  0.27802062177377D-16
   2   2   3   2  0.32935053431757D-02 -0.13434080578939D-16
   3   2   3   2 -0.20740977856069D+00 -0.72641545556529D-17
 Band:  8
   1   1   1   1 -0.16702585437746D+00 -0.14094628242312D-17
   2   1   1   1  0.10795155880838D-09  0.18366420897690D-17
   3   1   1   1  0.16399685485112D-09 -0.16994623947914D-17
   1   2   1   1 -0.45770835851464D-01  0.17347234767756D-17
   2   2   1   1 -0.50163639556018D-10 -0.84578943449234D-16
   3   2   1   1 -0.15722052586237D-09  0.13877467053517D-16
   1   1   2   1  0.10795156455465D-09 -0.53060890417226D-17
   2   1   2   1  0.34295770518538D+00 -0.93512437376875D-16
   3   1   2   1 -0.53389859523065D-03  0.19701659852686D-16
   1   2   2   1  0.53587013745061D-10  0.54002355228889D-16
   2   2   2   1  0.96262591821234D-01 -0.64601135447315D-16
   3   2   2   1  0.44917104576585D-03 -0.52126584808527D-16
   1   1   3   1  0.16399685832056D-09  0.69036328227218D-17
   2   1   3   1 -0.53389859523064D-03 -0.21870064197657D-16
   3   1   3   1 -0.20742753240949D+00 -0.76978354246471D-17
   1   2   3   1  0.15863973166481D-09 -0.15547525387572D-16
   2   2   3   1  0.44917104643797D-03 -0.10628489892192D-16
   3   2   3   1  0.25462064501201D+00 -0.24281669208547D-16
   1   1   1   2 -0.45770835851464D-01 -0.86736173806828D-17
   2   1   1   2  0.53587008107209D-10 -0.56170759573860D-16
   3   1   1   2  0.15863972472591D-09  0.16697375797575D-17
   1   2   1   2 -0.51818520097718D+00 -0.33610267347051D-17
   2   2   1   2 -0.10922084882062D-09 -0.33088572969298D-16
   3   2   1   2 -0.16423849087703D-09 -0.19151472247062D-16
   1   1   2   2 -0.50163661023221D-10  0.79808453890297D-16
   2   1   2   2  0.96262591821234D-01 -0.69582435924922D-16
   3   1   2   2  0.44917104643796D-03  0.99779685887011D-17
   1   2   2   2 -0.10922086226473D-09  0.34172775141783D-16
   2   2   2   2  0.14047956613747D+01 -0.27937179479520D-15
   3   2   2   2  0.25554891668672D-02 -0.15451766352597D-15
   1   1   3   2 -0.15722054667905D-09 -0.69385731496097D-17
   2   1   3   2  0.44917104576585D-03  0.46271893077105D-16
   3   1   3   2  0.25462064501201D+00  0.10403881400732D-16
   1   2   3   2 -0.16423855332707D-09  0.10477854867178D-16
   2   2   3   2  0.25554891668672D-02  0.12871365182081D-15
   3   2   3   2 -0.10525205157946D+01  0.61799523831674D-17
 K-point:  5.00000000E-01  5.00000000E-01  5.00000000E-01
 Band:  1
   1   1   1   1 -0.61761112773378D+01 -0.79833872710871D-17
   2   1   1   1 -0.13477678174889D-11 -0.66793305773129D-16
   3   1   1   1 -0.17636998632387D-11  0.88442409915417D-16
   1   2   1   1  0.45103553221225D+00 -0.50499820005207D-17
   2   2   1   1  0.76952228362246D-12  0.15697224784746D-17
   3   2   1   1  0.10229599556755D-11  0.58753094096498D-17
   1   1   2   1 -0.13478198591932D-11  0.72285400401496D-16
   2   1   2   1 -0.61761112775917D+01 -0.18704564525893D-16
   3   1   2   1 -0.17555995719676D-11 -0.42379518668830D-16
   1   2   2   1  0.77689684384059D-12  0.13600317167750D-16
   2   2   2   1  0.45103553241059D+00 -0.54137652539237D-17
   3   2   2   1  0.99449482733626D-12  0.12361012633683D-16
   1   1   3   1 -0.17636855517700D-11 -0.96863168935392D-16
   2   1   3   1 -0.17554831286543D-11  0.33195532505362D-16
   3   1   3   1 -0.61761112762838D+01 -0.15724150887984D-16
   1   2   3   1  0.99540307027242D-12  0.10698725497888D-16
   2   2   3   1  0.95996068760111D-12  0.65814586484380D-17
   3   2   3   1  0.45103553144105D+00 -0.24028566077133D-18
   1   1   1   2  0.45103553221225D+00  0.62249755170400D-17
   2   1   1   2  0.77689710133860D-12 -0.13880473315055D-16
   3   1   1   2  0.99540851500020D-12 -0.10833933132094D-16
   1   2   1   2 -0.51606384518006D-01  0.21266813548738D-20
   2   2   1   2 -0.90510209881099D-13  0.27196175673764D-17
   3   2   1   2 -0.12396949106420D-12 -0.49816880122105D-18
   1   1   2   2  0.76952659332609D-12 -0.15645079318931D-17
   2   1   2   2  0.45103553241059D+00  0.61538338218075D-17
   3   1   2   2  0.95995755696734D-12 -0.66862260361015D-17
   1   2   2   2 -0.90509813046163D-13 -0.27059814949784D-17
   2   2   2   2 -0.51606384549214D-01  0.11574738311455D-19
   3   2   2   2 -0.12038943600890D-12  0.57386423972472D-19
   1   1   3   2  0.10229669555558D-11 -0.64394598223007D-17
   2   1   3   2  0.99449006701110D-12 -0.12487591119738D-16
   3   1   3   2  0.45103553144105D+00  0.13272142205558D-17
   1   2   3   2 -0.12396999674287D-12  0.48473456089257D-18
   2   2   3   2 -0.12038887495545D-12 -0.56251532172050D-19
   3   2   3   2 -0.51606384395736D-01 -0.26321714272050D-19
 Band:  2
   1   1   1   1 -0.51606384520829D-01 -0.54025647347676D-19
   2   1   1   1 -0.11229910468061D-12 -0.68857418838461D-17
   3   1   1   1 -0.12403566085453D-12  0.29327437786729D-17
   1   2   1   1  0.45103553223203D+00  0.11536533208386D-16
   2   2   1   1  0.86152147292214D-12  0.37313285933848D-16
   3   2   1   1  0.97548847526139D-12  0.11506849812432D-16
   1   1   2   1 -0.11229943354116D-12  0.68745203516562D-17
   2   1   2   1 -0.51606384552035D-01 -0.32430443095754D-19
   3   1   2   1 -0.11468180719657D-12  0.70786850523267D-17
   1   2   2   1  0.85411476610960D-12 -0.59268977636217D-16
   2   2   2   1  0.45103553243043D+00 -0.26335419792487D-16
   3   2   2   1  0.90845681536200D-12 -0.19208293034268D-16
   1   1   3   1 -0.12403514162333D-12 -0.29196817696201D-17
   2   1   3   1 -0.11468231435755D-12 -0.70940879825131D-17
   3   1   3   1 -0.51606384398546D-01 -0.53269604267802D-19
   1   2   3   1  0.10031582904852D-11  0.22061547769311D-16
   2   2   3   1  0.94346880026401D-12  0.54842134947056D-16
   3   2   3   1  0.45103553146079D+00  0.13934201169269D-16
   1   1   1   2  0.45103553223203D+00 -0.12777436476114D-16
   2   1   1   2  0.85411078505474D-12  0.59627934317395D-16
   3   1   1   2  0.10031569725019D-11 -0.21786632638368D-16
   1   2   1   2 -0.61761112774742D+01  0.20608207381940D-16
   2   2   1   2 -0.15956064594591D-11 -0.24466211512401D-15
   3   2   1   2 -0.16759664402816D-11 -0.20021470456311D-15
   1   1   2   2  0.86151900975033D-12 -0.37011795144185D-16
   2   1   2   2  0.45103553243043D+00  0.25416177286479D-16
   3   1   2   2  0.94346337247688D-12 -0.54631197273410D-16
   1   2   2   2 -0.15956611032486D-11  0.24689459949668D-15
   2   2   2   2 -0.61761112777296D+01 -0.26490616281327D-17
   3   2   2   2 -0.15663809225380D-11  0.98164159259305D-16
   1   1   3   2  0.97548773664866D-12 -0.11715696373489D-16
   2   1   3   2  0.90845327137615D-12  0.19865828829353D-16
   3   1   3   2  0.45103553146079D+00 -0.15792167939071D-16
   1   2   3   2 -0.16760486228062D-11  0.19501347807098D-15
   2   2   3   2 -0.15662748875656D-11 -0.98709132316634D-16
   3   2   3   2 -0.61761112764207D+01  0.39315563642400D-18
 Band:  3
   1   1   1   1  0.15889458134138D+01 -0.46637634075822D-17
   2   1   1   1  0.13306303645251D+01 -0.87630671859177D-16
   3   1   1   1  0.72197177025915D+00 -0.86541924872472D-16
   1   2   1   1 -0.18449035875894D+00 -0.28368413012548D-16
   2   2   1   1 -0.16969978209811D+00 -0.98752597648275D-16
   3   2   1   1 -0.87715826157693D-01 -0.11756481629355D-15
   1   1   2   1  0.13306303645251D+01  0.84090074139654D-16
   2   1   2   1  0.61782549549518D+00 -0.36286891460374D-17
   3   1   2   1  0.48641490447436D+00 -0.30087621900050D-16
   1   2   2   1 -0.16969978210382D+00 -0.34492280326082D-16
   2   2   2   1 -0.17954717475814D+00 -0.10075375517877D-15
   3   2   2   1 -0.96989974947844D-01 -0.92891503619785D-16
   1   1   3   1  0.72197177025915D+00  0.96927395838757D-16
   2   1   3   1  0.48641490447436D+00  0.35611970782043D-16
   3   1   3   1  0.15808062492401D-01  0.14772254600115D-17
   1   2   3   1 -0.87715826167303D-01 -0.26227854285999D-16
   2   2   3   1 -0.96989974825373D-01 -0.16693369237022D-16
   3   2   3   1 -0.35194360519178D-01 -0.16895695537217D-16
   1   1   1   2 -0.18449035875894D+00  0.35659672622513D-16
   2   1   1   2 -0.16969978210382D+00  0.39337308784377D-16
   3   1   1   2 -0.87715826167303D-01  0.21474305386008D-16
   1   2   1   2 -0.41633155901767D-01  0.47162794503119D-17
   2   2   1   2  0.29148757050499D+00 -0.28545776614342D-16
   3   2   1   2  0.11648195737885D+00 -0.17660111505394D-16
   1   1   2   2 -0.16969978209811D+00  0.96560476380780D-16
   2   1   2   2 -0.17954717475814D+00  0.96552471760389D-16
   3   1   2   2 -0.96989974825373D-01  0.79621536167248D-17
   1   2   2   2  0.29148757050499D+00  0.31346914570912D-16
   2   2   2   2  0.87915828780574D+00 -0.14501204056994D-17
   3   2   2   2  0.44068810035742D+00 -0.26877851639607D-16
   1   1   3   2 -0.87715826157693D-01  0.12493400293466D-15
   2   1   3   2 -0.96989974947844D-01  0.91014478608670D-16
   3   1   3   2 -0.35194360519178D-01  0.26450227182246D-16
   1   2   3   2  0.11648195737885D+00  0.22405190075912D-16
   2   2   3   2  0.44068810035742D+00  0.41200967019440D-16
   3   2   3   2  0.11452022880901D-01  0.21988975310722D-17
 Band:  4
   1   1   1   1  0.29539239243400D+00 -0.74845948801758D-17
   2   1   1   1 -0.14193682479024D+01 -0.76280972856452D-17
   3   1   1   1  0.16149401525459D+00 -0.79472309229234D-17
   1   2   1   1 -0.62518406123315D-01 -0.31153795628421D-16
   2   2   1   1  0.17193800040557D+00  0.34620241117616D-16
   3   2   1   1 -0.19863583224223D-01  0.81999732994732D-17
   1   1   2   1 -0.14193682479024D+01  0.67598885147096D-17
   2   1   2   1  0.27962323902147D+01 -0.30882821256892D-17
   3   1   2   1 -0.37767814011154D+00  0.20391419957001D-16
   1   2   2   1  0.17193800036511D+00  0.84552798063517D-16
   2   2   2   1 -0.33761800636032D+00 -0.15560722310766D-15
   3   2   2   1  0.44696802279617D-01 -0.10646551064304D-16
   1   1   3   1  0.16149401525459D+00  0.11800807316457D-16
   2   1   3   1 -0.37767814011154D+00 -0.20031854470891D-16
   3   1   3   1 -0.22599193732811D+00 -0.10039987402924D-18
   1   2   3   1 -0.19863583182265D-01  0.19877098083017D-16
   2   2   3   1  0.44696802387788D-01 -0.23542616824406D-16
   3   2   3   1  0.90451836387349D-03  0.11567079824557D-16
   1   1   1   2 -0.62518406123315D-01  0.29527068853219D-16
   2   1   1   2  0.17193800036511D+00 -0.87485226126911D-16
   3   1   1   2 -0.19863583182265D-01 -0.18491563939546D-16
   1   2   1   2  0.10066615148535D-01 -0.67572053367212D-18
   2   2   1   2 -0.22414425808327D+00  0.17788696090022D-16
   3   2   1   2  0.28377027567701D-01  0.12118577901812D-17
   1   1   2   2  0.17193800040557D+00 -0.34425847056222D-16
   2   1   2   2 -0.33761800636032D+00  0.15205222582804D-15
   3   1   2   2  0.44696802387788D-01  0.21813822579060D-16
   1   2   2   2 -0.22414425808327D+00 -0.14779188028427D-16
   2   2   2   2  0.31014465862266D+00 -0.43334205581530D-17
   3   2   2   2 -0.49567457093280D-01 -0.19325485371223D-16
   1   1   3   2 -0.19863583224223D-01 -0.54479632538440D-17
   2   1   3   2  0.44696802279617D-01  0.16384352249005D-16
   3   1   3   2  0.90451836387349D-03 -0.11538333643910D-16
   1   2   3   2  0.28377027567701D-01 -0.25767517509920D-18
   2   2   3   2 -0.49567457093280D-01  0.20875555664698D-16
   3   2   3   2 -0.11428759279139D+00  0.26029322469125D-17
 Band:  5
   1   1   1   1  0.60789943947290D+00 -0.20574430288807D-17
   2   1   1   1  0.12084780519339D+00  0.32237413445143D-16
   3   1   1   1 -0.15753807439107D+01  0.66572819813332D-16
   1   2   1   1 -0.11441433384586D+00 -0.10578094833266D-16
   2   2   1   1 -0.50344967295392D-01 -0.33139270149183D-16
   3   2   1   1  0.18937328129424D+00  0.24246157664029D-16
   1   1   2   1  0.12084780519339D+00 -0.30258744480357D-16
   2   1   2   1 -0.22888262519274D+00 -0.23530575274724D-17
   3   1   2   1 -0.20539509698356D+00  0.49408271195932D-16
   1   2   2   1 -0.50344967294186D-01  0.11484976616448D-16
   2   2   2   1 -0.28423406485880D-01 -0.13527480023094D-16
   3   2   2   1  0.45224904196118D-01 -0.42231539337542D-17
   1   1   3   1 -0.15753807439107D+01 -0.74682313250344D-16
   2   1   3   1 -0.20539509698356D+00 -0.49742002177150D-16
   3   1   3   1  0.22199809948045D+01 -0.52939559203394D-18
   1   2   3   1  0.18937328132388D+00 -0.35046808108930D-16
   2   2   3   1  0.45224904023904D-01  0.47233402537964D-16
   3   2   3   1 -0.25639415335323D+00 -0.54277651990265D-16
   1   1   1   2 -0.11441433384586D+00 -0.79613387997629D-17
   2   1   1   2 -0.50344967294186D-01 -0.12785172190483D-16
   3   1   1   2  0.18937328132388D+00  0.33261686172591D-16
   1   2   1   2  0.22593634586475D+00 -0.41661315510703D-17
   2   2   1   2  0.36038719351853D+00 -0.17295291699666D-16
   3   2   1   2 -0.23479126961676D+00 -0.70992712904832D-17
   1   1   2   2 -0.50344967295392D-01  0.32886007297954D-16
   2   1   2   2 -0.28423406485880D-01  0.93871829769155D-17
   3   1   2   2  0.45224904023904D-01 -0.47117888419783D-16
   1   2   2   2  0.36038719351853D+00  0.25286200524064D-16
   2   2   2   2  0.18720445216722D+00 -0.18794072912797D-17
   3   2   2   2 -0.22689849363712D+00 -0.19089123220932D-16
   1   1   3   2  0.18937328129424D+00 -0.24447751505475D-16
   2   1   3   2  0.45224904196118D-01  0.51311732532108D-17
   3   1   3   2 -0.25639415335323D+00  0.40891143291858D-16
   1   2   3   2 -0.23479126961676D+00  0.50386518880503D-17
   2   2   3   2 -0.22689849363712D+00  0.14994989470378D-16
   3   2   3   2  0.59417918360092D-01 -0.11731406319472D-17
 Band:  6
   1   1   1   1  0.24682031530976D+00  0.13916751323388D-17
   2   1   1   1 -0.24774999952715D+00 -0.37985546782729D-16
   3   1   1   1  0.52391052160149D-01 -0.46626572210937D-16
   1   2   1   1 -0.29522202003480D+00  0.17328117212547D-16
   2   2   1   1  0.20216837092433D+00 -0.72930756133622D-17
   3   2   1   1 -0.55414144049539D-01 -0.12649022438657D-16
   1   1   2   1 -0.24774999952715D+00  0.37311308556714D-16
   2   1   2   1  0.69976837122433D-01 -0.53503894904502D-17
   3   1   2   1 -0.39093771342469D-01  0.40618731322367D-16
   1   2   2   1  0.20216837105793D+00 -0.21819638710028D-16
   2   2   2   1 -0.10149122914721D+00  0.20294992484635D-17
   3   2   2   1  0.32894871559126D-01  0.54124974820140D-17
   1   1   3   1  0.52391052160149D-01  0.53923761051533D-16
   2   1   3   1 -0.39093771342469D-01 -0.45801302410143D-16
   3   1   3   1 -0.11166288326207D+00 -0.25022412053076D-17
   1   2   3   1 -0.55414144025027D-01  0.64142601833952D-17
   2   2   3   1  0.32894871388698D-01 -0.39456817567812D-17
   3   2   3   1 -0.25186448568994D-02 -0.78541687689776D-17
   1   1   1   2 -0.29522202003480D+00 -0.16315912840578D-16
   2   1   1   2  0.20216837105793D+00  0.20696473021969D-16
   3   1   1   2 -0.55414144025027D-01 -0.49035769219672D-17
   1   2   1   2  0.24279033153693D+01 -0.71811453268220D-17
   2   2   1   2 -0.16847270869628D+01 -0.17174494159405D-16
   3   2   1   2  0.47729894417045D+00  0.60885269908541D-16
   1   1   2   2  0.20216837092433D+00  0.28800339581673D-17
   2   1   2   2 -0.10149122914721D+00 -0.70583338563123D-17
   3   1   2   2  0.32894871388698D-01  0.43590338350413D-17
   1   2   2   2 -0.16847270869628D+01  0.14015908299094D-16
   2   2   2   2  0.63228275840207D+00  0.31465156408129D-17
   3   2   2   2 -0.27534010921274D+00 -0.33880539263983D-16
   1   1   3   2 -0.55414144049539D-01  0.12612176505451D-16
   2   1   3   2  0.32894871559126D-01 -0.25094339924233D-18
   3   1   3   2 -0.25186448568994D-02  0.83367657906757D-17
   1   2   3   2  0.47729894417045D+00 -0.59937440040564D-16
   2   2   3   2 -0.27534010921274D+00  0.30620309450001D-16
   3   2   3   2 -0.19376381675098D+00  0.25235229081074D-17
 Band:  7
   1   1   1   1 -0.22075383066893D-01 -0.24640188435628D-17
   2   1   1   1  0.18415592695959D-01 -0.10137952351748D-17
   3   1   1   1  0.42845138882377D+00 -0.24045294772686D-17
   1   2   1   1 -0.94808658577754D-01 -0.25149657184087D-16
   2   2   1   1 -0.12116152329791D+00  0.27420154478256D-17
   3   2   1   1  0.36357766278594D-01  0.77086682587514D-17
   1   1   2   1  0.18415592695959D-01  0.23656598189927D-17
   2   1   2   1 -0.13119902610997D+00 -0.29713915789681D-17
   3   1   2   1  0.55251454741109D-01 -0.76083511265607D-17
   1   2   2   1 -0.12116152331631D+00 -0.14197526480414D-16
   2   2   2   1 -0.12096287722519D+00 -0.86361899066785D-17
   3   2   2   1  0.91409192055856D-01  0.11489511536651D-16
   1   1   3   1  0.42845138882377D+00  0.65990366320719D-17
   2   1   3   1  0.55251454741109D-01  0.90042614236357D-17
   3   1   3   1  0.11459196200422D+01 -0.18904716591532D-17
   1   2   3   1  0.36357766113823D-01 -0.80945521028220D-16
   2   2   3   1  0.91409191859305D-01  0.31120818996963D-16
   3   2   3   1 -0.18346035799879D+00  0.14291436427001D-16
   1   1   1   2 -0.94808658577754D-01  0.25639242227600D-16
   2   1   1   2 -0.12116152331631D+00  0.12506848717695D-16
   3   1   1   2  0.36357766113823D-01  0.96652264727394D-16
   1   2   1   2  0.65629659347475D+00 -0.30319544346968D-17
   2   2   1   2  0.11397372199323D+01  0.21028475305411D-16
   3   2   1   2 -0.77598621711530D+00 -0.58110670962499D-16
   1   1   2   2 -0.12116152329791D+00 -0.98808091272849D-17
   2   1   2   2 -0.12096287722519D+00  0.11189147209703D-16
   3   1   2   2  0.91409191859305D-01 -0.28269494338268D-16
   1   2   2   2  0.11397372199323D+01 -0.17376916269798D-16
   2   2   2   2  0.10317086015918D+01 -0.14535085374884D-17
   3   2   2   2 -0.92900914573755D+00 -0.17577030346474D-16
   1   1   3   2  0.36357766278594D-01 -0.20336235436419D-16
   2   1   3   2  0.91409192055856D-01 -0.12749896562166D-16
   3   1   3   2 -0.18346035799879D+00 -0.14907229379655D-16
   1   2   3   2 -0.77598621711530D+00  0.57307683728502D-16
   2   2   3   2 -0.92900914573755D+00  0.14612415031084D-16
   3   2   3   2  0.39090611976654D+00 -0.79451690452453D-18
 Band:  8
   1   1   1   1  0.35457394840184D+00  0.53024262498119D-18
   2   1   1   1  0.19722448501578D+00  0.90591806958365D-17
   3   1   1   1  0.21107251741412D+00  0.57626632792970D-16
   1   2   1   1 -0.47010010626495D-01  0.78192456056798D-17
   2   2   1   1 -0.32900098639369D-01  0.16975221133556D-16
   3   2   1   1 -0.62737494142464D-01  0.74804584612476D-16
   1   1   2   1  0.19722448501578D+00 -0.19442851717109D-16
   2   1   2   1 -0.52396545422461D-01  0.55675475623025D-17
   3   1   2   1  0.80500649223146D-01  0.14627487780342D-16
   1   2   2   1 -0.32900098709603D-01  0.91649654894863D-17
   2   2   2   1 -0.30421094191735D-01 -0.95301119473753D-17
   3   2   2   1 -0.11723579514391D+00  0.16262054375660D-16
   1   1   3   1  0.21107251741412D+00 -0.56426810623185D-16
   2   1   3   1  0.80500649223146D-01 -0.17578550568576D-16
   3   1   3   1  0.27502668587819D-01 -0.44824983568698D-17
   1   2   3   1 -0.62737494064188D-01  0.15209270147480D-16
   2   2   3   1 -0.11723579483536D+00  0.11666780517072D-16
   3   2   3   1 -0.32180078877911D+00  0.32208282042208D-16
   1   1   1   2 -0.47010010626495D-01 -0.14266860400180D-16
   2   1   1   2 -0.32900098709603D-01 -0.14731666018842D-16
   3   1   1   2 -0.62737494064188D-01 -0.13328857004576D-16
   1   2   1   2 -0.20701318787198D+00 -0.73861273000575D-18
   2   2   1   2  0.11725936109111D+00 -0.63231896077818D-17
   3   2   1   2  0.38861955761600D+00  0.33501947538013D-16
   1   1   2   2 -0.32900098639369D-01 -0.15475972816916D-16
   2   1   2   2 -0.30421094191735D-01  0.21236558565837D-17
   3   1   2   2 -0.11723579483536D+00 -0.10816359438029D-16
   1   2   2   2  0.11725936109111D+00  0.33746679183896D-17
   2   2   2   2  0.31057767637949D-01 -0.55057141571530D-19
   3   2   2   2  0.10401271053241D+01  0.19325359032774D-16
   1   1   3   2 -0.62737494142464D-01 -0.64306458264206D-16
   2   1   3   2 -0.11723579514391D+00  0.17153728968655D-17
   3   1   3   2 -0.32180078877911D+00 -0.14061448180232D-16
   1   2   3   2  0.38861955761600D+00 -0.29710628066102D-16
   2   2   3   2  0.10401271053241D+01 -0.12586364904418D-16
   3   2   3   2  0.29178318739903D+01 -0.97476551570025D-17
  
 2nd eigenvalue derivatives   - # elements :      36
 qpt  0.00000000E+00  5.00000000E-01  5.00000000E-01   1.0
 K-point:  0.00000000E+00  0.00000000E+00  5.00000000E-01
 Band:  1
   1   1   1   1 -0.21984456543113D+01  0.50945905293125D-17
   2   1   1   1  0.43973888481546D-09  0.20062548539307D-16
   3   1   1   1 -0.67236439723638D-08  0.47033279761016D-16
   1   2   1   1 -0.42594643085730D-11 -0.10069115029307D-15
   2   2   1   1 -0.93125890711224D-08  0.25891491967508D-16
   3   2   1   1  0.32281145596427D-09 -0.57121610552012D-17
   1   1   2   1  0.43973888199653D-09 -0.29219708098136D-16
   2   1   2   1 -0.22349181923420D+01 -0.74505651350645D-17
   3   1   2   1 -0.42645457558157D-07 -0.16451176920359D-16
   1   2   2   1  0.93180609501453D-08  0.36139893298791D-16
   2   2   2   1 -0.34473745076769D-09 -0.12805611720537D-16
   3   2   2   1  0.43452593889530D-02 -0.71465708511185D-16
   1   1   3   1 -0.67236439201480D-08 -0.38142821946635D-16
   2   1   3   1 -0.42645457583637D-07  0.12981729968405D-16
   3   1   3   1 -0.20495793306262D+01  0.51862044204549D-17
   1   2   3   1 -0.31263455553218D-09 -0.61591949489375D-17
   2   2   3   1  0.35010080399170D+00 -0.49645646876863D-16
   3   2   3   1 -0.28493067243138D-09 -0.68313474135749D-16
   1   1   1   2 -0.42594415462156D-11  0.92993314868425D-16
   2   1   1   2  0.93180609413233D-08 -0.36681994385034D-16
   3   1   1   2 -0.31263455835110D-09  0.79994959939826D-17
   1   2   1   2 -0.23010738397882D+00  0.14011564930086D-17
   2   2   1   2 -0.44857458381603D-09 -0.82220733166697D-17
   3   2   1   2  0.67167059513534D-08 -0.12906395544499D-16
   1   1   2   2 -0.93125890696584D-08 -0.29631989462583D-16
   2   1   2   2 -0.34473744602775D-09  0.17738731605346D-16
   3   1   2   2  0.35010080399170D+00  0.71275782927279D-16
   1   2   2   2 -0.44857458133591D-09  0.60108242212933D-17
   2   2   2   2 -0.33430321043840D+00  0.92284749967332D-19
   3   2   2   2  0.43330798843691D-07  0.31208508075991D-16
   1   1   3   2  0.32281146030107D-09 -0.66909125612427D-17
   2   1   3   2  0.43452593889530D-02  0.76821350184935D-16
   3   1   3   2 -0.28493068152985D-09  0.79589176729598D-16
   1   2   3   2  0.67167059479232D-08  0.15508480758464D-16
   2   2   3   2  0.43330798846520D-07 -0.34027433724454D-16
   3   2   3   2 -0.29516728445415D+00  0.50868552273624D-18
 Band:  2
   1   1   1   1 -0.23010738398808D+00 -0.75055243558998D-17
   2   1   1   1 -0.44858249360810D-09  0.69928861277085D-17
   3   1   1   1  0.67165594362620D-08 -0.13871519854027D-17
   1   2   1   1 -0.53604200544009D-11 -0.39555279855813D-16
   2   2   1   1  0.93200490159875D-08 -0.32489329429621D-16
   3   2   1   1 -0.31262173035052D-09  0.57777292560804D-17
   1   1   2   1 -0.44858249672519D-09 -0.18985268309202D-17
   2   1   2   1 -0.33430321044930D+00 -0.25762678338937D-17
   3   1   2   1  0.43331342319687D-07  0.15904251740833D-16
   1   2   2   1 -0.93106066920849D-08 -0.84545414735362D-18
   2   2   2   1 -0.34005866615468D-09 -0.69478574619514D-17
   3   2   2   1  0.35010080399630D+00 -0.89505564864941D-16
   1   1   3   1  0.67165594347231D-08  0.11703115509056D-17
   2   1   3   1  0.43331342319563D-07 -0.16337932609827D-16
   3   1   3   1 -0.29516728447146D+00 -0.14892331239760D-17
   1   2   3   1  0.32279368211035D-09 -0.72148887471346D-17
   2   2   3   1  0.43452593985609D-02  0.21510202536279D-16
   3   2   3   1 -0.28566054397353D-09  0.44251323462338D-16
   1   1   1   2 -0.53604178268501D-11  0.45518391804483D-16
   2   1   1   2 -0.93106067011457D-08  0.59412043580355D-17
   3   1   1   2  0.32279367950827D-09  0.15999040256021D-16
   1   2   1   2 -0.21984456542864D+01 -0.26540116320146D-17
   2   2   1   2  0.43971655506461D-09  0.61182405410385D-16
   3   2   1   2 -0.67237727312816D-08  0.44124891732946D-16
   1   1   2   2  0.93200490092375D-08  0.24574653570477D-16
   2   1   2   2 -0.34005865141487D-09  0.13778331148610D-16
   3   1   2   2  0.43452593985609D-02 -0.95525999559917D-17
   1   2   2   2  0.43971654725835D-09 -0.55199450070904D-16
   2   2   2   2 -0.22349181923526D+01  0.35879032804884D-17
   3   2   2   2 -0.42644906600436D-07  0.77660317899180D-16
   1   1   3   2 -0.31262172671844D-09  0.17287592547559D-17
   2   1   3   2  0.35010080399630D+00  0.77518752133231D-16
   3   1   3   2 -0.28566053113315D-09 -0.43383961724350D-16
   1   2   3   2 -0.67237727477645D-08 -0.45209093905431D-16
   2   2   3   2 -0.42644906565146D-07 -0.73974030512729D-16
   3   2   3   2 -0.20495793305987D+01 -0.51952194225115D-17
 Band:  3
   1   1   1   1 -0.31365100579583D+01 -0.10747972943569D-16
   2   1   1   1  0.43652379035168D-09  0.45167179680281D-16
   3   1   1   1 -0.55927009031871D-07  0.69883031007627D-16
   1   2   1   1 -0.12210482397816D-10 -0.51736514516719D-16
   2   2   1   1 -0.90462550821044D-08  0.86397437524449D-16
   3   2   1   1  0.26614004285891D-08  0.48290298304683D-16
   1   1   2   1  0.43652382461247D-09 -0.46744611454058D-16
   2   1   2   1 -0.15200796474366D+01 -0.20712886468073D-16
   3   1   2   1 -0.20395601511467D-06  0.26551706560438D-16
   1   2   2   1  0.90541809008779D-08  0.43549235220286D-16
   2   2   2   1 -0.34945439565958D-09  0.56368060682782D-16
   3   2   2   1  0.66284640650814D+00  0.16250995484367D-15
   1   1   3   1 -0.55927008992008D-07 -0.73786158828574D-16
   2   1   3   1 -0.20395601507398D-06  0.12038690551909D-17
   3   1   3   1 -0.53325068567199D+01 -0.19937803241462D-16
   1   2   3   1 -0.26460405076344D-08  0.22249654745034D-16
   2   2   3   1 -0.35047184596477D+00 -0.97899789337444D-16
   3   2   3   1 -0.68078954175318D-09 -0.26063843805324D-15
   1   1   1   2 -0.12210461930764D-10  0.55314381685921D-16
   2   1   1   2  0.90541808736999D-08 -0.12107372218207D-16
   3   1   1   2 -0.26460404289213D-08 -0.87218569805581D-17
   1   2   1   2 -0.82065264299215D+00 -0.51653336777856D-17
   2   2   1   2 -0.43788554118134D-09  0.49411839362565D-17
   3   2   1   2  0.55927353591561D-07  0.16567659975835D-15
   1   1   2   2 -0.90462550807116D-08 -0.82060628834507D-16
   2   1   2   2 -0.34945446046739D-09  0.22561857474162D-16
   3   1   2   2 -0.35047184596477D+00  0.13399796380621D-15
   1   2   2   2 -0.43788552811670D-09 -0.22859371147656D-18
[...]
   2   1   2   1  0.30441640043960D+00 -0.15177450315644D-17
   3   1   2   1 -0.77074411813882D-03 -0.32217849606185D-18
   1   2   2   1  0.56617303255173D-01  0.11677123327626D-15
   2   2   2   1  0.20626744897218D-09  0.19283587864991D-15
   3   2   2   1  0.41521757987602D-07 -0.43495422573098D-16
   1   1   3   1 -0.10993946129723D-07 -0.29639614099828D-16
   2   1   3   1 -0.77074411813881D-03 -0.36510715062883D-17
   3   1   3   1 -0.15083007188702D+00 -0.48200031913052D-17
   1   2   3   1 -0.15281953000922D-03 -0.62910395875029D-17
   2   2   3   1 -0.41724088410830D-07  0.32109836753765D-16
   3   2   3   1 -0.62534832243232D-10  0.91119753393676D-17
   1   1   1   2 -0.31659925458512D-09 -0.40201955054914D-16
   2   1   1   2  0.56617303255173D-01 -0.12057828127732D-15
   3   1   1   2 -0.15281953000924D-03  0.79878271776454D-17
   1   2   1   2 -0.61127358082477D+00 -0.33123103461191D-19
   2   2   1   2  0.11199416031447D-06 -0.35505700889832D-16
   3   2   1   2  0.11116215906540D-07 -0.19306062415877D-17
   1   1   2   2  0.99303785305575D+00  0.21238761838629D-15
   2   1   2   2  0.20626744573302D-09 -0.18980011256695D-15
   3   1   2   2 -0.41724088384452D-07 -0.22297807092771D-16
   1   2   2   2  0.11199416029776D-06  0.29434168723914D-16
   2   2   2   2  0.45809990189434D+01 -0.38620019311758D-16
   3   2   2   2  0.24849542688555D-02  0.88778930069734D-16
   1   1   3   2  0.77840481383925D-03 -0.86552468100098D-17
   2   1   3   2  0.41521757998955D-07  0.54771125166948D-16
   3   1   3   2 -0.62534836660307D-10 -0.35825442596916D-17
   1   2   3   2  0.11116215889612D-07  0.11037904490466D-16
   2   2   3   2  0.24849542688555D-02 -0.84210290157849D-16
   3   2   3   2 -0.70020992946300D+00  0.74820737887651D-17
 K-point:  5.00000000E-01  5.00000000E-01  5.00000000E-01
 Band:  1
   1   1   1   1 -0.47901590161277D+01  0.13073618490654D-16
   2   1   1   1  0.10980400971581D-08 -0.23703781230703D-16
   3   1   1   1  0.72303808439372D-10  0.87903198134734D-16
   1   2   1   1 -0.56137721514729D-09 -0.55530999481813D-16
   2   2   1   1  0.51084589188221D+00 -0.10612973811440D-15
   3   2   1   1  0.15798087354994D-09 -0.33769212426378D-17
   1   1   2   1  0.10980400403598D-08  0.19603258148317D-16
   2   1   2   1 -0.47901590166175D+01  0.14326468914507D-16
   3   1   2   1  0.76367980793336D-10 -0.10107375959034D-15
   1   2   2   1  0.51084589186579D+00 -0.88031537283080D-16
   2   2   2   1 -0.55935727600773D-09 -0.97643415378661D-17
   3   2   2   1  0.15242668684194D-09  0.43671927008617D-17
   1   1   3   1  0.72303757893848D-10 -0.91363994018252D-16
   2   1   3   1  0.76367952416859D-10  0.97140736428074D-16
   3   1   3   1 -0.27220347469689D+01 -0.51149944093054D-17
   1   2   3   1 -0.13354526671942D-09 -0.59306342649727D-16
   2   2   3   1 -0.12893657048758D-09 -0.48684907439825D-17
   3   2   3   1 -0.43536201667457D-11 -0.13680169859736D-16
   1   1   1   2 -0.56137721640816D-09  0.56115644307816D-16
   2   1   1   2  0.51084589186579D+00  0.87933806149047D-16
   3   1   1   2 -0.13354526629152D-09  0.59067562567801D-16
   1   2   1   2 -0.83662408573544D-01  0.23896746852055D-19
   2   2   1   2  0.12651187688234D-09 -0.49843490351385D-17
   3   2   1   2 -0.90561596993618D-10 -0.10596841926038D-17
   1   1   2   2  0.51084589188221D+00  0.10620550275429D-15
   2   1   2   2 -0.55935728410477D-09  0.94339565517617D-17
   3   1   2   2 -0.12893656348509D-09  0.49376838593852D-17
   1   2   2   2  0.12651187723145D-09  0.49749725243999D-17
   2   2   2   2 -0.83662408607829D-01  0.42177742670956D-19
   3   2   2   2 -0.96185553176133D-10 -0.64670069371565D-18
   1   1   3   2  0.15798085470643D-09  0.33382611281169D-17
   2   1   3   2  0.15242668981534D-09 -0.41449304538320D-17
   3   1   3   2 -0.43536167037260D-11  0.13658041123989D-16
   1   2   3   2 -0.90561597073096D-10  0.10684503326260D-17
   2   2   3   2 -0.96185554281504D-10  0.66252806316676D-18
   3   2   3   2 -0.14538915909893D-01  0.76476993893654D-19
 Band:  2
   1   1   1   1 -0.83662408575992D-01  0.13964252680280D-19
   2   1   1   1  0.12649157345190D-09  0.98582103994141D-17
   3   1   1   1 -0.90560656023137D-10  0.90323697761802D-17
   1   2   1   1 -0.56131427045991D-09 -0.91360479497792D-16
   2   2   1   1  0.51084589187607D+00  0.94120683775926D-16
   3   2   1   1 -0.13348089307262D-09  0.14847577257989D-16
   1   1   2   1  0.12649157298344D-09 -0.98797034230537D-17
   2   1   2   1 -0.83662408610134D-01 -0.37425514175952D-20
   3   1   2   1 -0.96182229990651D-10 -0.36342271579526D-17
   1   2   2   1  0.51084589189190D+00  0.17842440077707D-15
   2   2   2   1 -0.55929716257892D-09 -0.64375862106546D-17
   3   2   2   1 -0.12891136687683D-09 -0.27992877267859D-16
   1   1   3   1 -0.90560655774902D-10 -0.90337705530164D-17
   2   1   3   1 -0.96182230065657D-10  0.36284765793072D-17
   3   1   3   1 -0.14538915910243D-01 -0.21776063700774D-20
   1   2   3   1  0.15795110664196D-09 -0.31087746113986D-16
   2   2   3   1  0.15240683728134D-09  0.66684120663187D-16
   3   2   3   1 -0.44479006589175D-11  0.10794635951349D-16
   1   1   1   2 -0.56131426730466D-09  0.91326595427957D-16
   2   1   1   2  0.51084589189190D+00 -0.18028944527162D-15
   3   1   1   2  0.15795111218283D-09  0.30803815734397D-16
   1   2   1   2 -0.47901590161725D+01  0.54553647421531D-17
   2   2   1   2  0.10978057276798D-08  0.58033545347535D-16
   3   2   1   2  0.72318858704329D-10  0.20431887950728D-16
   1   1   2   2  0.51084589187607D+00 -0.95860626910222D-16
   2   1   2   2 -0.55929716677584D-09  0.66842421671024D-17
   3   1   2   2  0.15240682846874D-09 -0.66483252339368D-16
   1   2   2   2  0.10978057842172D-08 -0.58373553794988D-16
   2   2   2   2 -0.47901590166633D+01  0.59304576933879D-17
   3   2   2   2  0.76427021902951D-10 -0.69867930997466D-16
   1   1   3   2 -0.13348088851562D-09 -0.14334529055455D-16
   2   1   3   2 -0.12891135930469D-09  0.28203260316904D-16
   3   1   3   2 -0.44479020469775D-11 -0.11372206542258D-16
   1   2   3   2  0.72318853158924D-10 -0.29365957156846D-16
   2   2   3   2  0.76426944034334D-10  0.57567132628596D-16
   3   2   3   2 -0.27220347472115D+01  0.17059216703412D-16
 Band:  3
   1   1   1   1 -0.13540624279394D+00 -0.31490990913020D-16
   2   1   1   1  0.99817581028043D+00  0.71012460240826D-16
   3   1   1   1  0.51079218617513D-01  0.96856703081835D-16
   1   2   1   1 -0.70814284347639D+00  0.41140508974453D-16
   2   2   1   1 -0.46482784054812D+00  0.22686889051000D-15
   3   2   1   1 -0.67838934365128D-01 -0.94169270453250D-16
   1   1   2   1  0.99817581028043D+00 -0.29297781654446D-16
   2   1   2   1 -0.25919556139539D+00 -0.10097056247745D-16
   3   1   2   1 -0.68135720142603D-02 -0.29869826079657D-16
   1   2   2   1 -0.20087341310460D-01  0.13350346859243D-15
   2   2   2   1 -0.70814290812426D+00  0.31545954829356D-15
   3   2   2   1  0.35229646117699D-01  0.54974164370629D-16
   1   1   3   1  0.51079218617513D-01 -0.10008061635820D-15
   2   1   3   1 -0.68135720142603D-02  0.23776218117550D-16
   3   1   3   1 -0.59318714630305D+00 -0.59587554117389D-17
   1   2   3   1 -0.83496025925531D-01 -0.73135848473885D-17
   2   2   3   1 -0.17209402750179D+00  0.12508772045552D-15
   3   2   3   1  0.17250795533111D+00 -0.82451627656402D-16
   1   1   1   2 -0.70814284347639D+00 -0.21455463280263D-16
   2   1   1   2 -0.20087341310460D-01 -0.90835030907438D-16
   3   1   1   2 -0.83496025925531D-01  0.20029614028484D-16
   1   2   1   2 -0.32523966069412D+00 -0.51396900448207D-17
   2   2   1   2  0.24999349266028D+00  0.68843684674826D-16
   3   2   1   2 -0.71795436547834D-01 -0.39464600211746D-16
   1   1   2   2 -0.46482784054812D+00 -0.27275097119687D-15
   2   1   2   2 -0.70814290812426D+00 -0.39671033672598D-15
   3   1   2   2 -0.17209402750179D+00 -0.11773801557219D-15
   1   2   2   2  0.24999349266028D+00 -0.98678302659490D-16
   2   2   2   2 -0.21631964070309D+00  0.11905895106606D-16
   3   2   2   2 -0.16092962015667D-01 -0.10085854732619D-15
   1   1   3   2 -0.67838934365128D-01  0.89234668260783D-16
   2   1   3   2  0.35229646117699D-01 -0.58621699999743D-16
   3   1   3   2  0.17250795533111D+00  0.73164334906232D-16
   1   2   3   2 -0.71795436547834D-01  0.45338164896024D-16
   2   2   3   2 -0.16092962015667D-01  0.10948510143795D-15
   3   2   3   2 -0.49248029051967D+00  0.45484008086029D-17
 Band:  4
   1   1   1   1 -0.37040344020354D+00 -0.72438257649188D-17
   2   1   1   1 -0.10625963807577D+01  0.27137401191031D-16
   3   1   1   1  0.11161303956935D-01 -0.24180712798429D-16
   1   2   1   1  0.71748279094633D+00 -0.11052742905962D-15
   2   2   1   1 -0.75567251902858D-01  0.43870035875094D-17
   3   2   1   1 -0.21303157433679D-01 -0.41150807034194D-16
   1   1   2   1 -0.10625963807577D+01 -0.64863144204972D-17
   2   1   2   1  0.17870362518242D+00 -0.45727073657523D-16
   3   1   2   1 -0.28014466316850D-01  0.58146856068926D-16
   1   2   2   1 -0.59291061401303D+00  0.23668408398504D-15
   2   2   2   1  0.71748279153662D+00  0.49256917133087D-16
   3   2   2   1  0.72932676654250D-02  0.18399329198499D-16
   1   1   3   1  0.11161303956935D-01  0.32953247744684D-16
   2   1   3   1 -0.28014466316850D-01 -0.52267937871724D-16
   3   1   3   1 -0.56958157073664D+00  0.15250281816424D-17
   1   2   3   1  0.91044278178379D-01  0.12115330539606D-16
   2   2   3   1 -0.38286726994436D-01  0.57031698214467D-16
   3   2   3   1 -0.17478321173578D+00 -0.16640860553906D-16
   1   1   1   2  0.71748279094633D+00  0.15657849281947D-15
   2   1   1   2 -0.59291061401303D+00 -0.27083645241833D-15
   3   1   1   2  0.91044278178379D-01 -0.12913764971512D-16
   1   2   1   2 -0.38190595958062D+00 -0.71769101620857D-17
   2   2   1   2 -0.20203540667113D+00  0.78879617582945D-16
   3   2   1   2 -0.15852570564605D-01 -0.14786882460706D-16
   1   1   2   2 -0.75567251902858D-01  0.38448299588088D-16
   2   1   2   2  0.71748279153662D+00 -0.10497474440348D-15
   3   1   2   2 -0.38286726994436D-01 -0.51788881908318D-16
   1   2   2   2 -0.20203540667113D+00 -0.12026734145168D-15
   2   2   2   2 -0.10349757276146D+00 -0.14633129438528D-16
   3   2   2   2  0.38570699580787D-01 -0.31502328573851D-16
   1   1   3   2 -0.21303157433679D-01  0.37819585271321D-16
   2   1   3   2  0.72932676654250D-02 -0.25319217800652D-16
   3   1   3   2 -0.17478321173578D+00  0.14496279010577D-16
   1   2   3   2 -0.15852570564605D-01  0.11309150467737D-16
   2   2   3   2  0.38570699580787D-01  0.30257514396188D-16
   3   2   3   2 -0.42707375654708D+00  0.23633545732985D-17
 Band:  5
   1   1   1   1 -0.52581317978810D+00 -0.17860536725804D-16
   2   1   1   1  0.98913440844059D-01 -0.88632883843219D-17
   3   1   1   1 -0.11366339010706D+00 -0.54165779386217D-16
   1   2   1   1 -0.21008537924792D+00 -0.78559520790747D-16
   2   2   1   1  0.22614164496433D+00  0.11133874645623D-15
   3   2   1   1  0.38964099529053D-01  0.19632270055286D-16
   1   1   2   1  0.98913440844059D-01  0.19241771328792D-16
   2   1   2   1 -0.70422698351330D+00  0.36965576609362D-17
   3   1   2   1  0.75224233642230D-02 -0.11982721003821D-15
   1   2   2   1  0.41374301574410D+00 -0.59499363164729D-16
   2   2   2   1 -0.21008540811425D+00 -0.11974410222268D-15
   3   2   2   1 -0.81772261625862D-01  0.39740385848568D-16
   1   1   3   1 -0.11366339010706D+00  0.64277235194065D-16
   2   1   3   1  0.75224233642230D-02  0.11529526613305D-15
   3   1   3   1 -0.13640223045507D+01  0.16214548760849D-17
   1   2   3   1  0.31601004161462D-01  0.72959800836189D-16
   2   2   3   1  0.37725432435831D+00  0.19411835936582D-15
   3   2   3   1  0.51178071859059D-01  0.14688071070050D-16
   1   1   1   2 -0.21008537924792D+00  0.63336644662692D-16
   2   1   1   2  0.41374301574410D+00  0.59460611407392D-16
   3   1   1   2  0.31601004161462D-01 -0.66908385702768D-16
   1   2   1   2 -0.60663653170898D+00 -0.42383940493829D-17
   2   2   1   2  0.27138205280550D+00  0.56753080694482D-17
   3   2   1   2  0.15838848090188D+00  0.74217659368606D-16
   1   1   2   2  0.22614164496433D+00 -0.13219947388121D-15
   2   1   2   2 -0.21008540811425D+00  0.11667636064596D-15
   3   1   2   2  0.37725432435831D+00 -0.18553050407185D-15
   1   2   2   2  0.27138205280550D+00  0.85137643464822D-17
   2   2   2   2 -0.68688834494002D+00  0.26372370812763D-17
   3   2   2   2  0.31585332213337D-02 -0.26170048337227D-16
   1   1   3   2  0.38964099529053D-01 -0.21539788252503D-16
   2   1   3   2 -0.81772261625862D-01 -0.44841694712966D-16
   3   1   3   2  0.51178071859059D-01 -0.19401915300639D-16
   1   2   3   2  0.15838848090188D+00 -0.73948382300718D-16
   2   2   3   2  0.31585332213337D-02  0.23205830068531D-16
   3   2   3   2 -0.26707647349427D+00  0.24706946543757D-17
 Band:  6
   1   1   1   1 -0.15241189769458D+00 -0.97336791133728D-17
   2   1   1   1 -0.22617896887685D+00 -0.74747649557434D-16
   3   1   1   1 -0.49657861879084D-01  0.26678529093567D-16
   1   2   1   1  0.84363157985897D+00  0.34027374751588D-15
   2   2   1   1 -0.13526882278929D+00  0.25585462584142D-16
   3   2   1   1  0.66109433340625D-01  0.61067877276488D-16
   1   1   2   1 -0.22617896887685D+00  0.29810434123225D-16
   2   1   2   1 -0.34423202415606D+00 -0.94931217563526D-17
   3   1   2   1  0.27855818882338D-01 -0.41584719091198D-17
   1   2   2   1 -0.51580227824754D+00  0.73468110938895D-18
   2   2   2   1  0.84363157611080D+00  0.99145340913227D-16
   3   2   2   1 -0.11597734795698D+00 -0.65541476727455D-16
   1   1   3   1 -0.49657861879084D-01 -0.35084358330666D-16
   2   1   3   1  0.27855818882338D-01  0.40658409154037D-17
   3   1   3   1 -0.42477021938533D+00 -0.37383497495594D-17
   1   2   3   1 -0.14783050310788D-01  0.11060752975195D-15
   2   2   3   1  0.29513790569489D-01 -0.70220824965926D-16
   3   2   3   1 -0.20551383118124D+00  0.65099776959275D-17
   1   1   1   2  0.84363157985897D+00 -0.30183878050127D-15
   2   1   1   2 -0.51580227824754D+00  0.11418227884460D-15
   3   1   1   2 -0.14783050310788D-01 -0.10547985698707D-15
   1   2   1   2  0.92954031737742D-01 -0.31204270260375D-16
   2   2   1   2 -0.12608020768671D+01  0.24508249592621D-16
   3   2   1   2  0.36570468568652D-01 -0.52463113468655D-16
   1   1   2   2 -0.13526882278929D+00 -0.43054670088315D-16
   2   1   2   2  0.84363157611080D+00 -0.86075622537093D-16
   3   1   2   2  0.29513790569489D-01  0.65367432057277D-16
   1   2   2   2 -0.12608020768671D+01 -0.54508039002000D-16
   2   2   2   2 -0.29797922139085D+00 -0.30516479507204D-17
   3   2   2   2 -0.20086897673168D-01  0.15886392716703D-16
   1   1   3   2  0.66109433340625D-01 -0.63238769780741D-16
   2   1   3   2 -0.11597734795698D+00  0.70437062464789D-16
   3   1   3   2 -0.20551383118124D+00  0.84963028430910D-17
   1   2   3   2  0.36570468568652D-01  0.49117240682772D-16
   2   2   3   2 -0.20086897673168D-01 -0.58273338375762D-17
   3   2   3   2 -0.58032589577906D+00  0.61966235676311D-17
 Band:  7
   1   1   1   1 -0.54830409452874D+00 -0.97760307607355D-17
   2   1   1   1  0.41905690510040D-01 -0.13634267083555D-16
   3   1   1   1  0.12650436475517D+00  0.14886790727112D-15
   1   2   1   1 -0.50559666446892D+00 -0.92183284900950D-16
   2   2   1   1  0.77557520512991D-01  0.12573310644618D-15
   3   2   1   1  0.23982218285343D+00  0.30613908427212D-17
   1   1   2   1  0.41905690510040D-01  0.17854185226776D-16
   2   1   2   1 -0.53876691455008D+00  0.96138239513363D-18
   3   1   2   1  0.11066444916704D+00  0.96136171041066D-16
   1   2   2   1  0.19145958048782D+00 -0.20453180727525D-16
   2   2   2   1 -0.50559667250369D+00 -0.56460879333610D-16
   3   2   2   1  0.23456842098918D+00 -0.14891998067646D-16
   1   1   3   1  0.12650436475517D+00 -0.14465910643533D-15
   2   1   3   1  0.11066444916704D+00 -0.83863193030943D-16
   3   1   3   1 -0.85150192717580D+00  0.75017312069177D-18
   1   2   3   1 -0.97194939312084D-01  0.63187926973374D-16
   2   2   3   1 -0.17783877956151D+00  0.93797442429300D-16
   3   2   3   1  0.12316648820497D+00  0.85454508206119D-16
   1   1   1   2 -0.50559666446892D+00  0.48448432735369D-16
   2   1   1   2  0.19145958048782D+00  0.41261921505366D-16
   3   1   1   2 -0.97194939312084D-01 -0.46736006038854D-16
   1   2   1   2 -0.49111672171302D+00 -0.14008416170149D-16
   2   2   1   2  0.84925667405355D+00  0.35644373282010D-16
   3   2   1   2 -0.11791759614551D+00 -0.34016390530725D-16
   1   1   2   2  0.77557520512991D-01 -0.92474357772238D-16
   2   1   2   2 -0.50559667250369D+00  0.56208463515328D-16
   3   1   2   2 -0.17783877956151D+00 -0.69681567388023D-16
   1   2   2   2  0.84925667405355D+00 -0.13662703630458D-16
   2   2   2   2 -0.42198051472931D+00 -0.18681311651694D-17
   3   2   2   2 -0.89075952144428D-01 -0.63232650813593D-16
   1   1   3   2  0.23982218285343D+00  0.13336531741412D-16
   2   1   3   2  0.23456842098918D+00  0.23550871780291D-16
   3   1   3   2  0.12316648820497D+00 -0.88412347257931D-16
   1   2   3   2 -0.11791759614551D+00  0.33223931651565D-16
   2   2   3   2 -0.89075952144428D-01  0.53024818538215D-16
   3   2   3   2 -0.59975773079498D+00  0.10113293895662D-17
 Band:  8
   1   1   1   1 -0.72556412729764D+00 -0.70075035726348D-17
   2   1   1   1  0.14978040903433D+00  0.11241612038452D-15
   3   1   1   1 -0.25423635361795D-01  0.43212753436599D-16
   1   2   1   1 -0.13728948458793D+00 -0.71899815304002D-16
   2   2   1   1  0.41042212147206D+00 -0.21807012648039D-15
   3   2   1   1 -0.25575362391119D+00 -0.13497723484467D-15
   1   1   2   1  0.14978040903433D+00 -0.10615718217902D-15
   2   1   2   1 -0.79018512467413D+00 -0.13166068373884D-17
   3   1   2   1 -0.11121465310243D+00 -0.11897125679170D-15
   1   2   2   1  0.56205500904960D+00 -0.65517710363714D-16
   2   2   2   1 -0.13728937987737D+00 -0.10352940453199D-15
   3   2   2   1 -0.79341725177246D-01  0.12287057623189D-15
   1   1   3   1 -0.25423635361795D-01 -0.40246708753111D-16
   2   1   3   1 -0.11121465310243D+00  0.12588425663371D-15
   3   1   3   1 -0.17801426033322D+00  0.18291917975746D-17
   1   2   3   1  0.72828733222287D-01 -0.81157744204229D-16
   2   2   3   1 -0.18548580857991D-01  0.15101013015245D-16
   3   2   3   1  0.33444527506575D-01  0.13619755452649D-15
   1   1   1   2 -0.13728948458793D+00  0.66095945549416D-16
   2   1   1   2  0.56205500904960D+00  0.61024729974122D-16
   3   1   1   2  0.72828733222287D-01  0.76699664219042D-16
   1   2   1   2 -0.74595814040917D+00  0.16698725159526D-17
   2   2   1   2  0.92205265053347D-01  0.82898080883262D-16
   3   2   1   2  0.10606653768847D-01  0.80670722147463D-16
   1   1   2   2  0.41042212147206D+00  0.21877146976072D-15
   2   1   2   2 -0.13728937987737D+00  0.87715299406749D-16
   3   1   2   2 -0.18548580857991D-01 -0.18256898958037D-16
   1   2   2   2  0.92205265053347D-01 -0.79744788978871D-16
   2   2   2   2 -0.73123768865579D+00 -0.11695407419214D-17
   3   2   2   2  0.83526579011516D-01 -0.18836663683887D-16
   1   1   3   2 -0.25575362391119D+00  0.13394004300075D-15
   2   1   3   2 -0.79341725177246D-01 -0.11010081339820D-15
   3   1   3   2  0.33444527506575D-01 -0.13679619506196D-15
   1   2   3   2  0.10606653768847D-01 -0.93534082121822D-16
   2   2   3   2  0.83526579011516D-01  0.23034770728716D-16
   3   2   3   2 -0.16143632813804D+01 -0.13357548370069D-16

 List of bloks and their characteristics 
  
 2nd eigenvalue derivatives   - # elements :      36
 qpt  0.00000000E+00  0.00000000E+00  0.00000000E+00   1.0
  
 2nd eigenvalue derivatives   - # elements :      36
 qpt  0.00000000E+00  5.00000000E-01  5.00000000E-01   1.0
  
 2nd eigenvalue derivatives   - # elements :      36
 qpt  5.00000000E-01  0.00000000E+00  5.00000000E-01   1.0
  
 2nd eigenvalue derivatives   - # elements :      36
 qpt  5.00000000E-01  5.00000000E-01  0.00000000E+00   1.0
