
.Version 7.10.4 of ABINIT 
.(MPI version, prepared for a x86_64_linux_gnu4.7 computer) 

.Copyright (C) 1998-2014 ABINIT group . 
 ABINIT comes with ABSOLUTELY NO WARRANTY.
 It is free software, and you are welcome to redistribute it
 under certain conditions (GNU General Public License,
 see ~abinit/COPYING or http://www.gnu.org/copyleft/gpl.txt).

 ABINIT is a project of the Universite Catholique de Louvain,
 Corning Inc. and other collaborators, see ~abinit/doc/developers/contributors.txt .
 Please read ~abinit/doc/users/acknowledgments.html for suggested
 acknowledgments of the ABINIT effort.
 For more information, see http://www.abinit.org .

.Starting date : Sun  1 Feb 2015.
- ( at 15h11 )
  
- input  file    -> t65.in
- output file    -> t65.out
- root for input  files -> t65i
- root for output files -> t65o


 DATASET   11 : space group P4 m m (# 99); Bravais tP (primitive tetrag.)
================================================================================
 Values of the parameters that define the memory need for DATASET 11.
   intxc =         0  ionmov =         0    iscf =         7 xclevel =         1
  lmnmax =         2   lnmax =         2   mband =         4  mffmem =         1
P  mgfft =        60   mkmem =         1 mpssoang=         3     mpw =      1507
  mqgrid =      3001   natom =         2    nfft =     54000    nkpt =         1
  nloalg =         4  nspden =         1 nspinor =         1  nsppol =         1
    nsym =         8  n1xccc =      2501  ntypat =         2  occopt =         1
================================================================================
P This job should need less than                      16.335 Mbytes of memory.
  Rough estimation (10% accuracy) of disk space for files :
_ WF disk file :      0.094 Mbytes ; DEN or POT disk file :      0.414 Mbytes.
================================================================================


 DATASET   12 : space group P4 m m (# 99); Bravais tP (primitive tetrag.)
================================================================================
 Values of the parameters that define the memory need for DATASET 12.
   intxc =         0  ionmov =         0    iscf =        -2 xclevel =         1
  lmnmax =         2   lnmax =         2   mband =         4  mffmem =         1
P  mgfft =        60   mkmem =         1 mpssoang=         3     mpw =      1507
  mqgrid =      3001   natom =         2    nfft =     54000    nkpt =         1
  nloalg =         4  nspden =         1 nspinor =         1  nsppol =         1
    nsym =         8  n1xccc =      2501  ntypat =         2  occopt =         1
================================================================================
P This job should need less than                       9.744 Mbytes of memory.
  Rough estimation (10% accuracy) of disk space for files :
_ WF disk file :      0.094 Mbytes ; DEN or POT disk file :      0.414 Mbytes.
================================================================================


 DATASET   13 : space group P4 m m (# 99); Bravais tP (primitive tetrag.)
================================================================================
 Values of the parameters that define the memory need for DATASET 13 (RF).
   intxc =         0    iscf =         7 xclevel =         1  lmnmax =         2
   lnmax =         2   mband =         4  mffmem =         1   mgfft =        60
P  mkmem =         1  mkqmem =         1  mk1mem =         1 mpssoang=         3
     mpw =      3013  mqgrid =      3001   natom =         2    nfft =     54000
    nkpt =         1  nloalg =         4  nspden =         1 nspinor =         1
  nsppol =         1    nsym =         8  n1xccc =      2501  ntypat =         2
  occopt =         1
================================================================================
P This job should need less than                      13.446 Mbytes of memory.
  Rough estimation (10% accuracy) of disk space for files :
_ WF disk file :      0.186 Mbytes ; DEN or POT disk file :      0.414 Mbytes.
================================================================================


 DATASET   14 : space group P4 m m (# 99); Bravais tP (primitive tetrag.)
================================================================================
 Values of the parameters that define the memory need for DATASET 14 (RF).
   intxc =         0    iscf =         7 xclevel =         1  lmnmax =         2
   lnmax =         2   mband =         4  mffmem =         1   mgfft =        60
P  mkmem =         1  mkqmem =         1  mk1mem =         1 mpssoang=         3
     mpw =      3013  mqgrid =      3001   natom =         2    nfft =     54000
    nkpt =         1  nloalg =         4  nspden =         1 nspinor =         1
  nsppol =         1    nsym =         8  n1xccc =      2501  ntypat =         2
  occopt =         1
================================================================================
P This job should need less than                      13.446 Mbytes of memory.
  Rough estimation (10% accuracy) of disk space for files :
_ WF disk file :      0.186 Mbytes ; DEN or POT disk file :      0.414 Mbytes.
================================================================================


 DATASET   15 : space group P4 m m (# 99); Bravais tP (primitive tetrag.)
================================================================================
 Values of the parameters that define the memory need for DATASET 15.
   intxc =         0  ionmov =         0    iscf =         7 xclevel =         1
  lmnmax =         2   lnmax =         2   mband =         4  mffmem =         1
P  mgfft =        60   mkmem =         1 mpssoang=         3     mpw =      3013
  mqgrid =      3001   natom =         2    nfft =     54000    nkpt =         1
  nloalg =         4  nspden =         1 nspinor =         1  nsppol =         1
    nsym =         8  n1xccc =      2501  ntypat =         2  occopt =         1
================================================================================
P This job should need less than                      16.956 Mbytes of memory.
  Rough estimation (10% accuracy) of disk space for files :
_ WF disk file :      0.186 Mbytes ; DEN or POT disk file :      0.414 Mbytes.
================================================================================

--------------------------------------------------------------------------------
------------- Echo of variables that govern the present computation ------------
--------------------------------------------------------------------------------
-
- outvars: echo of selected default values                                      
-   accesswff0 =  0 , fftalg0 =112 , wfoptalg0 =  0
-
- outvars: echo of global parameters not present in the input file              
-  max_nthreads =    0
-
 -outvars: echo values of preprocessed input variables --------
            acell      2.0000000000E+01  1.0000000000E+01  1.0000000000E+01 Bohr
              amu      2.29897680E+01  3.54527000E+01
           diemac      2.00000000E+00
             ecut      1.00000000E+01 Hartree
-          fftalg         112
           getddk11         0
           getddk12         0
           getddk13         0
           getddk14        -1
           getddk15         0
           getden11         0
           getden12        -1
           getden13         0
           getden14         0
           getden15        -4
           getwfk11         0
           getwfk12        -1
           getwfk13        -1
           getwfk14        -2
           getwfk15        -3
          get1den11         0
          get1den12         0
          get1den13         0
          get1den14         0
          get1den15        -1
           get1wf11         0
           get1wf12         0
           get1wf13         0
           get1wf14         0
           get1wf15        -1
             iscf11         7
             iscf12        -2
             iscf13         7
             iscf14         7
             iscf15         7
           istwfk11      2
           istwfk12      2
           istwfk13      1
           istwfk14      1
           istwfk15      1
              ixc           3
           jdtset       11   12   13   14   15
           kptopt           2
         kptrlatt        1    0    0      0    1    0      0    0    1
          kptrlen      1.00000000E+04
P           mkmem           1
P          mkqmem           1
P          mk1mem           1
            natom           2
            nband           4
           ndtset           5
            ngfft          60      30      30
             nkpt           1
            nstep          10
             nsym           8
           ntypat           2
              occ      2.000000  2.000000  2.000000  2.000000
        optdriver11         0
        optdriver12         0
        optdriver13         1
        optdriver14         1
        optdriver15         5
        optforces           1
          prepanl11         0
          prepanl12         0
          prepanl13         0
          prepanl14         1
          prepanl15         0
          rfatpol11         1       1
          rfatpol12         1       1
          rfatpol13         1       1
          rfatpol14         1       2
          rfatpol15         1       1
            rfdir11         0       0       0
            rfdir12         0       0       0
            rfdir13         1       1       1
            rfdir14         1       1       1
            rfdir15         0       0       0
           rfelfd11         0
           rfelfd12         0
           rfelfd13         2
           rfelfd14         3
           rfelfd15         0
           rfphon11         0
           rfphon12         0
           rfphon13         0
           rfphon14         1
           rfphon15         0
         rf1atpol11         1       1
         rf1atpol12         1       1
         rf1atpol13         1       1
         rf1atpol14         1       1
         rf1atpol15         1       2
           rf1dir11         0       0       0
           rf1dir12         0       0       0
           rf1dir13         0       0       0
           rf1dir14         0       0       0
           rf1dir15         1       1       1
          rf1elfd11         0
          rf1elfd12         0
          rf1elfd13         0
          rf1elfd14         0
          rf1elfd15         1
          rf1phon11         0
          rf1phon12         0
          rf1phon13         0
          rf1phon14         0
          rf1phon15         1
           rf2dir11         0       0       0
           rf2dir12         0       0       0
           rf2dir13         0       0       0
           rf2dir14         0       0       0
           rf2dir15         1       1       1
          rf2elfd11         0
          rf2elfd12         0
          rf2elfd13         0
          rf2elfd14         0
          rf2elfd15         1
           rf3dir11         0       0       0
           rf3dir12         0       0       0
           rf3dir13         0       0       0
           rf3dir14         0       0       0
           rf3dir15         1       1       1
          rf3elfd11         0
          rf3elfd12         0
          rf3elfd13         0
          rf3elfd14         0
          rf3elfd15         1
          spgroup          99
           symrel      1  0  0   0  1  0   0  0  1       1  0  0   0  1  0   0  0 -1
                       1  0  0   0 -1  0   0  0 -1       1  0  0   0 -1  0   0  0  1
                       1  0  0   0  0  1   0  1  0       1  0  0   0  0  1   0 -1  0
                       1  0  0   0  0 -1   0 -1  0       1  0  0   0  0 -1   0  1  0
           toldfe11    1.00000000E-12 Hartree
           toldfe12    0.00000000E+00 Hartree
           toldfe13    0.00000000E+00 Hartree
           toldfe14    0.00000000E+00 Hartree
           toldfe15    0.00000000E+00 Hartree
           toldff11    0.00000000E+00
           toldff12    0.00000000E+00
           toldff13    0.00000000E+00
           toldff14    0.00000000E+00
           toldff15    1.00000000E-08
           tolvrs11    0.00000000E+00
           tolvrs12    0.00000000E+00
           tolvrs13    0.00000000E+00
           tolvrs14    1.00000000E-12
           tolvrs15    0.00000000E+00
           tolwfr11    0.00000000E+00
           tolwfr12    1.00000000E-22
           tolwfr13    1.00000000E-22
           tolwfr14    0.00000000E+00
           tolwfr15    0.00000000E+00
            typat      1  2
           xangst     -1.2500000000E+00  0.0000000000E+00  0.0000000000E+00
                       1.2500000000E+00  0.0000000000E+00  0.0000000000E+00
            xcart     -2.3621576661E+00  0.0000000000E+00  0.0000000000E+00
                       2.3621576661E+00  0.0000000000E+00  0.0000000000E+00
             xred     -1.1810788331E-01  0.0000000000E+00  0.0000000000E+00
                       1.1810788331E-01  0.0000000000E+00  0.0000000000E+00
            znucl       11.00000   17.00000

================================================================================

 chkinp: Checking input parameters for consistency, jdtset=  11.

 chkinp: Checking input parameters for consistency, jdtset=  12.

 chkinp: Checking input parameters for consistency, jdtset=  13.

 chkinp: Checking input parameters for consistency, jdtset=  14.

 chkinp: Checking input parameters for consistency, jdtset=  15.

================================================================================
== DATASET 11 ==================================================================
-   nproc =    1

 Exchange-correlation functional for the present dataset will be:
  LDA: old Teter (4/91) fit to Ceperley-Alder data - ixc=3

 Real(R)+Recip(G) space primitive vectors, cartesian coordinates (Bohr,Bohr^-1):
 R(1)= 20.0000000  0.0000000  0.0000000  G(1)=  0.0500000  0.0000000  0.0000000
 R(2)=  0.0000000 10.0000000  0.0000000  G(2)=  0.0000000  0.1000000  0.0000000
 R(3)=  0.0000000  0.0000000 10.0000000  G(3)=  0.0000000  0.0000000  0.1000000
 Unit cell volume ucvol=  2.0000000E+03 bohr^3
 Angles (23,13,12)=  9.00000000E+01  9.00000000E+01  9.00000000E+01 degrees

 getcut: wavevector=  0.0000  0.0000  0.0000  ngfft=  60  30  30
         ecut(hartree)=     10.000   => boxcut(ratio)=   2.10744

--- Pseudopotential description ------------------------------------------------
- pspini: atom type   1  psp file is /data/ABINIT/testf_gcc47/trunk_7.10.4-training/tests/Psps_for_tests/11na.pspnc
- pspatm: opening atomic psp file    /data/ABINIT/testf_gcc47/trunk_7.10.4-training/tests/Psps_for_tests/11na.pspnc
-  Troullier-Martins psp for element  Na        Mon Oct 31 11:14:49 EST 1994
- 11.00000   1.00000    940714                znucl, zion, pspdat
    1    1    2    2      2001   0.00000      pspcod,pspxc,lmax,lloc,mmax,r2well
    0   2.613   6.900    1   2.9359409        l,e99.0,e99.9,nproj,rcpsp
   0.00000000   0.00000000   0.00000000   0.00000000     rms, ekb1, ekb2, epsatm
    1   0.769   1.167    1   3.1646217        l,e99.0,e99.9,nproj,rcpsp
   0.00000000   0.00000000   0.00000000   0.00000000     rms, ekb1, ekb2, epsatm
    2   0.991   2.977    0   2.9359409        l,e99.0,e99.9,nproj,rcpsp
   0.00000000   0.00000000   0.00000000   0.00000000     rms, ekb1, ekb2, epsatm
    2.09488187080490    1.31996662950249   10.58981932283911   rchrg,fchrg,qchrg
 pspatm: epsatm=   10.64390676
         --- l  ekb(1:nproj) -->
             0    1.300581
             1    0.590411
 pspatm: atomic psp has been read  and splines computed

- pspini: atom type   2  psp file is /data/ABINIT/testf_gcc47/trunk_7.10.4-training/tests/Psps_for_tests/17cl.pspnc
- pspatm: opening atomic psp file    /data/ABINIT/testf_gcc47/trunk_7.10.4-training/tests/Psps_for_tests/17cl.pspnc
-  Troullier-Martins psp for element  Cl        Thu Oct 27 17:32:09 EDT 1994
- 17.00000   7.00000    940714                znucl, zion, pspdat
    1    1    2    2      2001   0.00000      pspcod,pspxc,lmax,lloc,mmax,r2well
    0  10.493  25.212    1   1.6350894        l,e99.0,e99.9,nproj,rcpsp
   0.00000000   0.00000000   0.00000000   0.00000000     rms, ekb1, ekb2, epsatm
    1   5.554   8.510    1   1.6350894        l,e99.0,e99.9,nproj,rcpsp
   0.00000000   0.00000000   0.00000000   0.00000000     rms, ekb1, ekb2, epsatm
    2   0.000   0.000    0   1.6350894        l,e99.0,e99.9,nproj,rcpsp
   0.00000000   0.00000000   0.00000000   0.00000000     rms, ekb1, ekb2, epsatm
    1.23315314129373    1.11669953786602    1.82740311420084   rchrg,fchrg,qchrg
 pspatm: epsatm=    2.73037554
         --- l  ekb(1:nproj) -->
             0    6.290146
             1    3.746067
 pspatm: atomic psp has been read  and splines computed

   1.06994258E+02                                ecore*ucvol(ha*bohr**3)
--------------------------------------------------------------------------------

P newkpt: treating      4 bands with npw=    1507 for ikpt=   1 by node    0

_setup2: Arith. and geom. avg. npw (full set) are    3013.000    3013.000

================================================================================

     iter   Etot(hartree)      deltaE(h)  residm     vres2    diffor    maxfor
 ETOT  1  -22.756108892459    -2.276E+01 5.355E-02 1.906E+02 9.345E-02 9.345E-02
 ETOT  2  -22.862029253802    -1.059E-01 3.804E-06 3.251E+01 1.007E-01 7.270E-03
 ETOT  3  -22.865127048225    -3.098E-03 4.809E-05 2.219E+00 5.656E-04 7.836E-03
 ETOT  4  -22.864463492156     6.636E-04 2.779E-05 2.199E+00 1.157E-02 1.941E-02
 ETOT  5  -22.862665028871     1.798E-03 1.652E-05 8.001E+00 3.062E-02 1.121E-02
 ETOT  6  -22.865644370018    -2.979E-03 9.571E-06 3.851E-02 2.428E-02 1.307E-02
 ETOT  7  -22.865659829006    -1.546E-05 5.273E-07 1.553E-02 2.191E-03 1.088E-02
 ETOT  8  -22.865661536373    -1.707E-06 1.360E-08 8.379E-03 6.336E-04 1.025E-02
 ETOT  9  -22.865664034395    -2.498E-06 3.061E-08 5.196E-04 8.939E-05 1.016E-02
 ETOT 10  -22.865664034872    -4.775E-10 1.310E-09 1.824E-04 1.852E-04 9.974E-03

 Cartesian components of stress tensor (hartree/bohr^3)
  sigma(1 1)=  5.43321557E-05  sigma(3 2)=  0.00000000E+00
  sigma(2 2)= -9.07799889E-06  sigma(3 1)=  0.00000000E+00
  sigma(3 3)= -9.07799889E-06  sigma(2 1)=  0.00000000E+00


 scprqt:  WARNING -
  nstep=   10 was not enough SCF cycles to converge;
  maximum energy difference=  4.775E-10 exceeds toldfe=  1.000E-12

================================================================================

 ----iterations are completed or convergence reached----

 Mean square residual over all n,k,spin=   5.3396E-10; max=  1.3104E-09
   0.0000  0.0000  0.0000    1  1.31043E-09 kpt; spin; max resid(k); each band:
  7.73E-10 1.31E-09 7.22E-12 4.54E-11
 reduced coordinates (array xred) for    2 atoms
      -0.118107883305      0.000000000000      0.000000000000
       0.118107883305      0.000000000000      0.000000000000
 rms dE/dt=  1.1517E-01; max dE/dt=  1.9927E-01; dE/dt below (all hartree)
    1      -0.199687553601      0.000000000000      0.000000000000
    2       0.199266146673      0.000000000000      0.000000000000

 cartesian coordinates (angstrom) at end:
    1     -1.25000000000000     0.00000000000000     0.00000000000000
    2      1.25000000000000     0.00000000000000     0.00000000000000

 cartesian forces (hartree/bohr) at end:
    1      0.00997384250685    -0.00000000000000    -0.00000000000000
    2     -0.00997384250685    -0.00000000000000    -0.00000000000000
 frms,max,avg= 5.7584007E-03 9.9738425E-03   1.054E-05  0.000E+00  0.000E+00 h/b

 cartesian forces (eV/Angstrom) at end:
    1      0.51287555965633    -0.00000000000000    -0.00000000000000
    2     -0.51287555965633    -0.00000000000000    -0.00000000000000
 frms,max,avg= 2.9610884E-01 5.1287556E-01   5.417E-04  0.000E+00  0.000E+00 e/A
 length scales= 20.000000000000 10.000000000000 10.000000000000 bohr
              = 10.583544171800  5.291772085900  5.291772085900 angstroms
 prteigrs : about to open file t65o_DS11_EIG
 Fermi (or HOMO) energy (hartree) =  -0.14681   Average Vxc (hartree)=  -0.10205
 Eigenvalues (hartree) for nkpt=   1  k points:
 kpt#   1, nband=  4, wtk=  1.00000, kpt=  0.0000  0.0000  0.0000 (reduced coord)
  -0.57672  -0.17662  -0.14681  -0.14681
 Total charge density [el/Bohr^3]
,     Maximum=    2.5917E-01  at reduced coord.    0.1167    0.0000    0.9000
,Next maximum=    2.5917E-01  at reduced coord.    0.1167    0.0000    0.1000
,     Minimum=    9.8398E-09  at reduced coord.    0.4833    0.5000    0.4333
,Next minimum=    9.8398E-09  at reduced coord.    0.4833    0.4333    0.5000
,  Integrated=    8.0000E+00

--------------------------------------------------------------------------------
 Components of total free energy (in Hartree) :

    Kinetic energy  =  5.52292238684473E+00
    Hartree energy  =  9.67384741882571E+00
    XC energy       = -1.09231474615246E+01
    Ewald energy    = -4.45420999878833E+00
    PspCore energy  =  5.34971292141683E-02
    Loc. psp. energy= -2.66048757243848E+01
    NL   psp  energy=  3.86630221494089E+00
    >>>>>>>>> Etotal= -2.28656640348722E+01

 Other information on the energy :
    Total energy(eV)= -6.22206361266703E+02 ; Band energy (Ha)=  -2.0939179921E+00
--------------------------------------------------------------------------------

 Cartesian components of stress tensor (hartree/bohr^3)
  sigma(1 1)=  5.43321557E-05  sigma(3 2)=  0.00000000E+00
  sigma(2 2)= -9.07799889E-06  sigma(3 1)=  0.00000000E+00
  sigma(3 3)= -9.07799889E-06  sigma(2 1)=  0.00000000E+00

-Cartesian components of stress tensor (GPa)         [Pressure= -3.5478E-01 GPa]
- sigma(1 1)=  1.59850694E+00  sigma(3 2)=  0.00000000E+00
- sigma(2 2)= -2.67083903E-01  sigma(3 1)=  0.00000000E+00
- sigma(3 3)= -2.67083903E-01  sigma(2 1)=  0.00000000E+00

================================================================================
== DATASET 12 ==================================================================
-   nproc =    1

 mkfilename : getwfk/=0, take file _WFK from output of DATASET  11.

 mkfilename : getden/=0, take file _DEN from output of DATASET  11.

 Exchange-correlation functional for the present dataset will be:
  LDA: old Teter (4/91) fit to Ceperley-Alder data - ixc=3

 Real(R)+Recip(G) space primitive vectors, cartesian coordinates (Bohr,Bohr^-1):
 R(1)= 20.0000000  0.0000000  0.0000000  G(1)=  0.0500000  0.0000000  0.0000000
 R(2)=  0.0000000 10.0000000  0.0000000  G(2)=  0.0000000  0.1000000  0.0000000
 R(3)=  0.0000000  0.0000000 10.0000000  G(3)=  0.0000000  0.0000000  0.1000000
 Unit cell volume ucvol=  2.0000000E+03 bohr^3
 Angles (23,13,12)=  9.00000000E+01  9.00000000E+01  9.00000000E+01 degrees

 getcut: wavevector=  0.0000  0.0000  0.0000  ngfft=  60  30  30
         ecut(hartree)=     10.000   => boxcut(ratio)=   2.10744
--------------------------------------------------------------------------------

-inwffil : will read wavefunctions from disk file t65o_DS11_WFK
P newkpt: treating      4 bands with npw=    1507 for ikpt=   1 by node    0


================================================================================
 prteigrs : about to open file t65o_DS12_EIG
 Non-SCF case, kpt    1 (  0.00000  0.00000  0.00000), residuals and eigenvalues=
  6.21E-23  4.30E-23  7.42E-23  3.78E-23
 -5.7657E-01 -1.7650E-01 -1.4668E-01 -1.4668E-01
================================================================================

 ----iterations are completed or convergence reached----

 Mean square residual over all n,k,spin=   5.4281E-23; max=  7.4154E-23
   0.0000  0.0000  0.0000    1  7.41536E-23 kpt; spin; max resid(k); each band:
  6.21E-23 4.30E-23 7.42E-23 3.78E-23
 reduced coordinates (array xred) for    2 atoms
      -0.118107883305      0.000000000000      0.000000000000
       0.118107883305      0.000000000000      0.000000000000

 cartesian coordinates (angstrom) at end:
    1     -1.25000000000000     0.00000000000000     0.00000000000000
    2      1.25000000000000     0.00000000000000     0.00000000000000
 length scales= 20.000000000000 10.000000000000 10.000000000000 bohr
              = 10.583544171800  5.291772085900  5.291772085900 angstroms
 prteigrs : about to open file t65o_DS12_EIG
 Eigenvalues (hartree) for nkpt=   1  k points:
 kpt#   1, nband=  4, wtk=  1.00000, kpt=  0.0000  0.0000  0.0000 (reduced coord)
  -0.57657  -0.17650  -0.14668  -0.14668
 Total charge density [el/Bohr^3]
,     Maximum=    2.5917E-01  at reduced coord.    0.1167    0.0000    0.9000
,Next maximum=    2.5917E-01  at reduced coord.    0.1167    0.0000    0.1000
,     Minimum=    9.8398E-09  at reduced coord.    0.4833    0.5000    0.4333
,Next minimum=    9.8398E-09  at reduced coord.    0.4833    0.4333    0.5000
,  Integrated=    8.0000E+00

================================================================================
== DATASET 13 ==================================================================
-   nproc =    1

 mkfilename : getwfk/=0, take file _WFK from output of DATASET  12.

 Exchange-correlation functional for the present dataset will be:
  LDA: old Teter (4/91) fit to Ceperley-Alder data - ixc=3

 Real(R)+Recip(G) space primitive vectors, cartesian coordinates (Bohr,Bohr^-1):
 R(1)= 20.0000000  0.0000000  0.0000000  G(1)=  0.0500000  0.0000000  0.0000000
 R(2)=  0.0000000 10.0000000  0.0000000  G(2)=  0.0000000  0.1000000  0.0000000
 R(3)=  0.0000000  0.0000000 10.0000000  G(3)=  0.0000000  0.0000000  0.1000000
 Unit cell volume ucvol=  2.0000000E+03 bohr^3
 Angles (23,13,12)=  9.00000000E+01  9.00000000E+01  9.00000000E+01 degrees

 getcut: wavevector=  0.0000  0.0000  0.0000  ngfft=  60  30  30
         ecut(hartree)=     10.000   => boxcut(ratio)=   2.10744
--------------------------------------------------------------------------------

-inwffil : will read wavefunctions from disk file t65o_DS12_WFK
- newkpt: read input wf with ikpt,npw=   1    1507, make ikpt,npw=   1    3013


 ==>  initialize data related to q vector <== 

 The list of irreducible perturbations for this q vector is:
    1)    idir= 1    ipert=   3
    2)    idir= 2    ipert=   3
    3)    idir= 3    ipert=   3

================================================================================

--------------------------------------------------------------------------------
 Perturbation wavevector (in red.coord.)   0.000000  0.000000  0.000000
 Perturbation : derivative vs k along direction   1

 loper3 : COMMENT -
  In a d/dk calculation, iscf is set to -3 automatically.
 The set of symmetries contains only one element for this perturbation.
 symkpt : not enough symmetry to change the number of k points.

--------------------------------------------------------------------------------

-inwffil : will read wavefunctions from disk file t65o_DS12_WFK
- newkpt: read input wf with ikpt,npw=   1    1507, make ikpt,npw=   1    3013

--------------------------------------------------------------------------------

-inwffil : will read wavefunctions from disk file t65o_DS12_WFK
- newkpt: read input wf with ikpt,npw=   1    1507, make ikpt,npw=   1    3013

 Initialisation of the first-order wave-functions :
  ireadwf=   0
P newkpt: treating      4 bands with npw=    3013 for ikpt=   1 by node    0


     iter   2DEtotal(Ha)        deltaE(Ha) residm    vres2
-ETOT  1 -0.74980246443964     -7.498E-01 2.115E-03 0.000E+00
 ETOT  2 -0.75458058699729     -4.778E-03 4.249E-05 0.000E+00
 ETOT  3 -0.75467854465152     -9.796E-05 9.430E-07 0.000E+00
 ETOT  4 -0.75468089817286     -2.354E-06 2.459E-08 0.000E+00
 ETOT  5 -0.75468095701243     -5.884E-08 5.838E-10 0.000E+00
 ETOT  6 -0.75468095850629     -1.494E-09 1.511E-11 0.000E+00
 ETOT  7 -0.75468095854468     -3.839E-11 3.981E-13 0.000E+00
 ETOT  8 -0.75468095854567     -9.867E-13 9.764E-15 0.000E+00
 ETOT  9 -0.75468095854570     -3.497E-14 2.805E-16 0.000E+00
 ETOT 10 -0.75468095854569      1.565E-14 6.518E-18 0.000E+00

 scprqt:  WARNING -
  nstep=   10 was not enough SCF cycles to converge;
  maximum residual=  6.518E-18 exceeds tolwfr=  1.000E-22

================================================================================

 ----iterations are completed or convergence reached----

 Mean square residual over all n,k,spin=   1.6296E-18; max=  6.5183E-18
   0.0000  0.0000  0.0000    1  6.51827E-18 kpt; spin; max resid(k); each band:
  7.11E-23 6.52E-18 6.65E-23 6.65E-23
 loper3 : ek2=    1.5791367042E+00
          f-sum rule ratio=    1.0171469502E+00
 prteigrs : about to open file t65_1WF1_EIG
 Expectation of eigenvalue derivatives (hartree) for nkpt=   1  k points:
  (in case of degenerate eigenvalues, averaged derivative)
 kpt#   1, nband=  4, wtk=  1.00000, kpt=  0.0000  0.0000  0.0000 (reduced coord)
  -0.00000  -0.00000   0.00000   0.00000

 Eight components of 2nd-order total energy (hartree) are
 1,2,3: 0th-order hamiltonian combined with 1st-order wavefunctions
     kin0=   1.29017217E+00 eigvalue=   4.61787257E-01  local=  -1.33458018E+00
 4,5,6: 1st-order hamiltonian combined with 1st and 0th-order wfs
     kin1=  -1.60621408E+00  Hartree=   0.00000000E+00     xc=   0.00000000E+00
 7,8,9: eventually, occupation + non-local contributions
    edocc=   0.00000000E+00     enl0=   3.37301707E-01   enl1=   9.68521693E-02
 1-9 gives the relaxation energy (to be shifted if some occ is /=2.0)
   erelax=  -7.54680959E-01
  No Ewald or frozen-wf contrib.: the relaxation energy is the total one
 2DEtotal=   -0.7546809585E+00 Ha. Also 2DEtotal=   -0.205359132548E+02 eV
    (  non-var. 2DEtotal :   -7.5468095661E-01 Ha)

--------------------------------------------------------------------------------
 Perturbation wavevector (in red.coord.)   0.000000  0.000000  0.000000
 Perturbation : derivative vs k along direction   2
 The set of symmetries contains only one element for this perturbation.
 symkpt : not enough symmetry to change the number of k points.

--------------------------------------------------------------------------------

-inwffil : will read wavefunctions from disk file t65o_DS12_WFK
- newkpt: read input wf with ikpt,npw=   1    1507, make ikpt,npw=   1    3013

--------------------------------------------------------------------------------

-inwffil : will read wavefunctions from disk file t65o_DS12_WFK
- newkpt: read input wf with ikpt,npw=   1    1507, make ikpt,npw=   1    3013

 Initialisation of the first-order wave-functions :
  ireadwf=   0
P newkpt: treating      4 bands with npw=    3013 for ikpt=   1 by node    0


     iter   2DEtotal(Ha)        deltaE(Ha) residm    vres2
-ETOT  1  -3.1555670873321     -3.156E+00 2.861E-03 0.000E+00
 ETOT  2  -3.1931077691338     -3.754E-02 1.448E-03 0.000E+00
 ETOT  3  -3.1944099985392     -1.302E-03 3.443E-06 0.000E+00
 ETOT  4  -3.1944570852093     -4.709E-05 1.405E-06 0.000E+00
 ETOT  5  -3.1944589432086     -1.858E-06 4.775E-09 0.000E+00
 ETOT  6  -3.1944590168654     -7.366E-08 2.190E-09 0.000E+00
 ETOT  7  -3.1944590198688     -3.003E-09 8.014E-12 0.000E+00
 ETOT  8  -3.1944590199915     -1.227E-10 3.674E-12 0.000E+00
 ETOT  9  -3.1944590199966     -5.095E-12 1.367E-14 0.000E+00
 ETOT 10  -3.1944590199967     -1.763E-13 6.331E-15 0.000E+00

 scprqt:  WARNING -
  nstep=   10 was not enough SCF cycles to converge;
  maximum residual=  6.331E-15 exceeds tolwfr=  1.000E-22

================================================================================

 ----iterations are completed or convergence reached----

 Mean square residual over all n,k,spin=   1.5828E-15; max=  6.3312E-15
   0.0000  0.0000  0.0000    1  6.33123E-15 kpt; spin; max resid(k); each band:
  8.81E-23 8.25E-23 8.10E-23 6.33E-15
 loper3 : ek2=    6.3165468167E+00
          f-sum rule ratio=    1.0780579363E+00
 prteigrs : about to open file t65_1WF1_EIG
 Expectation of eigenvalue derivatives (hartree) for nkpt=   1  k points:
  (in case of degenerate eigenvalues, averaged derivative)
 kpt#   1, nband=  4, wtk=  1.00000, kpt=  0.0000  0.0000  0.0000 (reduced coord)
  -0.00000   0.00000   0.00000   0.00000

 Eight components of 2nd-order total energy (hartree) are
 1,2,3: 0th-order hamiltonian combined with 1st-order wavefunctions
     kin0=   5.08338219E+00 eigvalue=   1.54438382E+00  local=  -4.60862373E+00
 4,5,6: 1st-order hamiltonian combined with 1st and 0th-order wfs
     kin1=  -6.80960343E+00  Hartree=   0.00000000E+00     xc=   0.00000000E+00
 7,8,9: eventually, occupation + non-local contributions
    edocc=   0.00000000E+00     enl0=   1.17531658E+00   enl1=   4.20685551E-01
 1-9 gives the relaxation energy (to be shifted if some occ is /=2.0)
   erelax=  -3.19445902E+00
  No Ewald or frozen-wf contrib.: the relaxation energy is the total one
 2DEtotal=   -0.3194459020E+01 Ha. Also 2DEtotal=   -0.869256506182E+02 eV
    (  non-var. 2DEtotal :   -3.1944589372E+00 Ha)

--------------------------------------------------------------------------------
 Perturbation wavevector (in red.coord.)   0.000000  0.000000  0.000000
 Perturbation : derivative vs k along direction   3
 The set of symmetries contains only one element for this perturbation.
 symkpt : not enough symmetry to change the number of k points.

--------------------------------------------------------------------------------

-inwffil : will read wavefunctions from disk file t65o_DS12_WFK
- newkpt: read input wf with ikpt,npw=   1    1507, make ikpt,npw=   1    3013

--------------------------------------------------------------------------------

-inwffil : will read wavefunctions from disk file t65o_DS12_WFK
- newkpt: read input wf with ikpt,npw=   1    1507, make ikpt,npw=   1    3013

 Initialisation of the first-order wave-functions :
  ireadwf=   0
P newkpt: treating      4 bands with npw=    3013 for ikpt=   1 by node    0


     iter   2DEtotal(Ha)        deltaE(Ha) residm    vres2
-ETOT  1  -3.1555670872865     -3.156E+00 2.861E-03 0.000E+00
 ETOT  2  -3.1931077690829     -3.754E-02 1.448E-03 0.000E+00
 ETOT  3  -3.1944099984880     -1.302E-03 3.443E-06 0.000E+00
 ETOT  4  -3.1944570851580     -4.709E-05 1.405E-06 0.000E+00
 ETOT  5  -3.1944589431573     -1.858E-06 4.775E-09 0.000E+00
 ETOT  6  -3.1944590168140     -7.366E-08 2.190E-09 0.000E+00
 ETOT  7  -3.1944590198175     -3.003E-09 8.014E-12 0.000E+00
 ETOT  8  -3.1944590199402     -1.227E-10 3.674E-12 0.000E+00
 ETOT  9  -3.1944590199453     -5.091E-12 1.367E-14 0.000E+00
 ETOT 10  -3.1944590199455     -2.176E-13 6.331E-15 0.000E+00

 scprqt:  WARNING -
  nstep=   10 was not enough SCF cycles to converge;
  maximum residual=  6.331E-15 exceeds tolwfr=  1.000E-22

================================================================================

 ----iterations are completed or convergence reached----

 Mean square residual over all n,k,spin=   1.5828E-15; max=  6.3312E-15
   0.0000  0.0000  0.0000    1  6.33123E-15 kpt; spin; max resid(k); each band:
  8.81E-23 8.25E-23 6.33E-15 8.10E-23
 loper3 : ek2=    6.3165468167E+00
          f-sum rule ratio=    1.0780579363E+00
 prteigrs : about to open file t65_1WF1_EIG
 Expectation of eigenvalue derivatives (hartree) for nkpt=   1  k points:
  (in case of degenerate eigenvalues, averaged derivative)
 kpt#   1, nband=  4, wtk=  1.00000, kpt=  0.0000  0.0000  0.0000 (reduced coord)
   0.00000   0.00000  -0.00000  -0.00000

 Eight components of 2nd-order total energy (hartree) are
 1,2,3: 0th-order hamiltonian combined with 1st-order wavefunctions
     kin0=   5.08338219E+00 eigvalue=   1.54438382E+00  local=  -4.60862373E+00
 4,5,6: 1st-order hamiltonian combined with 1st and 0th-order wfs
     kin1=  -6.80960343E+00  Hartree=   0.00000000E+00     xc=   0.00000000E+00
 7,8,9: eventually, occupation + non-local contributions
    edocc=   0.00000000E+00     enl0=   1.17531658E+00   enl1=   4.20685551E-01
 1-9 gives the relaxation energy (to be shifted if some occ is /=2.0)
   erelax=  -3.19445902E+00
  No Ewald or frozen-wf contrib.: the relaxation energy is the total one
 2DEtotal=   -0.3194459020E+01 Ha. Also 2DEtotal=   -0.869256506168E+02 eV
    (  non-var. 2DEtotal :   -3.1944589371E+00 Ha)
================================================================================

 ---- first-order wavefunction calculations are completed ----


 Total localisation tensor (bohr^2) in cartesian coordinates
  WARNING : still subject to testing - especially symmetries.
      direction              matrix element
   alpha     beta       real part   imaginary part
     1        1       1.7036058304    0.0000000000
     1        2       0.0000000000    0.0000000000
     1        3       0.0000000000    0.0000000000
     2        1       0.0000000000    0.0000000000
     2        2       1.6008904354    0.0000000000
     2        3       0.0000000000    0.0000000000
     3        1       0.0000000000    0.0000000000
     3        2       0.0000000000    0.0000000000
     3        3       1.6008904354    0.0000000000

 respfn : d/dk was computed, but no 2DTE, so no DDB output.

================================================================================
== DATASET 14 ==================================================================
-   nproc =    1

 mkfilename : getwfk/=0, take file _WFK from output of DATASET  12.

 mkfilename : getddk/=0, take file _1WF from output of DATASET  13.

 Exchange-correlation functional for the present dataset will be:
  LDA: old Teter (4/91) fit to Ceperley-Alder data - ixc=3

 Real(R)+Recip(G) space primitive vectors, cartesian coordinates (Bohr,Bohr^-1):
 R(1)= 20.0000000  0.0000000  0.0000000  G(1)=  0.0500000  0.0000000  0.0000000
 R(2)=  0.0000000 10.0000000  0.0000000  G(2)=  0.0000000  0.1000000  0.0000000
 R(3)=  0.0000000  0.0000000 10.0000000  G(3)=  0.0000000  0.0000000  0.1000000
 Unit cell volume ucvol=  2.0000000E+03 bohr^3
 Angles (23,13,12)=  9.00000000E+01  9.00000000E+01  9.00000000E+01 degrees

 getcut: wavevector=  0.0000  0.0000  0.0000  ngfft=  60  30  30
         ecut(hartree)=     10.000   => boxcut(ratio)=   2.10744
--------------------------------------------------------------------------------

-inwffil : will read wavefunctions from disk file t65o_DS12_WFK
- newkpt: read input wf with ikpt,npw=   1    1507, make ikpt,npw=   1    3013


 ==>  initialize data related to q vector <== 

 The list of irreducible perturbations for this q vector is:
    1)    idir= 1    ipert=   1
    2)    idir= 2    ipert=   1
    3)    idir= 1    ipert=   2
    4)    idir= 2    ipert=   2
    5)    idir= 1    ipert=   4
    6)    idir= 2    ipert=   4

================================================================================

 The perturbation idir=   3  ipert=   1 is
 symmetric of a previously calculated perturbation.
 So, its SCF calculation is not needed.


 The perturbation idir=   3  ipert=   2 is
 symmetric of a previously calculated perturbation.
 So, its SCF calculation is not needed.


--------------------------------------------------------------------------------
 Perturbation wavevector (in red.coord.)   0.000000  0.000000  0.000000
 Perturbation : displacement of atom   1   along direction   1
 symkpt : not enough symmetry to change the number of k points.

--------------------------------------------------------------------------------

-inwffil : will read wavefunctions from disk file t65o_DS12_WFK
- newkpt: read input wf with ikpt,npw=   1    1507, make ikpt,npw=   1    3013

--------------------------------------------------------------------------------

-inwffil : will read wavefunctions from disk file t65o_DS12_WFK
- newkpt: read input wf with ikpt,npw=   1    1507, make ikpt,npw=   1    3013

 Initialisation of the first-order wave-functions :
  ireadwf=   0
P newkpt: treating      4 bands with npw=    3013 for ikpt=   1 by node    0


     iter   2DEtotal(Ha)        deltaE(Ha) residm    vres2
-ETOT  1   35.078502946591      1.042E+00 2.198E-01 2.020E+04
 ETOT  2   55.620354745725      2.054E+01 1.375E-01 4.296E+04
 ETOT  3   21.492054649400     -3.413E+01 4.945E-02 3.389E+02
 ETOT  4   21.260749515947     -2.313E-01 1.002E-04 4.345E+01
 ETOT  5   21.248347754403     -1.240E-02 6.480E-05 1.196E+01
 ETOT  6   21.244973342488     -3.374E-03 1.213E-06 2.670E+00
 ETOT  7   21.243909468817     -1.064E-03 4.027E-06 7.737E-01
 ETOT  8   21.243812954758     -9.651E-05 6.272E-08 1.803E-01
 ETOT  9   21.243802812819     -1.014E-05 2.469E-08 5.442E-03
 ETOT 10   21.243802885901      7.308E-08 3.106E-10 6.606E-04
-open ddk wf file :t65o_DS13_1WF7
-open ddk wf file :t65o_DS13_1WF8
-open ddk wf file :t65o_DS13_1WF9

 scprqt:  WARNING -
  nstep=   10 was not enough SCF cycles to converge;
  potential residual=  6.606E-04 exceeds tolvrs=  1.000E-12

================================================================================

 ----iterations are completed or convergence reached----

 Mean square residual over all n,k,spin=   1.0382E-10; max=  3.1058E-10
   0.0000  0.0000  0.0000    1  3.10582E-10 kpt; spin; max resid(k); each band:
  7.31E-11 3.11E-10 1.58E-11 1.58E-11

 Thirteen components of 2nd-order total energy (hartree) are
 1,2,3: 0th-order hamiltonian combined with 1st-order wavefunctions
     kin0=   1.36603417E+01 eigvalue=   4.36756324E+00  local=  -1.35194237E+01
 4,5,6: 1st-order hamiltonian combined with 1st and 0th-order wfs
 loc psp =   9.81166267E+00  Hartree=   3.01684857E+00     xc=  -9.58288166E-01
 note that "loc psp" includes a xc core correction that could be resolved
 7,8,9: eventually, occupation + non-local contributions
    edocc=   0.00000000E+00     enl0=   6.22383632E+00   enl1=  -3.53952531E+01
 1-9 gives the relaxation energy (to be shifted if some occ is /=2.0)
   erelax=  -1.27927125E+01
 10,11,12 Non-relaxation  contributions : frozen-wavefunctions and Ewald
 fr.local=  -4.18316503E+01 fr.nonlo=   4.58775820E+01  Ewald=   5.54836567E+01
 13,14 Frozen wf xc core corrections (1) and (2)
 frxc 1  =  -1.28596271E+03  frxc 2 =   1.26046964E+03
 Resulting in :
 2DEtotal=    0.2124380289E+02 Ha. Also 2DEtotal=    0.578073274974E+03 eV
    (2DErelax=   -1.2792712467E+01 Ha. 2DEnonrelax=    3.4036515353E+01 Ha)
    (  non-var. 2DEtotal :    2.1244720149E+01 Ha)


--------------------------------------------------------------------------------
 Perturbation wavevector (in red.coord.)   0.000000  0.000000  0.000000
 Perturbation : displacement of atom   1   along direction   2
 symkpt : not enough symmetry to change the number of k points.

--------------------------------------------------------------------------------

-inwffil : will read wavefunctions from disk file t65o_DS12_WFK
- newkpt: read input wf with ikpt,npw=   1    1507, make ikpt,npw=   1    3013

--------------------------------------------------------------------------------

-inwffil : will read wavefunctions from disk file t65o_DS12_WFK
- newkpt: read input wf with ikpt,npw=   1    1507, make ikpt,npw=   1    3013

 Initialisation of the first-order wave-functions :
  ireadwf=   0
P newkpt: treating      4 bands with npw=    3013 for ikpt=   1 by node    0


     iter   2DEtotal(Ha)        deltaE(Ha) residm    vres2
-ETOT  1 -2.75596475818247E-02 -9.660E-01 1.060E-03 2.982E+01
 ETOT  2 -4.92871626390752E-02 -2.173E-02 2.554E-05 6.958E+00
 ETOT  3 -5.91778345699936E-02 -9.891E-03 4.379E-06 8.058E-01
 ETOT  4 -5.97250273694954E-02 -5.472E-04 9.429E-07 3.585E-02
 ETOT  5 -5.97861784182214E-02 -6.115E-05 2.725E-07 1.421E-03
 ETOT  6 -5.97869825455746E-02 -8.041E-07 2.523E-09 8.052E-05
 ETOT  7 -5.97870243178136E-02 -4.177E-08 8.212E-10 7.795E-06
 ETOT  8 -5.97870309024984E-02 -6.585E-09 4.798E-12 1.744E-07
 ETOT  9 -5.97870312081454E-02 -3.057E-10 9.607E-12 2.604E-08
 ETOT 10 -5.97870312312239E-02 -2.305E-11 3.551E-14 5.106E-10
-open ddk wf file :t65o_DS13_1WF7
-open ddk wf file :t65o_DS13_1WF8
-open ddk wf file :t65o_DS13_1WF9

 scprqt:  WARNING -
  nstep=   10 was not enough SCF cycles to converge;
  potential residual=  5.106E-10 exceeds tolvrs=  1.000E-12

================================================================================

 ----iterations are completed or convergence reached----

 Mean square residual over all n,k,spin=   1.4360E-14; max=  3.5506E-14
   0.0000  0.0000  0.0000    1  3.55058E-14 kpt; spin; max resid(k); each band:
  1.75E-14 2.92E-15 1.49E-15 3.55E-14

 Thirteen components of 2nd-order total energy (hartree) are
 1,2,3: 0th-order hamiltonian combined with 1st-order wavefunctions
     kin0=   1.10369543E+00 eigvalue=   1.61889172E-01  local=  -5.77692459E-01
 4,5,6: 1st-order hamiltonian combined with 1st and 0th-order wfs
 loc psp =   1.66851434E+00  Hartree=   4.32860544E-02     xc=  -3.00396810E-02
 note that "loc psp" includes a xc core correction that could be resolved
 7,8,9: eventually, occupation + non-local contributions
    edocc=   0.00000000E+00     enl0=   2.97086283E-01   enl1=  -3.66496388E+00
 1-9 gives the relaxation energy (to be shifted if some occ is /=2.0)
   erelax=  -9.98224737E-01
 10,11,12 Non-relaxation  contributions : frozen-wavefunctions and Ewald
 fr.local=   4.68923555E+00 fr.nonlo=   3.90406619E-01  Ewald=  -4.73634223E+00
 13,14 Frozen wf xc core corrections (1) and (2)
 frxc 1  =  -3.26207149E+02  frxc 2 =   3.26802287E+02
 Resulting in :
 2DEtotal=   -0.5978703123E-01 Ha. Also 2DEtotal=   -0.162688785668E+01 eV
    (2DErelax=   -9.9822473702E-01 Ha. 2DEnonrelax=    9.3843770579E-01 Ha)
    (  non-var. 2DEtotal :   -5.9787061143E-02 Ha)


--------------------------------------------------------------------------------
 Perturbation wavevector (in red.coord.)   0.000000  0.000000  0.000000
 Perturbation : displacement of atom   2   along direction   1
 symkpt : not enough symmetry to change the number of k points.

--------------------------------------------------------------------------------

-inwffil : will read wavefunctions from disk file t65o_DS12_WFK
- newkpt: read input wf with ikpt,npw=   1    1507, make ikpt,npw=   1    3013

--------------------------------------------------------------------------------

-inwffil : will read wavefunctions from disk file t65o_DS12_WFK
- newkpt: read input wf with ikpt,npw=   1    1507, make ikpt,npw=   1    3013

 Initialisation of the first-order wave-functions :
  ireadwf=   0
P newkpt: treating      4 bands with npw=    3013 for ikpt=   1 by node    0


     iter   2DEtotal(Ha)        deltaE(Ha) residm    vres2
-ETOT  1   4348.9355825253      7.429E+02 5.650E+00 6.646E+06
 ETOT  2   3211.1897115659     -1.138E+03 7.022E+00 3.543E+06
 ETOT  3   168.78093027159     -3.042E+03 4.309E+00 2.056E+05
 ETOT  4   28.411091525304     -1.404E+02 1.782E-01 1.551E+04
 ETOT  5   20.809584129561     -7.602E+00 1.097E-03 1.507E+03
 ETOT  6   20.392648915807     -4.169E-01 2.231E-03 2.736E+02
 ETOT  7   20.281887436735     -1.108E-01 4.748E-04 4.264E+01
 ETOT  8   20.253539442696     -2.835E-02 3.670E-05 3.221E+00
 ETOT  9   20.251291058603     -2.248E-03 5.022E-06 2.539E-01
 ETOT 10   20.251258820311     -3.224E-05 1.157E-08 5.983E-02
-open ddk wf file :t65o_DS13_1WF7
-open ddk wf file :t65o_DS13_1WF8
-open ddk wf file :t65o_DS13_1WF9

 scprqt:  WARNING -
  nstep=   10 was not enough SCF cycles to converge;
  potential residual=  5.983E-02 exceeds tolvrs=  1.000E-12

================================================================================

 ----iterations are completed or convergence reached----

 Mean square residual over all n,k,spin=   4.6308E-09; max=  1.1575E-08
   0.0000  0.0000  0.0000    1  1.15749E-08 kpt; spin; max resid(k); each band:
  4.36E-09 1.16E-08 1.29E-09 1.29E-09

 Thirteen components of 2nd-order total energy (hartree) are
 1,2,3: 0th-order hamiltonian combined with 1st-order wavefunctions
     kin0=   3.98375949E+03 eigvalue=   4.09068142E+02  local=  -4.11154501E+03
 4,5,6: 1st-order hamiltonian combined with 1st and 0th-order wfs
 loc psp =  -4.86103097E+03  Hartree=   1.67480463E+03     xc=  -3.37405433E+02
 note that "loc psp" includes a xc core correction that could be resolved
 7,8,9: eventually, occupation + non-local contributions
    edocc=   0.00000000E+00     enl0=   1.96706384E+03   enl1=  -2.31047193E+03
 1-9 gives the relaxation energy (to be shifted if some occ is /=2.0)
   erelax=  -3.58575724E+03
 10,11,12 Non-relaxation  contributions : frozen-wavefunctions and Ewald
 fr.local=   2.36847523E+03 fr.nonlo=   1.18826864E+03  Ewald=   5.54836567E+01
 13,14 Frozen wf xc core corrections (1) and (2)
 frxc 1  =  -3.54141721E+02  frxc 2 =   3.47922691E+02
 Resulting in :
 2DEtotal=    0.2025125882E+02 Ha. Also 2DEtotal=    0.551064777408E+03 eV
    (2DErelax=   -3.5857572404E+03 Ha. 2DEnonrelax=    3.6060084993E+03 Ha)
    (  non-var. 2DEtotal :    2.0257052123E+01 Ha)


--------------------------------------------------------------------------------
 Perturbation wavevector (in red.coord.)   0.000000  0.000000  0.000000
 Perturbation : displacement of atom   2   along direction   2
 symkpt : not enough symmetry to change the number of k points.

--------------------------------------------------------------------------------

-inwffil : will read wavefunctions from disk file t65o_DS12_WFK
- newkpt: read input wf with ikpt,npw=   1    1507, make ikpt,npw=   1    3013

--------------------------------------------------------------------------------

-inwffil : will read wavefunctions from disk file t65o_DS12_WFK
- newkpt: read input wf with ikpt,npw=   1    1507, make ikpt,npw=   1    3013

 Initialisation of the first-order wave-functions :
  ireadwf=   0
P newkpt: treating      4 bands with npw=    3013 for ikpt=   1 by node    0


     iter   2DEtotal(Ha)        deltaE(Ha) residm    vres2
-ETOT  1   555.37999583918     -3.198E+02 1.196E+00 3.488E+05
 ETOT  2   202.58633583614     -3.528E+02 3.120E-01 9.193E+04
 ETOT  3  0.89828385217652     -2.017E+02 5.900E-02 8.334E+02
 ETOT  4 -0.30576999891912     -1.204E+00 2.790E-04 1.297E+01
 ETOT  5 -0.31216155651009     -6.392E-03 1.244E-04 9.357E-01
 ETOT  6 -0.31244385108062     -2.823E-04 7.881E-07 5.115E-02
 ETOT  7 -0.31246329873102     -1.945E-05 5.453E-07 1.125E-02
 ETOT  8 -0.31246496617325     -1.667E-06 9.778E-09 1.846E-04
 ETOT  9 -0.31246518139665     -2.152E-07 1.088E-09 6.977E-06
 ETOT 10 -0.31246518510943     -3.713E-09 2.450E-11 3.095E-07
-open ddk wf file :t65o_DS13_1WF7
-open ddk wf file :t65o_DS13_1WF8
-open ddk wf file :t65o_DS13_1WF9

 scprqt:  WARNING -
  nstep=   10 was not enough SCF cycles to converge;
  potential residual=  3.095E-07 exceeds tolvrs=  1.000E-12

================================================================================

 ----iterations are completed or convergence reached----

 Mean square residual over all n,k,spin=   7.8552E-12; max=  2.4504E-11
   0.0000  0.0000  0.0000    1  2.45036E-11 kpt; spin; max resid(k); each band:
  2.45E-11 1.61E-12 7.30E-13 4.58E-12

 Thirteen components of 2nd-order total energy (hartree) are
 1,2,3: 0th-order hamiltonian combined with 1st-order wavefunctions
     kin0=   1.04645987E+03 eigvalue=   9.90687138E+01  local=  -1.13167706E+03
 4,5,6: 1st-order hamiltonian combined with 1st and 0th-order wfs
 loc psp =  -1.00188557E+03  Hartree=   3.67780515E+02     xc=  -8.55127631E+01
 note that "loc psp" includes a xc core correction that could be resolved
 7,8,9: eventually, occupation + non-local contributions
    edocc=   0.00000000E+00     enl0=   5.79421811E+02   enl1=  -7.49196589E+02
 1-9 gives the relaxation energy (to be shifted if some occ is /=2.0)
   erelax=  -8.75541072E+02
 10,11,12 Non-relaxation  contributions : frozen-wavefunctions and Ewald
 fr.local=   5.08643126E+02 fr.nonlo=   3.75703383E+02  Ewald=  -4.73634223E+00
 13,14 Frozen wf xc core corrections (1) and (2)
 frxc 1  =  -8.76792031E+01  frxc 2 =   8.32976430E+01
 Resulting in :
 2DEtotal=   -0.3124651851E+00 Ha. Also 2DEtotal=   -0.850261009490E+01 eV
    (2DErelax=   -8.7554107178E+02 Ha. 2DEnonrelax=    8.7522860660E+02 Ha)
    (  non-var. 2DEtotal :   -3.1247416214E-01 Ha)


--------------------------------------------------------------------------------
 Perturbation wavevector (in red.coord.)   0.000000  0.000000  0.000000
 Perturbation : homogeneous electric field along direction   1
 symkpt : not enough symmetry to change the number of k points.

--------------------------------------------------------------------------------

-inwffil : will read wavefunctions from disk file t65o_DS12_WFK
- newkpt: read input wf with ikpt,npw=   1    1507, make ikpt,npw=   1    3013

--------------------------------------------------------------------------------

-inwffil : will read wavefunctions from disk file t65o_DS12_WFK
- newkpt: read input wf with ikpt,npw=   1    1507, make ikpt,npw=   1    3013

 Initialisation of the first-order wave-functions :
  ireadwf=   0
P newkpt: treating      4 bands with npw=    3013 for ikpt=   1 by node    0

-loper3 : read the ddk wavefunctions from file: t65o_DS13_1WF7

     iter   2DEtotal(Ha)        deltaE(Ha) residm    vres2
-ETOT  1   18.329853432460      1.833E+01 6.474E-02 5.552E+04
 ETOT  2   58.202742838247      3.987E+01 2.886E-01 9.455E+04
 ETOT  3  -8.6327638334110     -6.684E+01 1.369E-01 1.641E+03
 ETOT  4  -10.187779065977     -1.555E+00 2.159E-03 9.453E+01
 ETOT  5  -10.194434966257     -6.656E-03 7.205E-06 3.035E+01
 ETOT  6  -10.205140771173     -1.071E-02 1.563E-05 3.621E+00
 ETOT  7  -10.207338132185     -2.197E-03 7.862E-06 5.560E-01
 ETOT  8  -10.207400362223     -6.223E-05 5.632E-07 1.029E-01
 ETOT  9  -10.207425269156     -2.491E-05 5.824E-08 1.487E-03
 ETOT 10  -10.207425479014     -2.099E-07 3.607E-10 7.613E-04
-open ddk wf file :t65o_DS13_1WF7
-open ddk wf file :t65o_DS13_1WF8
-open ddk wf file :t65o_DS13_1WF9

 scprqt:  WARNING -
  nstep=   10 was not enough SCF cycles to converge;
  potential residual=  7.613E-04 exceeds tolvrs=  1.000E-12

================================================================================

 ----iterations are completed or convergence reached----

 Mean square residual over all n,k,spin=   1.3491E-10; max=  3.6074E-10
   0.0000  0.0000  0.0000    1  3.60737E-10 kpt; spin; max resid(k); each band:
  1.42E-10 3.61E-10 1.85E-11 1.85E-11

 Seven components of 2nd-order total energy (hartree) are
 1,2,3: 0th-order hamiltonian combined with 1st-order wavefunctions
     kin0=   6.24752751E+00 eigvalue=   1.23804102E+01  local=  -1.51530727E+01
 4,5,6: 1st-order hamiltonian combined with 1st and 0th-order wfs
    dotwf=  -2.04130212E+01  Hartree=   6.40705494E+00     xc=  -2.75925795E+00
 7,8,9: eventually, occupation + non-local contributions
    edocc=   0.00000000E+00     enl0=   3.08293368E+00   enl1=   0.00000000E+00
 1-9 gives the relaxation energy (to be shifted if some occ is /=2.0)
   erelax=  -1.02074255E+01
  No Ewald or frozen-wf contrib.: the relaxation energy is the total one
 2DEtotal=   -0.1020742548E+02 Ha. Also 2DEtotal=   -0.277758172932E+03 eV
    (  non-var. 2DEtotal :   -1.0206510586E+01 Ha)

--------------------------------------------------------------------------------
 Perturbation wavevector (in red.coord.)   0.000000  0.000000  0.000000
 Perturbation : homogeneous electric field along direction   2
 symkpt : not enough symmetry to change the number of k points.

--------------------------------------------------------------------------------

-inwffil : will read wavefunctions from disk file t65o_DS12_WFK
- newkpt: read input wf with ikpt,npw=   1    1507, make ikpt,npw=   1    3013

--------------------------------------------------------------------------------

-inwffil : will read wavefunctions from disk file t65o_DS12_WFK
- newkpt: read input wf with ikpt,npw=   1    1507, make ikpt,npw=   1    3013

 Initialisation of the first-order wave-functions :
  ireadwf=   0
P newkpt: treating      4 bands with npw=    3013 for ikpt=   1 by node    0

-loper3 : read the ddk wavefunctions from file: t65o_DS13_1WF8

     iter   2DEtotal(Ha)        deltaE(Ha) residm    vres2
-ETOT  1  -72.969759072026     -7.297E+01 1.552E+00 1.193E+04
 ETOT  2  -79.758248092811     -6.788E+00 1.558E-02 1.291E+03
 ETOT  3  -80.489462858434     -7.312E-01 8.939E-04 1.785E+02
 ETOT  4  -80.780566555134     -2.911E-01 1.061E-04 2.154E+01
 ETOT  5  -80.804023843576     -2.346E-02 3.742E-05 2.245E-01
 ETOT  6  -80.804274862390     -2.510E-04 1.675E-06 1.030E-02
 ETOT  7  -80.804292021322     -1.716E-05 5.680E-07 8.993E-04
 ETOT  8  -80.804294359807     -2.338E-06 6.060E-09 7.275E-05
 ETOT  9  -80.804294518175     -1.584E-07 4.744E-09 3.314E-06
 ETOT 10  -80.804294523747     -5.572E-09 4.486E-11 6.496E-07
-open ddk wf file :t65o_DS13_1WF7
-open ddk wf file :t65o_DS13_1WF8
-open ddk wf file :t65o_DS13_1WF9

 scprqt:  WARNING -
  nstep=   10 was not enough SCF cycles to converge;
  potential residual=  6.496E-07 exceeds tolvrs=  1.000E-12

================================================================================

 ----iterations are completed or convergence reached----

 Mean square residual over all n,k,spin=   1.2098E-11; max=  4.4862E-11
   0.0000  0.0000  0.0000    1  4.48616E-11 kpt; spin; max resid(k); each band:
  2.60E-12 3.90E-13 5.42E-13 4.49E-11

 Seven components of 2nd-order total energy (hartree) are
 1,2,3: 0th-order hamiltonian combined with 1st-order wavefunctions
     kin0=   1.97396700E+02 eigvalue=   2.13221018E+02  local=  -4.47777484E+02
 4,5,6: 1st-order hamiltonian combined with 1st and 0th-order wfs
    dotwf=  -1.61608833E+02  Hartree=   1.93954690E+01     xc=  -1.32055281E+01
 7,8,9: eventually, occupation + non-local contributions
    edocc=   0.00000000E+00     enl0=   1.11774363E+02   enl1=   0.00000000E+00
 1-9 gives the relaxation energy (to be shifted if some occ is /=2.0)
   erelax=  -8.08042945E+01
  No Ewald or frozen-wf contrib.: the relaxation energy is the total one
 2DEtotal=   -0.8080429452E+02 Ha. Also 2DEtotal=   -0.219879667582E+04 eV
    (  non-var. 2DEtotal :   -8.0804416409E+01 Ha)

--------------------------------------------------------------------------------
 Perturbation wavevector (in red.coord.)   0.000000  0.000000  0.000000
 Perturbation : homogeneous electric field along direction   3
 symkpt : not enough symmetry to change the number of k points.

--------------------------------------------------------------------------------

-inwffil : will read wavefunctions from disk file t65o_DS12_WFK
- newkpt: read input wf with ikpt,npw=   1    1507, make ikpt,npw=   1    3013

--------------------------------------------------------------------------------

-inwffil : will read wavefunctions from disk file t65o_DS12_WFK
- newkpt: read input wf with ikpt,npw=   1    1507, make ikpt,npw=   1    3013

 Initialisation of the first-order wave-functions :
  ireadwf=   0
P newkpt: treating      4 bands with npw=    3013 for ikpt=   1 by node    0

-loper3 : read the ddk wavefunctions from file: t65o_DS13_1WF9

     iter   2DEtotal(Ha)        deltaE(Ha) residm    vres2
-ETOT  1  -72.969759060605     -7.297E+01 1.552E+00 1.193E+04
 ETOT  2  -79.758248080283     -6.788E+00 1.558E-02 1.291E+03
 ETOT  3  -80.489462845871     -7.312E-01 8.939E-04 1.785E+02
 ETOT  4  -80.780566542601     -2.911E-01 1.061E-04 2.154E+01
 ETOT  5  -80.804023831047     -2.346E-02 3.742E-05 2.245E-01
 ETOT  6  -80.804274849858     -2.510E-04 1.675E-06 1.030E-02
 ETOT  7  -80.804292008794     -1.716E-05 5.680E-07 8.993E-04
 ETOT  8  -80.804294347277     -2.338E-06 6.060E-09 7.275E-05
 ETOT  9  -80.804294505637     -1.584E-07 4.744E-09 3.314E-06
 ETOT 10  -80.804294511217     -5.580E-09 4.486E-11 6.496E-07
-open ddk wf file :t65o_DS13_1WF7
-open ddk wf file :t65o_DS13_1WF8
-open ddk wf file :t65o_DS13_1WF9

 scprqt:  WARNING -
  nstep=   10 was not enough SCF cycles to converge;
  potential residual=  6.496E-07 exceeds tolvrs=  1.000E-12

================================================================================

 ----iterations are completed or convergence reached----

 Mean square residual over all n,k,spin=   1.2098E-11; max=  4.4862E-11
   0.0000  0.0000  0.0000    1  4.48616E-11 kpt; spin; max resid(k); each band:
  2.60E-12 3.90E-13 4.49E-11 5.42E-13

 Seven components of 2nd-order total energy (hartree) are
 1,2,3: 0th-order hamiltonian combined with 1st-order wavefunctions
     kin0=   1.97396700E+02 eigvalue=   2.13221018E+02  local=  -4.47777484E+02
 4,5,6: 1st-order hamiltonian combined with 1st and 0th-order wfs
    dotwf=  -1.61608833E+02  Hartree=   1.93954690E+01     xc=  -1.32055281E+01
 7,8,9: eventually, occupation + non-local contributions
    edocc=   0.00000000E+00     enl0=   1.11774363E+02   enl1=   0.00000000E+00
 1-9 gives the relaxation energy (to be shifted if some occ is /=2.0)
   erelax=  -8.08042945E+01
  No Ewald or frozen-wf contrib.: the relaxation energy is the total one
 2DEtotal=   -0.8080429451E+02 Ha. Also 2DEtotal=   -0.219879667548E+04 eV
    (  non-var. 2DEtotal :   -8.0804416397E+01 Ha)
================================================================================

 ---- first-order wavefunction calculations are completed ----


 ==> Compute Derivative Database <==
  
  2nd-order matrix (non-cartesian coordinates, masses not included,
   asr not included )
     j1       j2             matrix element
  dir pert dir pert     real part     imaginary part
  
   1    1   1    1        21.2447201495         0.0000000000
   1    1   2    1        -0.0000000000         0.0000000000
   1    1   3    1        -0.0000000000         0.0000000000
   1    1   1    2       -21.2336098995         0.0000000000
   1    1   2    2         0.0000000000        -0.0000000000
   1    1   3    2         0.0000000000         0.0000000000
   1    1   1    4        -3.7860372980         0.0000000000
   1    1   2    4         0.0000000000         0.0000000000
   1    1   3    4         0.0000000000         0.0000000000
  
   2    1   1    1        -0.0000000000         0.0000000000
   2    1   2    1        -0.0597870611         0.0000000000
   2    1   3    1        -0.0000000000         0.0000000000
   2    1   1    2         0.0000000000        -0.0000000000
   2    1   2    2         0.0584475213        -0.0000000000
   2    1   3    2         0.0000000000         0.0000000000
   2    1   1    4         0.0000000000         0.0000000000
   2    1   2    4        -1.0694381310         0.0000000000
   2    1   3    4         0.0000000000         0.0000000000
  
   3    1   1    1        -0.0000000000         0.0000000000
   3    1   2    1        -0.0000000000         0.0000000000
   3    1   3    1        -0.0597870611         0.0000000000
   3    1   1    2         0.0000000000         0.0000000000
   3    1   2    2         0.0000000000         0.0000000000
   3    1   3    2         0.0584475213        -0.0000000000
   3    1   1    4         0.0000000000         0.0000000000
   3    1   2    4         0.0000000000         0.0000000000
   3    1   3    4        -1.0694381310         0.0000000000
  
   1    2   1    1       -21.2420319034        -0.0000000000
   1    2   2    1         0.0000000000         0.0000000000
   1    2   3    1         0.0000000000        -0.0000000000
   1    2   1    2        20.2570521235         0.0000000000
   1    2   2    2        -0.0000000000         0.0000000000
   1    2   3    2        -0.0000000000         0.0000000000
   1    2   1    4       -47.3611105828         0.0000000000
   1    2   2    4         0.0000000000         0.0000000000
   1    2   3    4         0.0000000000         0.0000000000
  
   2    2   1    1         0.0000000000         0.0000000000
   2    2   2    1         0.0584476396         0.0000000000
   2    2   3    1         0.0000000000        -0.0000000000
   2    2   1    2        -0.0000000000         0.0000000000
   2    2   2    2        -0.3124741621         0.0000000000
   2    2   3    2        -0.0000000000         0.0000000000
   2    2   1    4         0.0000000000         0.0000000000
   2    2   2    4       -53.1442800024         0.0000000000
   2    2   3    4         0.0000000000         0.0000000000
  
   3    2   1    1         0.0000000000        -0.0000000000
   3    2   2    1         0.0000000000        -0.0000000000
   3    2   3    1         0.0584476396         0.0000000000
   3    2   1    2        -0.0000000000         0.0000000000
   3    2   2    2        -0.0000000000         0.0000000000
   3    2   3    2        -0.3124741621         0.0000000000
   3    2   1    4         0.0000000000         0.0000000000
   3    2   2    4         0.0000000000         0.0000000000
   3    2   3    4       -53.1442800024         0.0000000000
  
   1    4   1    1        -3.7862356719         0.0000000000
   1    4   2    1         0.0000000000         0.0000000000
   1    4   3    1         0.0000000000         0.0000000000
   1    4   1    2       -47.3521017587         0.0000000000
   1    4   2    2         0.0000000000         0.0000000000
   1    4   3    2         0.0000000000         0.0000000000
   1    4   1    4       -10.2065105863         0.0000000000
   1    4   2    4         0.0000000000         0.0000000000
   1    4   3    4         0.0000000000         0.0000000000
  
   2    4   1    1         0.0000000000         0.0000000000
   2    4   2    1        -1.0694392407         0.0000000000
   2    4   3    1         0.0000000000         0.0000000000
   2    4   1    2         0.0000000000         0.0000000000
   2    4   2    2       -53.1446235901         0.0000000000
   2    4   3    2         0.0000000000         0.0000000000
   2    4   1    4         0.0000000000         0.0000000000
   2    4   2    4       -80.8044164028         0.0000000000
   2    4   3    4         0.0000000000         0.0000000000
  
   3    4   1    1         0.0000000000         0.0000000000
   3    4   2    1         0.0000000000         0.0000000000
   3    4   3    1        -1.0694392407         0.0000000000
   3    4   1    2         0.0000000000         0.0000000000
   3    4   2    2         0.0000000000         0.0000000000
   3    4   3    2       -53.1446235901         0.0000000000
   3    4   1    4         0.0000000000         0.0000000000
   3    4   2    4         0.0000000000         0.0000000000
   3    4   3    4       -80.8044164028         0.0000000000
  
  
  Dynamical matrix, in cartesian coordinates,
   if specified in the inputs, asr has been imposed
     j1       j2             matrix element
  dir pert dir pert     real part    imaginary part
  
   1    1   1    1         0.0531118004         0.0000000000
   1    1   2    1        -0.0000000000         0.0000000000
   1    1   3    1        -0.0000000000         0.0000000000
   1    1   1    2        -0.0530840247         0.0000000000
   1    1   2    2         0.0000000000        -0.0000000000
   1    1   3    2         0.0000000000         0.0000000000
  
   2    1   1    1        -0.0000000000         0.0000000000
   2    1   2    1        -0.0005978706         0.0000000000
   2    1   3    1        -0.0000000000         0.0000000000
   2    1   1    2         0.0000000000        -0.0000000000
   2    1   2    2         0.0005844752        -0.0000000000
   2    1   3    2         0.0000000000         0.0000000000
  
   3    1   1    1        -0.0000000000         0.0000000000
   3    1   2    1        -0.0000000000         0.0000000000
   3    1   3    1        -0.0005978706         0.0000000000
   3    1   1    2         0.0000000000         0.0000000000
   3    1   2    2         0.0000000000         0.0000000000
   3    1   3    2         0.0005844752        -0.0000000000
  
   1    2   1    1        -0.0531050798        -0.0000000000
   1    2   2    1         0.0000000000         0.0000000000
   1    2   3    1         0.0000000000        -0.0000000000
   1    2   1    2         0.0506426303         0.0000000000
   1    2   2    2        -0.0000000000         0.0000000000
   1    2   3    2        -0.0000000000         0.0000000000
  
   2    2   1    1         0.0000000000         0.0000000000
   2    2   2    1         0.0005844764         0.0000000000
   2    2   3    1         0.0000000000        -0.0000000000
   2    2   1    2        -0.0000000000         0.0000000000
   2    2   2    2        -0.0031247416         0.0000000000
   2    2   3    2        -0.0000000000         0.0000000000
  
   3    2   1    1         0.0000000000        -0.0000000000
   3    2   2    1         0.0000000000        -0.0000000000
   3    2   3    1         0.0005844764         0.0000000000
   3    2   1    2        -0.0000000000         0.0000000000
   3    2   2    2        -0.0000000000         0.0000000000
   3    2   3    2        -0.0031247416         0.0000000000
  
  Dielectric tensor, in cartesian coordinates,
     j1       j2             matrix element
  dir pert dir pert     real part    imaginary part
  
   1    4   1    4         1.6497666446        -0.0000000000
   1    4   2    4        -0.0000000000        -0.0000000000
   1    4   3    4        -0.0000000000        -0.0000000000
  
   2    4   1    4        -0.0000000000        -0.0000000000
   2    4   2    4         2.2860422294        -0.0000000000
   2    4   3    4        -0.0000000000        -0.0000000000
  
   3    4   1    4        -0.0000000000        -0.0000000000
   3    4   2    4        -0.0000000000        -0.0000000000
   3    4   3    4         2.2860422294        -0.0000000000
  
  Effective charges, in cartesian coordinates,
  (from electric field response) 
   if specified in the inputs, asr has been imposed
     j1       j2             matrix element
  dir pert dir pert     real part    imaginary part
  
   1    1   1    4         0.3974334493         0.0000000000
   2    1   1    4         0.0000000000         0.0000000000
   3    1   1    4         0.0000000000         0.0000000000
   1    2   1    4        -0.5377548596         0.0000000000
   2    2   1    4         0.0000000000         0.0000000000
   3    2   1    4         0.0000000000         0.0000000000
  
   1    1   2    4         0.0000000000         0.0000000000
   2    1   2    4         0.8297936351         0.0000000000
   3    1   2    4         0.0000000000         0.0000000000
   1    2   2    4         0.0000000000         0.0000000000
   2    2   2    4        -1.4581748594         0.0000000000
   3    2   2    4         0.0000000000         0.0000000000
  
   1    1   3    4         0.0000000000         0.0000000000
   2    1   3    4         0.0000000000         0.0000000000
   3    1   3    4         0.8297936351         0.0000000000
   1    2   3    4         0.0000000000         0.0000000000
   2    2   3    4         0.0000000000         0.0000000000
   3    2   3    4        -1.4581748594         0.0000000000
  
  Effective charges, in cartesian coordinates,
  (from phonon response) 
   if specified in the inputs, asr has been imposed
     j1       j2             matrix element
  dir pert dir pert     real part    imaginary part
  
   1    4   1    1         0.3974018771         0.0000000000
   2    4   1    1         0.0000000000         0.0000000000
   3    4   1    1         0.0000000000         0.0000000000
  
   1    4   2    1         0.0000000000         0.0000000000
   2    4   2    1         0.8297934585         0.0000000000
   3    4   2    1         0.0000000000         0.0000000000
  
   1    4   3    1         0.0000000000         0.0000000000
   2    4   3    1         0.0000000000         0.0000000000
   3    4   3    1         0.8297934585         0.0000000000
  
   1    4   1    2        -0.5363210607         0.0000000000
   2    4   1    2         0.0000000000         0.0000000000
   3    4   1    2         0.0000000000         0.0000000000
  
   1    4   2    2         0.0000000000         0.0000000000
   2    4   2    2        -1.4582295431         0.0000000000
   3    4   2    2         0.0000000000         0.0000000000
  
   1    4   3    2         0.0000000000         0.0000000000
   2    4   3    2         0.0000000000         0.0000000000
   3    4   3    2        -1.4582295431         0.0000000000
  
  
  
 
  Phonon wavevector (reduced coordinates) :  0.00000  0.00000  0.00000
 Phonon energies in Hartree :
  -2.274175E-04 -2.274175E-04 -1.517263E-04 -1.043960E-04 -1.043960E-04
   1.440136E-03
 Phonon frequencies in cm-1    :
- -4.991238E+01 -4.991238E+01 -3.330007E+01 -2.291226E+01 -2.291226E+01
-  3.160734E+02
 
  Phonon at Gamma, with non-analyticity in the
  direction (cartesian coordinates)  1.00000  0.00000  0.00000
 Phonon energies in Hartree :
  -2.274175E-04 -2.274175E-04 -1.491404E-04 -1.043960E-04 -1.043960E-04
   1.450728E-03
 Phonon frequencies in cm-1    :
- -4.991238E+01 -4.991238E+01 -3.273254E+01 -2.291226E+01 -2.291226E+01
-  3.183979E+02
 
  Phonon at Gamma, with non-analyticity in the
  direction (cartesian coordinates)  0.00000  1.00000  0.00000
 Phonon energies in Hartree :
  -2.274175E-04 -1.517263E-04 -1.283881E-04 -1.043960E-04  2.990877E-04
   1.440136E-03
 Phonon frequencies in cm-1    :
- -4.991238E+01 -3.330007E+01 -2.817793E+01 -2.291226E+01  6.564216E+01
-  3.160734E+02
 
  Phonon at Gamma, with non-analyticity in the
  direction (cartesian coordinates)  0.00000  0.00000  1.00000
 Phonon energies in Hartree :
  -2.274175E-04 -1.517263E-04 -1.283881E-04 -1.043960E-04  2.990877E-04
   1.440136E-03
 Phonon frequencies in cm-1    :
- -4.991238E+01 -3.330007E+01 -2.817793E+01 -2.291226E+01  6.564216E+01
-  3.160734E+02

================================================================================
== DATASET 15 ==================================================================
-   nproc =    1

 mkfilename : getwfk/=0, take file _WFK from output of DATASET  12.

 mkfilename : get1wf/=0, take file _1WF from output of DATASET  14.

 mkfilename : getden/=0, take file _DEN from output of DATASET  11.

 mkfilename : get1den/=0, take file _DEN from output of DATASET  14.

 Exchange-correlation functional for the present dataset will be:
  LDA: old Teter (4/91) fit to Ceperley-Alder data - ixc=3


 The list of irreducible elements of the Raman and non-linear
 optical susceptibility tensors is:

            i1pert  i1dir   i2pert  i2dir   i3pert  i3dir
     1)       1       1       4       1       4       1
     2)       1       1       4       2       4       2
     3)       1       2       4       1       4       2
     4)       1       2       4       2       4       1
     5)       2       1       4       1       4       1
     6)       2       1       4       2       4       2
     7)       2       2       4       1       4       2
     8)       2       2       4       2       4       1
     9)       4       1       1       1       4       1
    10)       4       1       1       2       4       2
    11)       4       1       2       1       4       1
    12)       4       1       2       2       4       2
    13)       4       1       4       1       4       1
    14)       4       1       4       2       4       2
    15)       4       2       1       1       4       2
    16)       4       2       2       1       4       2
    17)       4       2       4       1       4       2



 Real(R)+Recip(G) space primitive vectors, cartesian coordinates (Bohr,Bohr^-1):
 R(1)= 20.0000000  0.0000000  0.0000000  G(1)=  0.0500000  0.0000000  0.0000000
 R(2)=  0.0000000 10.0000000  0.0000000  G(2)=  0.0000000  0.1000000  0.0000000
 R(3)=  0.0000000  0.0000000 10.0000000  G(3)=  0.0000000  0.0000000  0.1000000
 Unit cell volume ucvol=  2.0000000E+03 bohr^3
 Angles (23,13,12)=  9.00000000E+01  9.00000000E+01  9.00000000E+01 degrees

 getcut: wavevector=  0.0000  0.0000  0.0000  ngfft=  60  30  30
         ecut(hartree)=     10.000   => boxcut(ratio)=   2.10744
--------------------------------------------------------------------------------

-inwffil : will read wavefunctions from disk file t65o_DS12_WFK
- newkpt: read input wf with ikpt,npw=   1    1507, make ikpt,npw=   1    3013


 getshell : finite difference formula of Marzari and Vanderbilt
            (see Marzari and Vanderbilt, PRB 56, 12847 (1997), Appendix B)

            number of first neighbours  :   2
            weight :      200.0000000

            number of second neighbours  :   4
            weight :       50.0000000
-inwffil : will read wavefunctions from disk file t65o_DS14_1WF1
P newkpt: treating      4 bands with npw=    3013 for ikpt=   1 by node    0

-inwffil : will read wavefunctions from disk file t65o_DS14_1WF10
P newkpt: treating      4 bands with npw=    3013 for ikpt=   1 by node    0

 j2 : homogeneous electric field along direction    1
                    real part             imaginary part
     xc          -4.0399435052             0.0000000000
     ddk         16.8418439203             0.0000000000
     dft         -9.0192447025             0.0000000000

-inwffil : will read wavefunctions from disk file t65o_DS14_1WF11
P newkpt: treating      4 bands with npw=    3013 for ikpt=   1 by node    0

 j2 : homogeneous electric field along direction    2
                    real part             imaginary part
     xc          -1.7911029059             0.0000000000
     ddk          4.2377635656             0.0000000000
     dft        -18.4347130397             0.0000000000

-inwffil : will read wavefunctions from disk file t65o_DS14_1WF2
P newkpt: treating      4 bands with npw=    3013 for ikpt=   1 by node    0

-inwffil : will read wavefunctions from disk file t65o_DS14_1WF10
P newkpt: treating      4 bands with npw=    3013 for ikpt=   1 by node    0

 j2 : homogeneous electric field along direction    2
                    real part             imaginary part
     xc          -0.3228418818             0.0000000000
     ddk          1.0978867162             0.0000000000
     dft          0.5071399532             0.0000000000

-inwffil : will read wavefunctions from disk file t65o_DS14_1WF11
P newkpt: treating      4 bands with npw=    3013 for ikpt=   1 by node    0

 j2 : homogeneous electric field along direction    1
                    real part             imaginary part
     xc          -0.3228418818             0.0000000000
     ddk          1.2547972526             0.0000000000
     dft         -0.9971960792             0.0000000000

-inwffil : will read wavefunctions from disk file t65o_DS14_1WF4
P newkpt: treating      4 bands with npw=    3013 for ikpt=   1 by node    0

-inwffil : will read wavefunctions from disk file t65o_DS14_1WF10
P newkpt: treating      4 bands with npw=    3013 for ikpt=   1 by node    0

 j2 : homogeneous electric field along direction    1
                    real part             imaginary part
     xc           3.0579952948             0.0000000000
     ddk         -0.3937605962             0.0000000000
     dft          1.5176520938             0.0000000000

-inwffil : will read wavefunctions from disk file t65o_DS14_1WF11
P newkpt: treating      4 bands with npw=    3013 for ikpt=   1 by node    0

 j2 : homogeneous electric field along direction    2
                    real part             imaginary part
     xc           3.6550267367             0.0000000000
     ddk         10.4648867422             0.0000000000
     dft         -0.1926825786             0.0000000000

-inwffil : will read wavefunctions from disk file t65o_DS14_1WF5
P newkpt: treating      4 bands with npw=    3013 for ikpt=   1 by node    0

-inwffil : will read wavefunctions from disk file t65o_DS14_1WF10
P newkpt: treating      4 bands with npw=    3013 for ikpt=   1 by node    0

 j2 : homogeneous electric field along direction    2
                    real part             imaginary part
     xc           0.9450644437             0.0000000000
     ddk          0.2379346230             0.0000000000
     dft          1.5922072431             0.0000000000

-inwffil : will read wavefunctions from disk file t65o_DS14_1WF11
P newkpt: treating      4 bands with npw=    3013 for ikpt=   1 by node    0

 j2 : homogeneous electric field along direction    1
                    real part             imaginary part
[...]
   2    4   2    2   2    4          0.0000000000          0.0000000000
   2    4   2    2   3    4          0.0000000000          0.0000000000
   2    4   3    2   1    4          0.0000000000          0.0000000000
   2    4   3    2   2    4          0.0000000000          0.0000000000
   2    4   3    2   3    4          0.0000000000          0.0000000000
   2    4   1    4   1    1          0.0000000000          0.0000000000
   2    4   1    4   2    1         -0.0652407083          0.0000000000
   2    4   1    4   3    1          0.0000000000          0.0000000000
   2    4   1    4   1    2          0.0000000000          0.0000000000
   2    4   1    4   2    2          8.1771044571          0.0000000000
   2    4   1    4   3    2          0.0000000000          0.0000000000
   2    4   1    4   1    4          0.0000000000          0.0000000000
   2    4   1    4   2    4        -75.4552410500          0.0000000000
   2    4   1    4   3    4          0.0000000000          0.0000000000
   2    4   2    4   1    1        -15.9880523800          0.0000000000
   2    4   2    4   2    1          0.0000000000          0.0000000000
   2    4   2    4   3    1          0.0000000000          0.0000000000
   2    4   2    4   1    2         13.9272309003          0.0000000000
   2    4   2    4   2    2          0.0000000000          0.0000000000
   2    4   2    4   3    2          0.0000000000          0.0000000000
   2    4   2    4   1    4         36.8294546248          0.0000000000
   2    4   2    4   2    4          0.0000000000          0.0000000000
   2    4   2    4   3    4          0.0000000000          0.0000000000
   2    4   3    4   1    1          0.0000000000          0.0000000000
   2    4   3    4   2    1          0.0000000000          0.0000000000
   2    4   3    4   3    1          0.0000000000          0.0000000000
   2    4   3    4   1    2          0.0000000000          0.0000000000
   2    4   3    4   2    2          0.0000000000          0.0000000000
   2    4   3    4   3    2          0.0000000000          0.0000000000
   2    4   3    4   1    4          0.0000000000          0.0000000000
   2    4   3    4   2    4          0.0000000000          0.0000000000
   2    4   3    4   3    4          0.0000000000          0.0000000000
   3    4   1    1   1    4          0.0000000000          0.0000000000
   3    4   1    1   2    4          0.0000000000          0.0000000000
   3    4   1    1   3    4        394.8041763918          0.0000000000
   3    4   2    1   1    4          0.0000000000          0.0000000000
   3    4   2    1   2    4          0.0000000000          0.0000000000
   3    4   2    1   3    4          0.0000000000          0.0000000000
   3    4   3    1   1    4         -4.3741141638          0.0000000000
   3    4   3    1   2    4          0.0000000000          0.0000000000
   3    4   3    1   3    4          0.0000000000          0.0000000000
   3    4   1    2   1    4          0.0000000000          0.0000000000
   3    4   1    2   2    4          0.0000000000          0.0000000000
   3    4   1    2   3    4       -443.1179604193          0.0000000000
   3    4   2    2   1    4          0.0000000000          0.0000000000
   3    4   2    2   2    4          0.0000000000          0.0000000000
   3    4   2    2   3    4          0.0000000000          0.0000000000
   3    4   3    2   1    4          5.2343516631          0.0000000000
   3    4   3    2   2    4          0.0000000000          0.0000000000
   3    4   3    2   3    4          0.0000000000          0.0000000000
   3    4   1    4   1    1          0.0000000000          0.0000000000
   3    4   1    4   2    1          0.0000000000          0.0000000000
   3    4   1    4   3    1         -0.0652407083          0.0000000000
   3    4   1    4   1    2          0.0000000000          0.0000000000
   3    4   1    4   2    2          0.0000000000          0.0000000000
   3    4   1    4   3    2          8.1771044571          0.0000000000
   3    4   1    4   1    4          0.0000000000          0.0000000000
   3    4   1    4   2    4          0.0000000000          0.0000000000
   3    4   1    4   3    4        -75.4552410500          0.0000000000
   3    4   2    4   1    1          0.0000000000          0.0000000000
   3    4   2    4   2    1          0.0000000000          0.0000000000
   3    4   2    4   3    1          0.0000000000          0.0000000000
   3    4   2    4   1    2          0.0000000000          0.0000000000
   3    4   2    4   2    2          0.0000000000          0.0000000000
   3    4   2    4   3    2          0.0000000000          0.0000000000
   3    4   2    4   1    4          0.0000000000          0.0000000000
   3    4   2    4   2    4          0.0000000000          0.0000000000
   3    4   2    4   3    4          0.0000000000          0.0000000000
   3    4   3    4   1    1        -15.9880523800          0.0000000000
   3    4   3    4   2    1          0.0000000000          0.0000000000
   3    4   3    4   3    1          0.0000000000          0.0000000000
   3    4   3    4   1    2         13.9272309003          0.0000000000
   3    4   3    4   2    2          0.0000000000          0.0000000000
   3    4   3    4   3    2          0.0000000000          0.0000000000
   3    4   3    4   1    4         36.8294546248          0.0000000000
   3    4   3    4   2    4          0.0000000000          0.0000000000
   3    4   3    4   3    4          0.0000000000          0.0000000000
 

  Non-linear optical susceptibility tensor d (pm/V)
  in cartesian coordinates
   i1dir  i2dir  i3dir             d
      1      1      1         -0.129596935
      1      1      2         -0.000000000
      1      1      3         -0.000000000
      1      2      1         -0.000000000
      1      2      2          0.088486562
      1      2      3         -0.000000000
      1      3      1         -0.000000000
      1      3      2         -0.000000000
      1      3      3          0.088486562
      2      1      1         -0.000000000
      2      1      2          0.088486562
      2      1      3         -0.000000000
      2      2      1          0.088486562
      2      2      2         -0.000000000
      2      2      3         -0.000000000
      2      3      1         -0.000000000
      2      3      2         -0.000000000
      2      3      3         -0.000000000
      3      1      1         -0.000000000
      3      1      2         -0.000000000
      3      1      3          0.088486562
      3      2      1         -0.000000000
      3      2      2         -0.000000000
      3      2      3         -0.000000000
      3      3      1          0.088486562
      3      3      2         -0.000000000
      3      3      3         -0.000000000
 

  First-order change in the electronic dielectric 
  susceptibility tensor (Bohr^-1)
  induced by an atomic displacement
   atom  displacement
    1          1       -0.011385276       -0.000000000       -0.000000000
                       -0.000000000       -0.045952712       -0.000000000
                       -0.000000000       -0.000000000       -0.045952712
    1          2       -0.000000000        0.001599441       -0.000000000
                        0.001599441       -0.000000000       -0.000000000
                       -0.000000000       -0.000000000       -0.000000000
    1          3       -0.000000000       -0.000000000        0.001599441
                       -0.000000000       -0.000000000       -0.000000000
                        0.001599441       -0.000000000       -0.000000000

    2          1        0.001971348       -0.000000000       -0.000000000
                       -0.000000000        0.052593737       -0.000000000
                       -0.000000000       -0.000000000        0.052593737
    2          2       -0.000000000       -0.008200259       -0.000000000
                       -0.008200259       -0.000000000       -0.000000000
                       -0.000000000       -0.000000000       -0.000000000
    2          3       -0.000000000       -0.000000000       -0.008200259
                       -0.000000000       -0.000000000       -0.000000000
                       -0.008200259       -0.000000000       -0.000000000


== END DATASET(S) ==============================================================
================================================================================
  
 -outvars: echo values of variables after computation  --------
            acell      2.0000000000E+01  1.0000000000E+01  1.0000000000E+01 Bohr
              amu      2.29897680E+01  3.54527000E+01
           diemac      2.00000000E+00
             ecut      1.00000000E+01 Hartree
           etotal11   -2.2865664035E+01
           etotal13   -3.1944590199E+00
           etotal14   -8.0804294511E+01
           etotal15    1.0000000000E+20
            fcart11    9.9738425068E-03 -0.0000000000E+00 -0.0000000000E+00
                      -9.9738425068E-03 -0.0000000000E+00 -0.0000000000E+00
            fcart13    0.0000000000E+00  0.0000000000E+00  0.0000000000E+00
                       0.0000000000E+00  0.0000000000E+00  0.0000000000E+00
            fcart14    0.0000000000E+00  0.0000000000E+00  0.0000000000E+00
                       0.0000000000E+00  0.0000000000E+00  0.0000000000E+00
            fcart15    0.0000000000E+00  0.0000000000E+00  0.0000000000E+00
                       0.0000000000E+00  0.0000000000E+00  0.0000000000E+00
-          fftalg         112
           getddk11         0
           getddk12         0
           getddk13         0
           getddk14        -1
           getddk15         0
           getden11         0
           getden12        -1
           getden13         0
           getden14         0
           getden15        -4
           getwfk11         0
           getwfk12        -1
           getwfk13        -1
           getwfk14        -2
           getwfk15        -3
          get1den11         0
          get1den12         0
          get1den13         0
          get1den14         0
          get1den15        -1
           get1wf11         0
           get1wf12         0
           get1wf13         0
           get1wf14         0
           get1wf15        -1
             iscf11         7
             iscf12        -2
             iscf13         7
             iscf14         7
             iscf15         7
           istwfk11      2
           istwfk12      2
           istwfk13      1
           istwfk14      1
           istwfk15      1
              ixc           3
           jdtset       11   12   13   14   15
           kptopt           2
         kptrlatt        1    0    0      0    1    0      0    0    1
          kptrlen      1.00000000E+04
P           mkmem           1
P          mkqmem           1
P          mk1mem           1
            natom           2
            nband           4
           ndtset           5
            ngfft          60      30      30
             nkpt           1
            nstep          10
             nsym           8
           ntypat           2
              occ      2.000000  2.000000  2.000000  2.000000
        optdriver11         0
        optdriver12         0
        optdriver13         1
        optdriver14         1
        optdriver15         5
        optforces           1
          prepanl11         0
          prepanl12         0
          prepanl13         0
          prepanl14         1
          prepanl15         0
          rfatpol11         1       1
          rfatpol12         1       1
          rfatpol13         1       1
          rfatpol14         1       2
          rfatpol15         1       1
            rfdir11         0       0       0
            rfdir12         0       0       0
            rfdir13         1       1       1
            rfdir14         1       1       1
            rfdir15         0       0       0
           rfelfd11         0
           rfelfd12         0
           rfelfd13         2
           rfelfd14         3
           rfelfd15         0
           rfphon11         0
           rfphon12         0
           rfphon13         0
           rfphon14         1
           rfphon15         0
         rf1atpol11         1       1
         rf1atpol12         1       1
         rf1atpol13         1       1
         rf1atpol14         1       1
         rf1atpol15         1       2
           rf1dir11         0       0       0
           rf1dir12         0       0       0
           rf1dir13         0       0       0
           rf1dir14         0       0       0
           rf1dir15         1       1       1
          rf1elfd11         0
          rf1elfd12         0
          rf1elfd13         0
          rf1elfd14         0
          rf1elfd15         1
          rf1phon11         0
          rf1phon12         0
          rf1phon13         0
          rf1phon14         0
          rf1phon15         1
           rf2dir11         0       0       0
           rf2dir12         0       0       0
           rf2dir13         0       0       0
           rf2dir14         0       0       0
           rf2dir15         1       1       1
          rf2elfd11         0
          rf2elfd12         0
          rf2elfd13         0
          rf2elfd14         0
          rf2elfd15         1
           rf3dir11         0       0       0
           rf3dir12         0       0       0
           rf3dir13         0       0       0
           rf3dir14         0       0       0
           rf3dir15         1       1       1
          rf3elfd11         0
          rf3elfd12         0
          rf3elfd13         0
          rf3elfd14         0
          rf3elfd15         1
          spgroup          99
           strten11    5.4332155711E-05 -9.0779988862E-06 -9.0779988862E-06
                       0.0000000000E+00  0.0000000000E+00  0.0000000000E+00
           strten13    0.0000000000E+00  0.0000000000E+00  0.0000000000E+00
                       0.0000000000E+00  0.0000000000E+00  0.0000000000E+00
           strten14    0.0000000000E+00  0.0000000000E+00  0.0000000000E+00
                       0.0000000000E+00  0.0000000000E+00  0.0000000000E+00
           strten15    0.0000000000E+00  0.0000000000E+00  0.0000000000E+00
                       0.0000000000E+00  0.0000000000E+00  0.0000000000E+00
           symrel      1  0  0   0  1  0   0  0  1       1  0  0   0  1  0   0  0 -1
                       1  0  0   0 -1  0   0  0 -1       1  0  0   0 -1  0   0  0  1
                       1  0  0   0  0  1   0  1  0       1  0  0   0  0  1   0 -1  0
                       1  0  0   0  0 -1   0 -1  0       1  0  0   0  0 -1   0  1  0
           toldfe11    1.00000000E-12 Hartree
           toldfe12    0.00000000E+00 Hartree
           toldfe13    0.00000000E+00 Hartree
           toldfe14    0.00000000E+00 Hartree
           toldfe15    0.00000000E+00 Hartree
           toldff11    0.00000000E+00
           toldff12    0.00000000E+00
           toldff13    0.00000000E+00
           toldff14    0.00000000E+00
           toldff15    1.00000000E-08
           tolvrs11    0.00000000E+00
           tolvrs12    0.00000000E+00
           tolvrs13    0.00000000E+00
           tolvrs14    1.00000000E-12
           tolvrs15    0.00000000E+00
           tolwfr11    0.00000000E+00
           tolwfr12    1.00000000E-22
           tolwfr13    1.00000000E-22
           tolwfr14    0.00000000E+00
           tolwfr15    0.00000000E+00
            typat      1  2
           xangst     -1.2500000000E+00  0.0000000000E+00  0.0000000000E+00
                       1.2500000000E+00  0.0000000000E+00  0.0000000000E+00
            xcart     -2.3621576661E+00  0.0000000000E+00  0.0000000000E+00
                       2.3621576661E+00  0.0000000000E+00  0.0000000000E+00
             xred     -1.1810788331E-01  0.0000000000E+00  0.0000000000E+00
                       1.1810788331E-01  0.0000000000E+00  0.0000000000E+00
            znucl       11.00000   17.00000

================================================================================


- Timing analysis has been suppressed with timopt=0



================================================================================

 Suggested references for the acknowledgment of ABINIT usage.

 The users of ABINIT have little formal obligations with respect to the ABINIT group
 (those specified in the GNU General Public License, http://www.gnu.org/copyleft/gpl.txt).
 However, it is common practice in the scientific literature,
 to acknowledge the efforts of people that have made the research possible.
 In this spirit, please find below suggested citations of work written by ABINIT developers,
 corresponding to implementations inside of ABINIT that you have used in the present run.
 Note also that it will be of great value to readers of publications presenting these results,
 to read papers enabling them to understand the theoretical formalism and details
 of the ABINIT implementation.
 For information on why they are suggested, see also http://www.abinit.org/about/?text=acknowledgments.

 [1] Nonlinear optical susceptibilities, Raman efficiencies, and electrooptic tensors
 from first principles density functional theory.
 M. Veithen, X. Gonze, and Ph. Ghosez, Phys. Rev. B 71, 125107 (2005).
 Comment : to be cited for non-linear response calculations, with optdriver=5.

 [2] First-principles responses of solids to atomic displacements and homogeneous electric fields:,
 implementation of a conjugate-gradient algorithm. X. Gonze, Phys. Rev. B55, 10337 (1997).
 Comment : Non-vanishing rfphon and/or rfelfd, in the norm-conserving case.

 [3] Dynamical matrices, Born effective charges, dielectric permittivity tensors, and ,
 interatomic force constants from density-functional perturbation theory,
 X. Gonze and C. Lee, Phys. Rev. B55, 10355 (1997).
 Comment : Non-vanishing rfphon and/or rfelfd, in the norm-conserving case.

 [4] ABINIT : First-principles approach of materials and nanosystem properties.
 X. Gonze, B. Amadon, P.-M. Anglade, J.-M. Beuken, F. Bottin, P. Boulanger, F. Bruneval,
 D. Caliste, R. Caracas, M. Cote, T. Deutsch, L. Genovese, Ph. Ghosez, M. Giantomassi
 S. Goedecker, D.R. Hamann, P. Hermet, F. Jollet, G. Jomard, S. Leroux, M. Mancini, S. Mazevet,
 M.J.T. Oliveira, G. Onida, Y. Pouillon, T. Rangel, G.-M. Rignanese, D. Sangalli, R. Shaltaf,
 M. Torrent, M.J. Verstraete, G. Zerah, J.W. Zwanziger
 Computer Phys. Comm. 180, 2582-2615 (2009).
 Comment : the third generic paper describing the ABINIT project.
 Note that a version of this paper, that is not formatted for Computer Phys. Comm. 
 is available at http://www.abinit.org/about/ABINIT_CPC_v10.pdf .
 The licence allows the authors to put it on the Web.

 [5] A brief introduction to the ABINIT software package.
 X. Gonze, G.-M. Rignanese, M. Verstraete, J.-M. Beuken, Y. Pouillon, R. Caracas, F. Jollet,
 M. Torrent, G. Zerah, M. Mikami, Ph. Ghosez, M. Veithen, J.-Y. Raty, V. Olevano, F. Bruneval,
 L. Reining, R. Godby, G. Onida, D.R. Hamann, and D.C. Allan.
 Z. Kristallogr. 220, 558-562 (2005).
 Comment : the second generic paper describing the ABINIT project. Note that this paper
 should be cited especially if you are using the GW part of ABINIT, as several authors
 of this part are not in the list of authors of the first or third paper.
 The .pdf of the latter paper is available at http://www.abinit.org/about/zfk_0505-06_558-562.pdf.
 Note that it should not redistributed (Copyright by Oldenburg Wissenshaftverlag,
 the licence allows the authors to put it on the Web).
-
- Proc.   0 individual time (sec): cpu=          9.4  wall=          9.4

================================================================================

 Calculation completed.
.Delivered   68 WARNINGs and   1 COMMENTs to log file.
+Overall time at end (sec) : cpu=          9.4  wall=          9.4
