
 **** DERIVATIVE DATABASE ****    
+DDB, Version number    100401

 TiNb DDB file for elphon calculation                                                                                                                                                                                                                                    

    usepaw         0
     natom         2
      nkpt        16
    nsppol         1
      nsym        12
    ntypat         2
    occopt         7
     nband         8
     acell  0.55762038729190D+01  0.55762038729190D+01  0.88543117956357D+01
       amu  0.47880000000000D+02  0.92906380000000D+02
   dilatmx  0.10000000000000D+01
      ecut  0.20000000000000D+01
    ecutsm  0.00000000000000D+00
     intxc         0
      iscf         7
       ixc         1
       kpt  0.00000000000000D+00  0.00000000000000D+00  0.00000000000000D+00
            0.50000000000000D+00  0.00000000000000D+00  0.00000000000000D+00
            0.00000000000000D+00  0.50000000000000D+00  0.00000000000000D+00
            0.50000000000000D+00  0.50000000000000D+00  0.00000000000000D+00
            0.00000000000000D+00  0.00000000000000D+00  0.25000000000000D+00
            0.50000000000000D+00  0.00000000000000D+00  0.25000000000000D+00
            0.00000000000000D+00  0.50000000000000D+00  0.25000000000000D+00
            0.50000000000000D+00  0.50000000000000D+00  0.25000000000000D+00
            0.00000000000000D+00  0.00000000000000D+00  0.50000000000000D+00
            0.50000000000000D+00  0.00000000000000D+00  0.50000000000000D+00
            0.00000000000000D+00  0.50000000000000D+00  0.50000000000000D+00
            0.50000000000000D+00  0.50000000000000D+00  0.50000000000000D+00
            0.00000000000000D+00  0.00000000000000D+00 -0.25000000000000D+00
            0.50000000000000D+00  0.00000000000000D+00 -0.25000000000000D+00
            0.00000000000000D+00  0.50000000000000D+00 -0.25000000000000D+00
            0.50000000000000D+00  0.50000000000000D+00 -0.25000000000000D+00
    kptnrm  0.10000000000000D+01
     ngfft         8    8   12
    nspden         1
   nspinor         1
       occ  0.20000000000000D+01  0.20000000000000D+01  0.20000000000000D+01
            0.00000000000000D+00  0.00000000000000D+00  0.00000000000000D+00
            0.00000000000000D+00  0.00000000000000D+00
     rprim  0.10000000000000D+01  0.00000000000000D+00  0.00000000000000D+00
           -0.50000000000000D+00  0.86602540378444D+00  0.00000000000000D+00
            0.61232339957368D-16  0.10605752387249D-15  0.10000000000000D+01
     sciss  0.00000000000000D+00
    spinat  0.00000000000000D+00  0.00000000000000D+00  0.00000000000000D+00
            0.00000000000000D+00  0.00000000000000D+00  0.00000000000000D+00
    symafm         1    1    1    1    1    1    1    1    1    1    1    1
    symrel         1    0    0    0    1    0    0    0    1
                   0   -1    0   -1    0    0    0    0   -1
                  -1   -1    0    1    0    0    0    0   -1
                  -1    0    0    1    1    0    0    0    1
                   0    1    0   -1   -1    0    0    0    1
                   1    1    0    0   -1    0    0    0   -1
                   1    0    0    0    1    0    0    0   -1
                   0   -1    0   -1    0    0    0    0    1
                  -1   -1    0    1    0    0    0    0    1
                  -1    0    0    1    1    0    0    0   -1
                   0    1    0   -1   -1    0    0    0   -1
                   1    1    0    0   -1    0    0    0    1
     tnons  0.00000000000000D+00  0.00000000000000D+00  0.00000000000000D+00
            0.00000000000000D+00  0.00000000000000D+00  0.00000000000000D+00
            0.00000000000000D+00  0.00000000000000D+00  0.00000000000000D+00
            0.00000000000000D+00  0.00000000000000D+00  0.00000000000000D+00
            0.00000000000000D+00  0.00000000000000D+00  0.00000000000000D+00
            0.00000000000000D+00  0.00000000000000D+00  0.00000000000000D+00
            0.00000000000000D+00  0.00000000000000D+00  0.00000000000000D+00
            0.00000000000000D+00  0.00000000000000D+00  0.00000000000000D+00
            0.00000000000000D+00  0.00000000000000D+00  0.00000000000000D+00
            0.00000000000000D+00  0.00000000000000D+00  0.00000000000000D+00
            0.00000000000000D+00  0.00000000000000D+00  0.00000000000000D+00
            0.00000000000000D+00  0.00000000000000D+00  0.00000000000000D+00
    tolwfr  0.10000000000000D+01
   tphysel  0.00000000000000D+00
    tsmear  0.10000000000000D-02
     typat         1    2
       wtk  0.62500000000000D-01  0.62500000000000D-01  0.62500000000000D-01
            0.62500000000000D-01  0.62500000000000D-01  0.62500000000000D-01
            0.62500000000000D-01  0.62500000000000D-01  0.62500000000000D-01
            0.62500000000000D-01  0.62500000000000D-01  0.62500000000000D-01
            0.62500000000000D-01  0.62500000000000D-01  0.62500000000000D-01
            0.62500000000000D-01
      xred  0.00000000000000D+00  0.00000000000000D+00  0.00000000000000D+00
            0.33333333333333D+00  0.66666666666667D+00  0.50000000000000D+00
     znucl  0.22000000000000D+02  0.41000000000000D+02
      zion  0.40000000000000D+01  0.50000000000000D+01
 
  Description of the potentials (KB energies)
  vrsio8 (for pseudopotentials)=100401
  usepaw =  0
  dimekb =  3       lmnmax=  3
  Atom type=    1   pspso=  0   nekb=   2
  iln lpsang iproj  ekb(:)
     1     1     1     9.1553737E-01  0.0000000E+00
     2     2     1     0.0000000E+00 -8.0156917E+00
  Atom type=    2   pspso=  0   nekb=   2
  iln lpsang iproj  ekb(:)
     1     1     1     5.3241847E-01  0.0000000E+00
     2     2     1     0.0000000E+00 -3.9450716E+00
 
 **** Database of total energy derivatives ****
 Number of data blocks=    4
  
 2nd derivatives (non-stat.)  - # elements :      64
 qpt  0.00000000E+00  0.00000000E+00  0.00000000E+00   1.0
   1   1   1   1  0.24836110821462D+01  0.00000000000000D+00
   2   1   1   1 -0.12418055410731D+01  0.00000000000000D+00
   3   1   1   1  0.51715566920769D-15  0.00000000000000D+00
   1   2   1   1 -0.24836379758380D+01 -0.48713261652509D-15
   2   2   1   1  0.12418189879190D+01  0.42781943984443D-16
   3   2   1   1 -0.51715566917373D-15 -0.27082010487106D-16
   2   4   1   1  0.00000000000000D+00  0.00000000000000D+00
   3   4   1   1  0.00000000000000D+00  0.00000000000000D+00
   1   1   2   1 -0.12418055410731D+01  0.00000000000000D+00
   2   1   2   1  0.24836110821462D+01  0.00000000000000D+00
   3   1   2   1 -0.75796111346672D-16  0.00000000000000D+00
   1   2   2   1  0.12418189879190D+01  0.42781943984443D-16
   2   2   2   1 -0.24836379758380D+01  0.82620381283408D-16
   3   2   2   1  0.75796111295473D-16 -0.69174020294426D-16
   1   4   2   1  0.00000000000000D+00  0.00000000000000D+00
   3   4   2   1  0.00000000000000D+00  0.00000000000000D+00
   1   1   3   1  0.51715566917373D-15  0.00000000000000D+00
   2   1   3   1 -0.75796111312206D-16  0.00000000000000D+00
   3   1   3   1  0.38738071894128D+02  0.00000000000000D+00
   1   2   3   1 -0.51715566917373D-15 -0.27082010487106D-16
   2   2   3   1  0.75796111295473D-16 -0.69174020294426D-16
   3   2   3   1 -0.38737216619413D+02 -0.56324682590399D-16
   1   4   3   1  0.00000000000000D+00  0.00000000000000D+00
   2   4   3   1  0.00000000000000D+00  0.00000000000000D+00
   1   1   1   2 -0.24836255698213D+01  0.48713261652509D-15
   2   1   1   2  0.12418127849106D+01 -0.42781943984443D-16
   3   1   1   2 -0.51715566917373D-15  0.27082010487106D-16
   1   2   1   2  0.24835697811301D+01  0.00000000000000D+00
   2   2   1   2 -0.12417848905651D+01  0.00000000000000D+00
   3   2   1   2  0.51715566915957D-15  0.00000000000000D+00
   2   4   1   2  0.00000000000000D+00  0.00000000000000D+00
   3   4   1   2  0.00000000000000D+00  0.00000000000000D+00
   1   1   2   2  0.12418127849106D+01 -0.42781943984443D-16
   2   1   2   2 -0.24836255698213D+01 -0.82620381283408D-16
   3   1   2   2  0.75796111295473D-16  0.69174020294426D-16
   1   2   2   2 -0.12417848905651D+01  0.00000000000000D+00
   2   2   2   2  0.24835697811301D+01  0.00000000000000D+00
   3   2   2   2 -0.75796111419183D-16  0.00000000000000D+00
   1   4   2   2  0.00000000000000D+00  0.00000000000000D+00
   3   4   2   2  0.00000000000000D+00  0.00000000000000D+00
   1   1   3   2 -0.51715566917373D-15  0.27082010487106D-16
   2   1   3   2  0.75796111295473D-16  0.69174020294426D-16
   3   1   3   2 -0.38737243788324D+02  0.56324682590399D-16
   1   2   3   2  0.51715566917373D-15  0.00000000000000D+00
   2   2   3   2 -0.75796111419183D-16  0.00000000000000D+00
   3   2   3   2  0.38740345617423D+02  0.00000000000000D+00
   1   4   3   2  0.00000000000000D+00  0.00000000000000D+00
   2   4   3   2  0.00000000000000D+00  0.00000000000000D+00
   2   1   1   4  0.00000000000000D+00  0.00000000000000D+00
   3   1   1   4  0.00000000000000D+00  0.00000000000000D+00
   2   2   1   4  0.00000000000000D+00  0.00000000000000D+00
   3   2   1   4  0.00000000000000D+00  0.00000000000000D+00
   3   4   1   4  0.00000000000000D+00  0.00000000000000D+00
   1   1   2   4  0.00000000000000D+00  0.00000000000000D+00
   3   1   2   4  0.00000000000000D+00  0.00000000000000D+00
   1   2   2   4  0.00000000000000D+00  0.00000000000000D+00
   3   2   2   4  0.00000000000000D+00  0.00000000000000D+00
   3   4   2   4  0.00000000000000D+00  0.00000000000000D+00
   1   1   3   4  0.00000000000000D+00  0.00000000000000D+00
   2   1   3   4  0.00000000000000D+00  0.00000000000000D+00
   1   2   3   4  0.00000000000000D+00  0.00000000000000D+00
   2   2   3   4  0.00000000000000D+00  0.00000000000000D+00
   1   4   3   4  0.00000000000000D+00  0.00000000000000D+00
   2   4   3   4  0.00000000000000D+00  0.00000000000000D+00
  
 2nd derivatives (non-stat.)  - # elements :      36
 qpt  5.00000000E-01  0.00000000E+00  0.00000000E+00   1.0
   1   1   1   1  0.82552600839345D+01  0.15526958299943D-06
   2   1   1   1 -0.33249761584254D+01  0.00000000000000D+00
   3   1   1   1  0.86763617860488D-14  0.00000000000000D+00
   1   2   1   1  0.75082441994256D+00  0.10786168462339D-04
   2   2   1   1  0.16833366785552D+01  0.13730486944913D-08
   3   2   1   1 -0.73352305258600D-14  0.31951159421247D-15
   1   1   2   1 -0.33249761584254D+01  0.00000000000000D+00
   2   1   2   1  0.66499523168510D+01  0.00000000000000D+00
   3   1   2   1 -0.67640428186149D-15  0.00000000000000D+00
   1   2   2   1  0.16833366785552D+01  0.13730486944913D-08
   2   2   2   1 -0.33666733571105D+01 -0.27460974410845D-08
   3   2   2   1 -0.69872039681758D-14 -0.14852457452876D-16
   1   1   3   1  0.86763617860505D-14  0.00000000000000D+00
   2   1   3   1 -0.67640428184425D-15  0.00000000000000D+00
   3   1   3   1  0.33158059728018D+02  0.00000000000000D+00
   1   2   3   1 -0.73352305258600D-14  0.31951159421247D-15
   2   2   3   1 -0.69872039681758D-14 -0.14852457452876D-16
   3   2   3   1 -0.12299547726074D+02  0.19146692973537D-07
   1   1   1   2  0.75082822251828D+00 -0.77833400176022D-05
   2   1   1   2  0.16833366621309D+01 -0.17284593377498D-08
   3   1   1   2 -0.73352305258600D-14 -0.31951159421247D-15
   1   2   1   2  0.17416893175106D+02 -0.19847267559033D-05
   2   2   1   2 -0.49497643160262D+01  0.00000000000000D+00
   3   2   1   2  0.13265915226460D-13  0.00000000000000D+00
   1   1   2   2  0.16833366621309D+01 -0.17284593377497D-08
   2   1   2   2 -0.33666733242617D+01  0.34569187276014D-08
   3   1   2   2 -0.69872039681758D-14  0.14852457452876D-16
   1   2   2   2 -0.49497643160262D+01  0.00000000000000D+00
   2   2   2   2  0.98995286320528D+01  0.00000000000000D+00
   3   2   2   2 -0.10142463777162D-14  0.00000000000000D+00
   1   1   3   2 -0.73352305258600D-14 -0.31951159421247D-15
   2   1   3   2 -0.69872039681758D-14  0.14852457452876D-16
   3   1   3   2 -0.12299546354820D+02 -0.73566458140592D-08
   1   2   3   2  0.13265915226471D-13  0.00000000000000D+00
   2   2   3   2 -0.10142463777162D-14  0.00000000000000D+00
   3   2   3   2  0.35963623744083D+02  0.00000000000000D+00
  
 2nd derivatives (non-stat.)  - # elements :      36
 qpt  0.00000000E+00  0.00000000E+00  5.00000000E-01   1.0
   1   1   1   1  0.29996548027164D+01  0.69983882420565D-09
   2   1   1   1 -0.14998274013582D+01 -0.34991941210283D-09
   3   1   1   1  0.28243592292951D-14  0.00000000000000D+00
   1   2   1   1 -0.11762625941622D-14 -0.72105093467989D-15
   2   2   1   1  0.13716225190219D-14  0.32558996418499D-15
   3   2   1   1 -0.55131592799869D-14  0.28895747492845D-16
   1   1   2   1 -0.14998274013582D+01 -0.34991941210283D-09
   2   1   2   1  0.29996548027164D+01  0.69983882420565D-09
   3   1   2   1  0.12196070219139D-15  0.00000000000000D+00
   1   2   2   1  0.13716225193665D-14  0.32558996384033D-15
   2   2   2   1 -0.26290971911254D-14 -0.13039722316111D-15
   3   2   2   1  0.24350200408297D-14 -0.12121397046931D-15
   1   1   3   1  0.28243591587124D-14  0.00000000000000D+00
   2   1   3   1  0.12196077277747D-15  0.00000000000000D+00
   3   1   3   1  0.35956073193904D+02  0.00000000000000D+00
   1   2   3   1 -0.55131592799869D-14  0.28895747492845D-16
   2   2   3   1  0.24350200386239D-14 -0.12121397046931D-15
   3   2   3   1  0.52048087029352D-14 -0.20689405163543D-14
   1   1   1   2 -0.11762625936107D-14  0.72105093440417D-15
   2   1   1   2  0.13716225181258D-14 -0.32558996342674D-15
   3   1   1   2 -0.55131593329265D-14 -0.28895747492845D-16
   1   2   1   2 -0.25447977940064D+02  0.42441765074659D-09
   2   2   1   2  0.12723988970032D+02 -0.21220882537329D-09
   3   2   1   2  0.41221610726207D-14  0.00000000000000D+00
   1   1   2   2  0.13716225188151D-14 -0.32558996356460D-15
   2   1   2   2 -0.26290971907808D-14  0.13039722312664D-15
   3   1   2   2  0.24350200915635D-14  0.12121404105539D-15
   1   2   2   2  0.12723988970032D+02 -0.21220882537329D-09
   2   2   2   2 -0.25447977940064D+02  0.42441765074659D-09
   3   2   2   2  0.23319892362408D-15  0.00000000000000D+00
   1   1   3   2 -0.55131592799869D-14 -0.28895747492845D-16
   2   1   3   2  0.24350200386239D-14  0.12121397046931D-15
   3   1   3   2  0.52048087161701D-14  0.20689405163543D-14
   1   2   3   2  0.41221611255630D-14  0.00000000000000D+00
   2   2   3   2  0.23319901185668D-15  0.00000000000000D+00
   3   2   3   2  0.46627765711249D+02  0.00000000000000D+00
  
 2nd derivatives (non-stat.)  - # elements :      36
 qpt  5.00000000E-01  0.00000000E+00  5.00000000E-01   1.0
   1   1   1   1  0.14525772302103D+02  0.15393876756254D-06
   2   1   1   1 -0.33717434074480D+01  0.00000000000000D+00
   3   1   1   1 -0.35072778316581D-16  0.00000000000000D+00
   1   2   1   1  0.19862777203980D-14  0.21210929001257D-14
   2   2   1   1  0.83332705116916D-15 -0.95764762879190D-16
   3   2   1   1 -0.97080431198343D+01 -0.25734155398406D-06
   1   1   2   1 -0.33717434074480D+01  0.00000000000000D+00
   2   1   2   1  0.67434868148961D+01  0.00000000000000D+00
   3   1   2   1  0.70373414112487D-15  0.00000000000000D+00
   1   2   2   1  0.83332726494365D-15 -0.95764759570467D-16
   2   2   2   1 -0.15267193139412D-14 -0.40853254403574D-15
   3   2   2   1  0.73120579049780D-16 -0.33238995984041D-15
   1   1   3   1 -0.35072778315887D-16  0.00000000000000D+00
   2   1   3   1  0.70373414110764D-15  0.00000000000000D+00
   3   1   3   1  0.34030653939178D+02  0.00000000000000D+00
   1   2   3   1 -0.93057417147611D+01 -0.24973832522615D-05
   2   2   3   1  0.73120579049780D-16 -0.33238995984041D-15
   3   2   3   1 -0.12430364446378D-14 -0.46023422146368D-15
   1   1   1   2  0.19862783574305D-14 -0.21210924662694D-14
   2   1   1   2  0.83332705344390D-15  0.95764759673865D-16
   3   1   1   2 -0.93057358687276D+01  0.56116935597939D-06
   1   2   1   2  0.13672550703660D+02 -0.27266419633460D-06
   2   2   1   2 -0.24360178857908D+01  0.00000000000000D+00
   3   2   1   2 -0.34570127411559D-15  0.00000000000000D+00
   1   1   2   2  0.83332705318541D-15  0.95764759570467D-16
   2   1   2   2 -0.15267193180771D-14  0.40853254398404D-15
   3   1   2   2  0.73120579049780D-16  0.33238995984041D-15
   1   2   2   2 -0.24360178857908D+01  0.00000000000000D+00
   2   2   2   2  0.48720357715818D+01  0.00000000000000D+00
   3   2   2   2  0.11422198999029D-14  0.00000000000000D+00
   1   1   3   2 -0.97080444540701D+01  0.60900604963264D-08
   2   1   3   2  0.73120579049780D-16  0.33238995984041D-15
   3   1   3   2 -0.12430364446378D-14  0.46023421650059D-15
   1   2   3   2 -0.34570127620847D-15  0.00000000000000D+00
   2   2   3   2  0.11422198999029D-14  0.00000000000000D+00
   3   2   3   2  0.42055036871367D+02  0.00000000000000D+00

 List of bloks and their characteristics 
  
 2nd derivatives (non-stat.)  - # elements :      64
 qpt  0.00000000E+00  0.00000000E+00  0.00000000E+00   1.0
  
 2nd derivatives (non-stat.)  - # elements :      36
 qpt  5.00000000E-01  0.00000000E+00  0.00000000E+00   1.0
  
 2nd derivatives (non-stat.)  - # elements :      36
 qpt  0.00000000E+00  0.00000000E+00  5.00000000E-01   1.0
  
 2nd derivatives (non-stat.)  - # elements :      36
 qpt  5.00000000E-01  0.00000000E+00  5.00000000E-01   1.0
