
.Version 7.9.3 of ABINIT 
.(MPI version, prepared for a x86_64_linux_gnu4.7 computer) 

.Copyright (C) 1998-2014 ABINIT group . 
 ABINIT comes with ABSOLUTELY NO WARRANTY.
 It is free software, and you are welcome to redistribute it
 under certain conditions (GNU General Public License,
 see ~abinit/COPYING or http://www.gnu.org/copyleft/gpl.txt).

 ABINIT is a project of the Universite Catholique de Louvain,
 Corning Inc. and other collaborators, see ~abinit/doc/developers/contributors.txt .
 Please read ~abinit/doc/users/acknowledgments.html for suggested
 acknowledgments of the ABINIT effort.
 For more information, see http://www.abinit.org .

.Starting date : Sat 30 Aug 2014.
- ( at 22h23 )
  
- input  file    -> telast_1.in
- output file    -> telast_1.out
- root for input  files -> telast_1i
- root for output files -> telast_1o


 DATASET    1 : space group P6_3 m c (#186); Bravais hP (primitive hexag.)
================================================================================
 Values of the parameters that define the memory need for DATASET  1.
   intxc =         0  ionmov =         2    iscf =         5 xclevel =         1
  lmnmax =         2   lnmax =         2   mband =         8  mffmem =         1
P  mgfft =        30   mkmem =         8 mpssoang=         3     mpw =       428
  mqgrid =      3001   natom =         4    nfft =      9720    nkpt =         8
  nloalg =         4  nspden =         1 nspinor =         1  nsppol =         1
    nsym =        12  n1xccc =      2501  ntypat =         2  occopt =         1
================================================================================
P This job should need less than                       3.688 Mbytes of memory.
  Rough estimation (10% accuracy) of disk space for files :
_ WF disk file :      0.420 Mbytes ; DEN or POT disk file :      0.076 Mbytes.
================================================================================


 DATASET    2 : space group P6_3 m c (#186); Bravais hP (primitive hexag.)
================================================================================
 Values of the parameters that define the memory need for DATASET  2.
   intxc =         0  ionmov =         2    iscf =         5 xclevel =         1
  lmnmax =         2   lnmax =         2   mband =         8  mffmem =         1
P  mgfft =        30   mkmem =         8 mpssoang=         3     mpw =       494
  mqgrid =      3001   natom =         4    nfft =      9720    nkpt =         8
  nloalg =         4  nspden =         1 nspinor =         1  nsppol =         1
    nsym =        12  n1xccc =      2501  ntypat =         2  occopt =         1
================================================================================
P This job should need less than                       3.781 Mbytes of memory.
  Rough estimation (10% accuracy) of disk space for files :
_ WF disk file :      0.484 Mbytes ; DEN or POT disk file :      0.076 Mbytes.
================================================================================

--------------------------------------------------------------------------------
------------- Echo of variables that govern the present computation ------------
--------------------------------------------------------------------------------
-
- outvars: echo of selected default values                                      
-   accesswff0 =  0 , fftalg0 =112 , wfoptalg0 =  0
-
- outvars: echo of global parameters not present in the input file              
-  max_nthreads =    0
-
 -outvars: echo values of preprocessed input variables --------
            acell      7.5000000000E+00  7.5000000000E+00  1.2263388000E+01 Bohr
              amu      2.69815390E+01  7.49215900E+01
           diemac      9.00000000E+00
          dilatmx1     1.00000000E+00
          dilatmx2     1.05000000E+00
             ecut      6.00000000E+00 Hartree
           ecutsm      5.00000000E-01 Hartree
-          fftalg         112
           getwfk1          0
           getwfk2         -1
          getxred1          0
          getxred2         -1
           iatfix        1    2
           ionmov           2
             iscf           5
           jdtset        1    2
              kpt      0.00000000E+00  0.00000000E+00  1.25000000E-01
                       2.50000000E-01  0.00000000E+00  1.25000000E-01
                       5.00000000E-01  0.00000000E+00  1.25000000E-01
                       2.50000000E-01  2.50000000E-01  1.25000000E-01
                       0.00000000E+00  0.00000000E+00  3.75000000E-01
                       2.50000000E-01  0.00000000E+00  3.75000000E-01
                       5.00000000E-01  0.00000000E+00  3.75000000E-01
                       2.50000000E-01  2.50000000E-01  3.75000000E-01
         kptrlatt        4    0    0      0    4    0      0    0    4
P           mkmem           8
           natfix           2
            natom           4
            nband           8
           ndtset           2
            ngfft          18      18      30
             nkpt           8
            nstep          40
             nsym          12
            ntime1          5
            ntime2         12
           ntypat           2
              occ      2.000000  2.000000  2.000000  2.000000  2.000000  2.000000
                       2.000000  2.000000
          optcell1          0
          optcell2          2
        optforces           1
            rprim      8.6602540378E-01  5.0000000000E-01  0.0000000000E+00
                      -8.6602540378E-01  5.0000000000E-01  0.0000000000E+00
                       0.0000000000E+00  0.0000000000E+00  1.0000000000E+00
           shiftk      0.00000000E+00  0.00000000E+00  5.00000000E-01
          spgroup         186
           symrel      1  0  0   0  1  0   0  0  1       0  1  0   1  0  0   0  0  1
                       1  1  0  -1  0  0   0  0  1      -1  0  0   1  1  0   0  0  1
                       0  1  0  -1 -1  0   0  0  1      -1 -1  0   0  1  0   0  0  1
                      -1  0  0   0 -1  0   0  0  1       0 -1  0  -1  0  0   0  0  1
                      -1 -1  0   1  0  0   0  0  1       1  0  0  -1 -1  0   0  0  1
                       0 -1  0   1  1  0   0  0  1       1  1  0   0 -1  0   0  0  1
            tnons      0.0000000  0.0000000  0.0000000     0.0000000  0.0000000  0.5000000
                      -0.0000000  0.0000000  0.5000000     0.0000000  0.0000000  0.0000000
                       0.0000000 -0.0000000  0.0000000     0.0000000  0.0000000  0.5000000
                       0.0000000  0.0000000  0.5000000     0.0000000  0.0000000  0.0000000
                       0.0000000  0.0000000  0.0000000    -0.0000000  0.0000000  0.5000000
                       0.0000000  0.0000000  0.5000000     0.0000000 -0.0000000  0.0000000
           tolmxf      1.00000000E-06
           tolvrs      1.00000000E-18
            typat      1  1  2  2
              wtk        0.03125    0.18750    0.09375    0.18750    0.03125    0.18750
                         0.09375    0.18750
           xangst     -1.1457022644E+00  1.9844145322E+00  0.0000000000E+00
                       1.1457022644E+00  1.9844145322E+00  3.2447527148E+00
                      -1.1457022644E+00  1.9844145322E+00  2.4335645361E+00
                       1.1457022644E+00  1.9844145322E+00  5.6783172510E+00
            xcart     -2.1650635095E+00  3.7500000000E+00  0.0000000000E+00
                       2.1650635095E+00  3.7500000000E+00  6.1316940000E+00
                      -2.1650635095E+00  3.7500000000E+00  4.5987705000E+00
                       2.1650635095E+00  3.7500000000E+00  1.0730464500E+01
             xred      3.3333333333E-01  6.6666666667E-01  0.0000000000E+00
                       6.6666666667E-01  3.3333333333E-01  5.0000000000E-01
                       3.3333333333E-01  6.6666666667E-01  3.7500000000E-01
                       6.6666666667E-01  3.3333333333E-01  8.7500000000E-01
            znucl       13.00000   33.00000

================================================================================

 chkinp: Checking input parameters for consistency, jdtset=   1.

 chkinp: Checking input parameters for consistency, jdtset=   2.

================================================================================
== DATASET  1 ==================================================================
-   nproc =    1

 Exchange-correlation functional for the present dataset will be:
  LDA: new Teter (4/93) with spin-polarized option - ixc=1
 Citation for XC functional:
  S. Goedecker, M. Teter, J. Huetter, PRB 54, 1703 (1996)

 Real(R)+Recip(G) space primitive vectors, cartesian coordinates (Bohr,Bohr^-1):
 R(1)=  6.4951905  3.7500000  0.0000000  G(1)=  0.0769800  0.1333333  0.0000000
 R(2)= -6.4951905  3.7500000  0.0000000  G(2)= -0.0769800  0.1333333  0.0000000
 R(3)=  0.0000000  0.0000000 12.2633880  G(3)=  0.0000000  0.0000000  0.0815435
 Unit cell volume ucvol=  5.9739781E+02 bohr^3
 Angles (23,13,12)=  9.00000000E+01  9.00000000E+01  1.20000000E+02 degrees

 getcut: wavevector=  0.0000  0.0000  0.0000  ngfft=  18  18  30
         ecut(hartree)=      6.000   => boxcut(ratio)=   2.18103

--- Pseudopotential description ------------------------------------------------
- pspini: atom type   1  psp file is /home/gonze/ABINIT/ABINITv7.9.3/trunk/7.9.3-private/tests/Psps_for_tests/13al.pspnc
- pspatm: opening atomic psp file    /home/gonze/ABINIT/ABINITv7.9.3/trunk/7.9.3-private/tests/Psps_for_tests/13al.pspnc
-  Troullier-Martins psp for element  Al        Thu Oct 27 17:31:05 EDT 1994
- 13.00000   3.00000    940714                znucl, zion, pspdat
    1    1    2    2      2001   0.00000      pspcod,pspxc,lmax,lloc,mmax,r2well
    0   4.657  11.889    1   2.2761078        l,e99.0,e99.9,nproj,rcpsp
   0.00000000   0.00000000   0.00000000   0.00000000     rms, ekb1, ekb2, epsatm
    1   1.829   2.761    1   2.2761078        l,e99.0,e99.9,nproj,rcpsp
   0.00000000   0.00000000   0.00000000   0.00000000     rms, ekb1, ekb2, epsatm
    2   0.000   0.000    0   2.2761078        l,e99.0,e99.9,nproj,rcpsp
   0.00000000   0.00000000   0.00000000   0.00000000     rms, ekb1, ekb2, epsatm
    2.09673076353074    0.12648111154518    1.01742091001718   rchrg,fchrg,qchrg
 pspatm: epsatm=    0.22155260
         --- l  ekb(1:nproj) -->
             0    2.540658
             1    1.353815
 pspatm: atomic psp has been read  and splines computed

- pspini: atom type   2  psp file is /home/gonze/ABINIT/ABINITv7.9.3/trunk/7.9.3-private/tests/Psps_for_tests/33as.pspnc
- pspatm: opening atomic psp file    /home/gonze/ABINIT/ABINITv7.9.3/trunk/7.9.3-private/tests/Psps_for_tests/33as.pspnc
-  Troullier-Martins psp for element  As        Thu Oct 27 17:37:14 EDT 1994
- 33.00000   5.00000    940714                znucl, zion, pspdat
    1    1    1    1      2001   0.00000      pspcod,pspxc,lmax,lloc,mmax,r2well
    0   4.772  10.829    1   2.5306160        l,e99.0,e99.9,nproj,rcpsp
   0.00000000   0.00000000   0.00000000   0.00000000     rms, ekb1, ekb2, epsatm
    1   2.745   5.580    0   2.5306160        l,e99.0,e99.9,nproj,rcpsp
   0.00000000   0.00000000   0.00000000   0.00000000     rms, ekb1, ekb2, epsatm
    2.05731715564010    0.36322996461007    2.76014815959125   rchrg,fchrg,qchrg
 pspatm: epsatm=   27.20579911
         --- l  ekb(1:nproj) -->
             0    0.838751
 pspatm: atomic psp has been read  and splines computed

   8.77675255E+02                                ecore*ucvol(ha*bohr**3)
--------------------------------------------------------------------------------

P newkpt: treating      8 bands with npw=     397 for ikpt=   1 by node    0
P newkpt: treating      8 bands with npw=     418 for ikpt=   2 by node    0
P newkpt: treating      8 bands with npw=     428 for ikpt=   3 by node    0
P newkpt: treating      8 bands with npw=     420 for ikpt=   4 by node    0
P newkpt: treating      8 bands with npw=     410 for ikpt=   5 by node    0
P newkpt: treating      8 bands with npw=     423 for ikpt=   6 by node    0
P newkpt: treating      8 bands with npw=     420 for ikpt=   7 by node    0
P newkpt: treating      8 bands with npw=     420 for ikpt=   8 by node    0

_setup2: Arith. and geom. avg. npw (full set) are     419.906     419.872

================================================================================

=== [ionmov= 2] Broyden-Fletcher-Goldfard-Shanno method (forces)            
================================================================================

--- Iteration: (1/5) Internal Cycle: (1/1)
--------------------------------------------------------------------------------

---SELF-CONSISTENT-FIELD CONVERGENCE--------------------------------------------

     iter   Etot(hartree)      deltaE(h)  residm     vres2    diffor    maxfor
 ETOT  1  -20.254324165592    -2.025E+01 4.450E-03 8.334E+00 1.787E-04 1.787E-04
 ETOT  2  -20.270075644820    -1.575E-02 1.005E-07 4.210E-01 5.371E-04 7.157E-04
 ETOT  3  -20.270461614462    -3.860E-04 1.570E-06 2.901E-01 5.350E-05 6.622E-04
 ETOT  4  -20.270801720731    -3.401E-04 7.348E-07 2.453E-02 1.596E-04 5.026E-04
 ETOT  5  -20.270823507869    -2.179E-05 1.112E-07 1.942E-03 4.415E-05 5.468E-04
 ETOT  6  -20.270824951322    -1.443E-06 6.803E-09 2.811E-04 4.345E-06 5.424E-04
 ETOT  7  -20.270824991010    -3.969E-08 1.164E-10 3.265E-04 4.434E-07 5.429E-04
 ETOT  8  -20.270825165464    -1.745E-07 3.694E-10 4.366E-05 2.123E-06 5.450E-04
 ETOT  9  -20.270825188760    -2.330E-08 9.970E-11 7.523E-08 9.383E-07 5.459E-04
 ETOT 10  -20.270825188803    -4.250E-11 5.639E-14 1.140E-08 1.307E-07 5.460E-04
 ETOT 11  -20.270825188814    -1.099E-11 7.314E-14 1.114E-09 1.312E-07 5.459E-04
 ETOT 12  -20.270825188815    -9.912E-13 4.447E-15 7.346E-11 3.357E-08 5.459E-04
 ETOT 13  -20.270825188815    -2.238E-13 2.091E-16 8.970E-12 1.446E-09 5.459E-04
 ETOT 14  -20.270825188815     4.263E-14 2.644E-17 9.086E-13 5.223E-10 5.459E-04
 ETOT 15  -20.270825188815     4.974E-14 2.522E-18 1.160E-13 3.288E-12 5.459E-04
 ETOT 16  -20.270825188815    -3.553E-15 3.488E-19 1.212E-14 3.898E-11 5.459E-04
 ETOT 17  -20.270825188815     2.842E-14 3.278E-20 1.582E-15 4.370E-12 5.459E-04
 ETOT 18  -20.270825188815     2.487E-14 4.543E-21 1.661E-16 4.019E-12 5.459E-04
 ETOT 19  -20.270825188815     6.395E-14 4.205E-22 2.195E-17 7.352E-13 5.459E-04
 ETOT 20  -20.270825188815    -1.918E-13 5.868E-23 2.314E-18 4.580E-13 5.459E-04
 ETOT 21  -20.270825188815     3.553E-15 5.422E-24 3.074E-19 1.057E-13 5.459E-04

 At SCF step   21       vres2   =  3.07E-19 < tolvrs=  1.00E-18 =>converged.

 Cartesian components of stress tensor (hartree/bohr^3)
  sigma(1 1)= -3.32496227E-05  sigma(3 2)=  0.00000000E+00
  sigma(2 2)= -3.32496227E-05  sigma(3 1)=  0.00000000E+00
  sigma(3 3)= -2.34717014E-05  sigma(2 1)=  0.00000000E+00


---OUTPUT-----------------------------------------------------------------------

 Cartesian coordinates (xcart) [bohr]
 -2.16506350946110E+00  3.75000000000000E+00  0.00000000000000E+00
  2.16506350946110E+00  3.75000000000000E+00  6.13169400000000E+00
 -2.16506350946110E+00  3.75000000000000E+00  4.59877050000000E+00
  2.16506350946110E+00  3.75000000000000E+00  1.07304645000000E+01
 Reduced coordinates (xred)
  3.33333333333333E-01  6.66666666666667E-01  0.00000000000000E+00
  6.66666666666667E-01  3.33333333333333E-01  5.00000000000000E-01
  3.33333333333333E-01  6.66666666666667E-01  3.75000000000000E-01
  6.66666666666667E-01  3.33333333333333E-01  8.75000000000000E-01
 Cartesian forces (fcart) [Ha/bohr]; max,rms= 5.45946E-04 3.15202E-04 (free atoms)
  2.67260036323078E-32 -4.62907961744274E-32 -5.45946165932804E-04
  2.67260036323078E-32 -4.62907961744274E-32 -5.45946165932804E-04
  2.67260036323078E-32 -4.62907961744274E-32  5.45946165932804E-04
 -8.01780108969233E-32  1.38872388523282E-31  5.45946165932804E-04
 Reduced forces (fred)
  0.00000000000000E+00  0.00000000000000E+00  6.69518288509321E-03
  0.00000000000000E+00  0.00000000000000E+00  6.69518288509321E-03
  0.00000000000000E+00  0.00000000000000E+00 -6.69511643479951E-03
  0.00000000000000E+00 -1.38872388523282E-30 -6.69511643479951E-03
 Total energy (etotal) [Ha]= -2.02708251888151E+01

--- Iteration: (2/5) Internal Cycle: (1/1)
--------------------------------------------------------------------------------

---SELF-CONSISTENT-FIELD CONVERGENCE--------------------------------------------

     iter   Etot(hartree)      deltaE(h)  residm     vres2    diffor    maxfor
 ETOT  1  -20.270825740735    -2.027E+01 2.209E-13 9.542E-06 2.546E-05 5.205E-04
 ETOT  2  -20.270825755060    -1.432E-08 2.474E-14 2.542E-07 3.059E-05 4.899E-04
 ETOT  3  -20.270825755367    -3.064E-10 7.979E-12 1.412E-07 3.868E-06 4.938E-04
 ETOT  4  -20.270825755546    -1.797E-10 1.214E-12 9.316E-09 1.378E-06 4.924E-04
 ETOT  5  -20.270825755557    -1.029E-11 1.086E-13 7.398E-10 2.258E-07 4.922E-04
 ETOT  6  -20.270825755557    -2.842E-13 2.610E-15 7.885E-10 3.218E-08 4.922E-04
 ETOT  7  -20.270825755557    -4.015E-13 2.318E-15 9.907E-11 2.343E-08 4.922E-04
 ETOT  8  -20.270825755557    -1.386E-13 3.836E-16 8.638E-13 7.189E-09 4.922E-04
 ETOT  9  -20.270825755558    -9.592E-14 5.990E-19 1.276E-13 3.494E-10 4.922E-04
 ETOT 10  -20.270825755557     4.974E-14 2.171E-19 7.203E-15 1.228E-10 4.922E-04
 ETOT 11  -20.270825755557     1.172E-13 2.093E-19 6.680E-16 2.887E-10 4.922E-04
 ETOT 12  -20.270825755557    -1.350E-13 1.309E-20 1.853E-17 1.117E-10 4.922E-04
 ETOT 13  -20.270825755557     2.132E-14 5.037E-23 1.434E-18 8.874E-13 4.922E-04
 ETOT 14  -20.270825755557     3.553E-15 6.298E-24 1.471E-19 2.508E-12 4.922E-04

 At SCF step   14       vres2   =  1.47E-19 < tolvrs=  1.00E-18 =>converged.

 Cartesian components of stress tensor (hartree/bohr^3)
  sigma(1 1)= -3.34247431E-05  sigma(3 2)=  0.00000000E+00
  sigma(2 2)= -3.34247431E-05  sigma(3 1)=  0.00000000E+00
  sigma(3 3)= -2.31230509E-05  sigma(2 1)=  0.00000000E+00


---OUTPUT-----------------------------------------------------------------------

 Cartesian coordinates (xcart) [bohr]
 -2.16506350946110E+00  3.75000000000000E+00  0.00000000000000E+00
  2.16506350946110E+00  3.75000000000000E+00  6.13169400000000E+00
 -2.16506350946110E+00  3.75000000000000E+00  4.59931644616593E+00
  2.16506350946110E+00  3.75000000000000E+00  1.07310104461659E+01
 Reduced coordinates (xred)
  3.33333333333333E-01  6.66666666666667E-01  0.00000000000000E+00
  6.66666666666667E-01  3.33333333333333E-01  5.00000000000000E-01
  3.33333333333333E-01  6.66666666666667E-01  3.75044518379907E-01
  6.66666666666667E-01  3.33333333333333E-01  8.75044518379907E-01
 Cartesian forces (fcart) [Ha/bohr]; max,rms= 4.92159E-04 2.84148E-04 (free atoms)
  2.02421802658899E-32 -3.50604846764894E-32 -4.92159356344498E-04
  2.02421802658899E-32 -3.50604846764894E-32 -4.92159356344498E-04
 -6.07265407976697E-32  1.05181454029468E-31  4.92159356344498E-04
  2.02421802658899E-32 -3.50604846764894E-32  4.92159356344498E-04
 Reduced forces (fred)
  0.00000000000000E+00  0.00000000000000E+00  6.03557448807207E-03
  0.00000000000000E+00  0.00000000000000E+00  6.03557448807207E-03
  0.00000000000000E+00 -1.05181454029468E-30 -6.03550780129362E-03
  0.00000000000000E+00  0.00000000000000E+00 -6.03550780129362E-03
 Total energy (etotal) [Ha]= -2.02708257555574E+01

 Difference of energy with previous step (new-old):
           Absolute (Ha)=-5.66742E-07
           Relative     =-2.79585E-08

--- Iteration: (3/5) Internal Cycle: (1/1)
--------------------------------------------------------------------------------

---SELF-CONSISTENT-FIELD CONVERGENCE--------------------------------------------

     iter   Etot(hartree)      deltaE(h)  residm     vres2    diffor    maxfor
 ETOT  1  -20.270826991074    -2.027E+01 1.873E-11 7.930E-04 2.319E-04 2.603E-04
 ETOT  2  -20.270828169127    -1.178E-06 2.211E-12 2.715E-05 2.861E-04 2.578E-05
 ETOT  3  -20.270828206630    -3.750E-08 9.768E-10 1.176E-05 4.276E-05 1.698E-05
 ETOT  4  -20.270828221511    -1.488E-08 1.066E-10 7.816E-07 1.287E-05 4.106E-06
 ETOT  5  -20.270828222411    -8.998E-10 1.089E-11 6.987E-08 1.822E-06 2.285E-06
 ETOT  6  -20.270828222474    -6.363E-11 4.428E-13 6.061E-08 3.333E-07 2.618E-06
 ETOT  7  -20.270828222511    -3.665E-11 1.670E-13 7.750E-09 1.700E-07 2.448E-06
 ETOT  8  -20.270828222516    -4.679E-12 2.816E-14 6.044E-11 4.507E-08 2.403E-06
 ETOT  9  -20.270828222516     4.263E-14 6.713E-17 8.888E-12 1.808E-09 2.401E-06
 ETOT 10  -20.270828222516    -3.553E-15 2.074E-17 6.479E-13 1.398E-09 2.400E-06
 ETOT 11  -20.270828222516    -9.948E-14 2.454E-17 6.570E-14 4.826E-09 2.404E-06
 ETOT 12  -20.270828222515     1.421E-13 1.178E-18 1.394E-15 1.030E-09 2.403E-06
 ETOT 13  -20.270828222516    -2.132E-14 8.333E-22 6.339E-16 4.886E-12 2.403E-06
 ETOT 14  -20.270828222516    -7.105E-14 4.688E-21 5.174E-17 6.344E-11 2.403E-06
 ETOT 15  -20.270828222516    -2.487E-14 3.601E-22 3.353E-18 6.082E-12 2.403E-06
 ETOT 16  -20.270828222516     8.527E-14 1.101E-23 7.995E-19 3.840E-12 2.403E-06

 At SCF step   16       vres2   =  7.99E-19 < tolvrs=  1.00E-18 =>converged.

 Cartesian components of stress tensor (hartree/bohr^3)
  sigma(1 1)= -3.50285300E-05  sigma(3 2)=  0.00000000E+00
  sigma(2 2)= -3.50285300E-05  sigma(3 1)=  0.00000000E+00
  sigma(3 3)= -1.99514057E-05  sigma(2 1)=  0.00000000E+00


---OUTPUT-----------------------------------------------------------------------

 Cartesian coordinates (xcart) [bohr]
 -2.16506350946110E+00  3.75000000000000E+00  0.00000000000000E+00
  2.16506350946110E+00  3.75000000000000E+00  6.13169400000000E+00
 -2.16506350946110E+00  3.75000000000000E+00  4.60431195557950E+00
  2.16506350946110E+00  3.75000000000000E+00  1.07360059555795E+01
 Reduced coordinates (xred)
  3.33333333333333E-01  6.66666666666667E-01  0.00000000000000E+00
  6.66666666666667E-01  3.33333333333333E-01  5.00000000000000E-01
  3.33333333333333E-01  6.66666666666667E-01  3.75451869873114E-01
  6.66666666666667E-01  3.33333333333333E-01  8.75451869873114E-01
 Cartesian forces (fcart) [Ha/bohr]; max,rms= 2.40331E-06 1.38755E-06 (free atoms)
 -2.27724527991261E-32 -3.94430452610506E-32 -2.40331124910026E-06
 -2.27724527991261E-32 -3.94430452610506E-32 -2.40331124910026E-06
 -2.27724527991261E-32 -3.94430452610506E-32  2.40331124910026E-06
  6.83173583973784E-32  1.18329135783152E-31  2.40331124910026E-06
 Reduced forces (fred)
  0.00000000000000E+00  0.00000000000000E+00  2.95056721443336E-05
  0.00000000000000E+00  0.00000000000000E+00  2.95056721443336E-05
  0.00000000000000E+00  0.00000000000000E+00 -2.94398045206288E-05
 -1.18329135783152E-30  0.00000000000000E+00 -2.94398045206288E-05
 Total energy (etotal) [Ha]= -2.02708282225155E+01

 Difference of energy with previous step (new-old):
           Absolute (Ha)=-2.46696E-06
           Relative     =-1.21700E-07

--- Iteration: (4/5) Internal Cycle: (1/1)
--------------------------------------------------------------------------------

---SELF-CONSISTENT-FIELD CONVERGENCE--------------------------------------------

     iter   Etot(hartree)      deltaE(h)  residm     vres2    diffor    maxfor
 ETOT  1  -20.270828222545    -2.027E+01 4.501E-16 1.919E-08 1.125E-06 1.279E-06
 ETOT  2  -20.270828222573    -2.845E-11 5.499E-17 7.536E-10 1.427E-06 1.483E-07
 ETOT  3  -20.270828222574    -1.030E-12 2.846E-14 2.848E-10 2.309E-07 8.260E-08
 ETOT  4  -20.270828222575    -4.370E-13 2.660E-15 1.918E-11 6.450E-08 1.810E-08
 ETOT  5  -20.270828222575     6.040E-14 2.912E-16 1.882E-12 8.238E-09 9.862E-09
 ETOT  6  -20.270828222575     0.000E+00 1.453E-17 1.383E-12 1.659E-09 1.152E-08
 ETOT  7  -20.270828222575     3.908E-14 3.664E-18 1.777E-13 6.749E-10 1.085E-08
 ETOT  8  -20.270828222575    -6.750E-14 6.163E-19 1.353E-15 1.598E-10 1.069E-08
 ETOT  9  -20.270828222575     6.750E-14 1.980E-21 1.971E-16 2.306E-11 1.066E-08
 ETOT 10  -20.270828222575     4.263E-14 5.344E-22 1.816E-17 1.325E-11 1.065E-08
 ETOT 11  -20.270828222575    -1.705E-13 6.738E-22 1.869E-18 2.876E-11 1.068E-08
 ETOT 12  -20.270828222575     7.816E-14 2.887E-23 3.256E-20 4.915E-12 1.067E-08

 At SCF step   12       vres2   =  3.26E-20 < tolvrs=  1.00E-18 =>converged.

 Cartesian components of stress tensor (hartree/bohr^3)
  sigma(1 1)= -3.50364062E-05  sigma(3 2)=  0.00000000E+00
  sigma(2 2)= -3.50364062E-05  sigma(3 1)=  0.00000000E+00
  sigma(3 3)= -1.99359244E-05  sigma(2 1)=  0.00000000E+00


---OUTPUT-----------------------------------------------------------------------

 Cartesian coordinates (xcart) [bohr]
 -2.16506350946110E+00  3.75000000000000E+00  0.00000000000000E+00
  2.16506350946110E+00  3.75000000000000E+00  6.13169400000000E+00
 -2.16506350946110E+00  3.75000000000000E+00  4.60433646934322E+00
  2.16506350946110E+00  3.75000000000000E+00  1.07360304693432E+01
 Reduced coordinates (xred)
  3.33333333333333E-01  6.66666666666667E-01  0.00000000000000E+00
  6.66666666666667E-01  3.33333333333333E-01  5.00000000000000E-01
  3.33333333333333E-01  6.66666666666667E-01  3.75453868812046E-01
  6.66666666666667E-01  3.33333333333333E-01  8.75453868812046E-01
 Cartesian forces (fcart) [Ha/bohr]; max,rms= 1.06743E-08 6.16284E-09 (free atoms)
 -4.55449055982523E-32  8.76512116912236E-33 -1.06743464075017E-08
 -4.55449055982523E-32  8.76512116912236E-33 -1.06743464075017E-08
  3.54238154653073E-32  1.49007059875080E-31  1.06743464075017E-08
  5.56659957311972E-32 -1.66537302213325E-31  1.06743464075017E-08
 Reduced forces (fred)
  0.00000000000000E+00  0.00000000000000E+00  1.63833774356126E-07
  0.00000000000000E+00  0.00000000000000E+00  1.63833774356126E-07
 -1.05181454029468E-30  0.00000000000000E+00 -9.79735289270732E-08
  0.00000000000000E+00  1.31476817536835E-30 -9.79735289270732E-08
 Total energy (etotal) [Ha]= -2.02708282225746E+01

 Difference of energy with previous step (new-old):
           Absolute (Ha)=-5.90994E-11
           Relative     =-2.91549E-12

 At Broyd/MD step   4, gradients are converged : 
  max grad (force/stress) = 1.0674E-08 < tolmxf= 1.0000E-06 ha/bohr (free atoms)

================================================================================

 ----iterations are completed or convergence reached----

 Mean square residual over all n,k,spin=   1.2671E-23; max=  2.8869E-23
   0.0000  0.0000  0.1250    1  2.84741E-23 kpt; spin; max resid(k); each band:
  2.78E-23 2.06E-23 2.06E-23 2.35E-25 2.35E-25 2.85E-23 3.60E-25 3.60E-25
   0.2500  0.0000  0.1250    1  2.88689E-23 kpt; spin; max resid(k); each band:
  2.57E-23 2.14E-23 1.85E-23 4.56E-24 6.27E-24 2.97E-25 2.89E-23 1.05E-25
   0.5000  0.0000  0.1250    1  2.41863E-23 kpt; spin; max resid(k); each band:
  2.26E-23 2.13E-23 3.01E-24 3.22E-24 1.99E-23 2.57E-25 2.42E-23 7.52E-26
   0.2500  0.2500  0.1250    1  2.56487E-23 kpt; spin; max resid(k); each band:
  2.39E-23 2.24E-23 4.72E-24 6.35E-24 3.57E-24 1.85E-23 3.47E-25 2.56E-23
   0.0000  0.0000  0.3750    1  2.27785E-23 kpt; spin; max resid(k); each band:
  2.28E-23 2.13E-23 2.12E-23 2.27E-23 7.55E-26 7.55E-26 1.98E-25 1.98E-25
   0.2500  0.0000  0.3750    1  2.49004E-23 kpt; spin; max resid(k); each band:
  2.49E-23 2.24E-23 1.43E-23 9.04E-24 1.06E-23 3.52E-25 2.00E-23 5.84E-26
   0.5000  0.0000  0.3750    1  2.69959E-23 kpt; spin; max resid(k); each band:
  2.70E-23 2.38E-23 3.35E-24 3.47E-24 2.10E-23 3.07E-25 3.76E-26 2.52E-23
   0.2500  0.2500  0.3750    1  2.73502E-23 kpt; spin; max resid(k); each band:
  2.74E-23 2.47E-23 5.34E-24 5.85E-24 2.43E-24 1.53E-24 1.99E-23 2.52E-23
 reduced coordinates (array xred) for    4 atoms
       0.333333333333      0.666666666667      0.000000000000
       0.666666666667      0.333333333333      0.500000000000
       0.333333333333      0.666666666667      0.375453868812
       0.666666666667      0.333333333333      0.875453868812
 rms dE/dt=  7.7932E-08; max dE/dt=  1.6383E-07; dE/dt below (all hartree)
    1       0.000000000000      0.000000000000      0.000000163834
    2       0.000000000000      0.000000000000      0.000000163834
    3      -0.000000000000      0.000000000000     -0.000000097974
    4       0.000000000000      0.000000000000     -0.000000097974

 cartesian coordinates (angstrom) at end:
    1     -1.14570226435669     1.98441453221250     0.00000000000000
    2      1.14570226435669     1.98441453221250     3.24475271484805
    3     -1.14570226435669     1.98441453221250     2.43650992025618
    4      1.14570226435669     1.98441453221250     5.68126263510423

 cartesian forces (hartree/bohr) at end:
    1     -0.00000000000000     0.00000000000000    -0.00000001067435
    2     -0.00000000000000     0.00000000000000    -0.00000001067435
    3      0.00000000000000     0.00000000000000     0.00000001067435
    4      0.00000000000000    -0.00000000000000     0.00000001067435
 frms,max,avg= 6.1628368E-09 1.0674346E-08   0.000E+00  0.000E+00 -2.685E-09 h/b

 cartesian forces (eV/Angstrom) at end:
    1     -0.00000000000000     0.00000000000000    -0.00000054889692
    2     -0.00000000000000     0.00000000000000    -0.00000054889692
    3      0.00000000000000     0.00000000000000     0.00000054889692
    4      0.00000000000000    -0.00000000000000     0.00000054889692
 frms,max,avg= 3.1690578E-07 5.4889692E-07   0.000E+00  0.000E+00 -1.381E-07 e/A
 length scales=  7.500000000000  7.500000000000 12.263388000000 bohr
              =  3.968829064425  3.968829064425  6.489505429696 angstroms
 prteigrs : about to open file telast_1o_DS1_EIG
 Fermi (or HOMO) energy (hartree) =   0.08960   Average Vxc (hartree)=  -0.34430
 Eigenvalues (hartree) for nkpt=   8  k points:
 kpt#   1, nband=  8, wtk=  0.03125, kpt=  0.0000  0.0000  0.1250 (reduced coord)
  -0.35441  -0.30451  -0.11638   0.05456   0.05456   0.06898   0.08960   0.08960
 kpt#   2, nband=  8, wtk=  0.18750, kpt=  0.2500  0.0000  0.1250 (reduced coord)
  -0.33488  -0.29105  -0.10409  -0.03740  -0.01740   0.02567   0.06179   0.07010
 kpt#   3, nband=  8, wtk=  0.09375, kpt=  0.5000  0.0000  0.1250 (reduced coord)
  -0.30224  -0.28158  -0.11861  -0.08998  -0.03742   0.00650   0.01722   0.05379
 kpt#   4, nband=  8, wtk=  0.18750, kpt=  0.2500  0.2500  0.1250 (reduced coord)
  -0.30433  -0.28015  -0.10522  -0.07797  -0.03941  -0.03105   0.01178   0.02755
 kpt#   5, nband=  8, wtk=  0.03125, kpt=  0.0000  0.0000  0.3750 (reduced coord)
  -0.34301  -0.32314  -0.07235  -0.00434   0.06338   0.06338   0.07768   0.07768
 kpt#   6, nband=  8, wtk=  0.18750, kpt=  0.2500  0.0000  0.3750 (reduced coord)
  -0.32450  -0.30690  -0.08018  -0.04849  -0.00793   0.03607   0.03812   0.05387
 kpt#   7, nband=  8, wtk=  0.09375, kpt=  0.5000  0.0000  0.3750 (reduced coord)
  -0.29608  -0.28740  -0.12258  -0.11102   0.00336   0.01742   0.03628   0.03681
 kpt#   8, nband=  8, wtk=  0.18750, kpt=  0.2500  0.2500  0.3750 (reduced coord)
  -0.29750  -0.28743  -0.10864  -0.09683  -0.03031  -0.00993   0.01223   0.04541
 Total charge density [el/Bohr^3]
,     Maximum=    9.5997E-02  at reduced coord.    0.8889    0.4444    0.9000
,Next maximum=    9.5997E-02  at reduced coord.    0.5556    0.4444    0.9000
,     Minimum=    2.0513E-03  at reduced coord.    0.0000    0.0000    0.1667
,Next minimum=    2.0513E-03  at reduced coord.    0.0000    0.0000    0.6667
,  Integrated=    1.6000E+01

--------------------------------------------------------------------------------
 Components of total free energy (in Hartree) :

    Kinetic energy  =  5.94395511294117E+00
    Hartree energy  =  1.63720578347766E+00
    XC energy       = -8.69825289410846E+00
    Ewald energy    = -1.69355044248128E+01
    PspCore energy  =  1.46916382550156E+00
    Loc. psp. energy= -4.87435631465404E+00
    NL   psp  energy=  1.18696068908031E+00
    >>>>>>>>> Etotal= -2.02708282225746E+01

 Other information on the energy :
    Total energy(eV)= -5.51597287924599E+02 ; Band energy (Ha)=  -1.3962204583E+00
--------------------------------------------------------------------------------
 rms coord change=  1.8529E-04   atom, delta coord (reduced):
     1        0.000000000000      0.000000000000      0.000000000000
     2        0.000000000000      0.000000000000      0.000000000000
     3        0.000000000000      0.000000000000      0.000453868812
     4        0.000000000000      0.000000000000      0.000453868812

 Cartesian components of stress tensor (hartree/bohr^3)
  sigma(1 1)= -3.50364062E-05  sigma(3 2)=  0.00000000E+00
  sigma(2 2)= -3.50364062E-05  sigma(3 1)=  0.00000000E+00
  sigma(3 3)= -1.99359244E-05  sigma(2 1)=  0.00000000E+00

-Cartesian components of stress tensor (GPa)         [Pressure=  8.8272E-01 GPa]
- sigma(1 1)= -1.03080648E+00  sigma(3 2)=  0.00000000E+00
- sigma(2 2)= -1.03080648E+00  sigma(3 1)=  0.00000000E+00
- sigma(3 3)= -5.86535047E-01  sigma(2 1)=  0.00000000E+00

================================================================================
== DATASET  2 ==================================================================
-   nproc =    1

 mkfilename : getwfk/=0, take file _WFK from output of DATASET   1.

 find_getdtset : getxred/=0, take data from output of dataset with index  1.

 Exchange-correlation functional for the present dataset will be:
  LDA: new Teter (4/93) with spin-polarized option - ixc=1
 Citation for XC functional:
  S. Goedecker, M. Teter, J. Huetter, PRB 54, 1703 (1996)

 Real(R)+Recip(G) space primitive vectors, cartesian coordinates (Bohr,Bohr^-1):
 R(1)=  6.4951905  3.7500000  0.0000000  G(1)=  0.0769800  0.1333333  0.0000000
 R(2)= -6.4951905  3.7500000  0.0000000  G(2)= -0.0769800  0.1333333  0.0000000
 R(3)=  0.0000000  0.0000000 12.2633880  G(3)=  0.0000000  0.0000000  0.0815435
 Unit cell volume ucvol=  5.9739781E+02 bohr^3
 Angles (23,13,12)=  9.00000000E+01  9.00000000E+01  1.20000000E+02 degrees

 getcut: wavevector=  0.0000  0.0000  0.0000  ngfft=  18  18  30
         ecut(hartree)=      6.615   => boxcut(ratio)=   2.07717

--- Pseudopotential description ------------------------------------------------
- pspini: atom type   1  psp file is /home/gonze/ABINIT/ABINITv7.9.3/trunk/7.9.3-private/tests/Psps_for_tests/13al.pspnc
- pspatm: opening atomic psp file    /home/gonze/ABINIT/ABINITv7.9.3/trunk/7.9.3-private/tests/Psps_for_tests/13al.pspnc
-  Troullier-Martins psp for element  Al        Thu Oct 27 17:31:05 EDT 1994
- 13.00000   3.00000    940714                znucl, zion, pspdat
    1    1    2    2      2001   0.00000      pspcod,pspxc,lmax,lloc,mmax,r2well
    0   4.657  11.889    1   2.2761078        l,e99.0,e99.9,nproj,rcpsp
   0.00000000   0.00000000   0.00000000   0.00000000     rms, ekb1, ekb2, epsatm
    1   1.829   2.761    1   2.2761078        l,e99.0,e99.9,nproj,rcpsp
   0.00000000   0.00000000   0.00000000   0.00000000     rms, ekb1, ekb2, epsatm
    2   0.000   0.000    0   2.2761078        l,e99.0,e99.9,nproj,rcpsp
   0.00000000   0.00000000   0.00000000   0.00000000     rms, ekb1, ekb2, epsatm
    2.09673076353074    0.12648111154518    1.01742091001718   rchrg,fchrg,qchrg
 pspatm: epsatm=    0.22155260
         --- l  ekb(1:nproj) -->
             0    2.540658
             1    1.353815
 pspatm: atomic psp has been read  and splines computed

- pspini: atom type   2  psp file is /home/gonze/ABINIT/ABINITv7.9.3/trunk/7.9.3-private/tests/Psps_for_tests/33as.pspnc
- pspatm: opening atomic psp file    /home/gonze/ABINIT/ABINITv7.9.3/trunk/7.9.3-private/tests/Psps_for_tests/33as.pspnc
-  Troullier-Martins psp for element  As        Thu Oct 27 17:37:14 EDT 1994
- 33.00000   5.00000    940714                znucl, zion, pspdat
    1    1    1    1      2001   0.00000      pspcod,pspxc,lmax,lloc,mmax,r2well
    0   4.772  10.829    1   2.5306160        l,e99.0,e99.9,nproj,rcpsp
   0.00000000   0.00000000   0.00000000   0.00000000     rms, ekb1, ekb2, epsatm
    1   2.745   5.580    0   2.5306160        l,e99.0,e99.9,nproj,rcpsp
   0.00000000   0.00000000   0.00000000   0.00000000     rms, ekb1, ekb2, epsatm
    2.05731715564010    0.36322996461007    2.76014815959125   rchrg,fchrg,qchrg
 pspatm: epsatm=   27.20579911
         --- l  ekb(1:nproj) -->
             0    0.838751
 pspatm: atomic psp has been read  and splines computed

--------------------------------------------------------------------------------

-inwffil : will read wavefunctions from disk file telast_1o_DS1_WFK
- newkpt: read input wf with ikpt,npw=   1     397, make ikpt,npw=   1     494
- newkpt: read input wf with ikpt,npw=   2     418, make ikpt,npw=   2     486
- newkpt: read input wf with ikpt,npw=   3     428, make ikpt,npw=   3     480
- newkpt: read input wf with ikpt,npw=   4     420, make ikpt,npw=   4     483
- newkpt: read input wf with ikpt,npw=   5     410, make ikpt,npw=   5     494
- newkpt: read input wf with ikpt,npw=   6     423, make ikpt,npw=   6     486
- newkpt: read input wf with ikpt,npw=   7     420, make ikpt,npw=   7     484
- newkpt: read input wf with ikpt,npw=   8     420, make ikpt,npw=   8     490

_setup2: Arith. and geom. avg. npw (full set) are     485.938     485.925

================================================================================

=== [ionmov= 2] Broyden-Fletcher-Goldfard-Shanno method (forces)            
================================================================================

--- Iteration: ( 1/12) Internal Cycle: (1/1)
--------------------------------------------------------------------------------

---SELF-CONSISTENT-FIELD CONVERGENCE--------------------------------------------

     iter   Etot(hartree)      deltaE(h)  residm     vres2    diffor    maxfor
 ETOT  1  -20.270828222574    -2.027E+01 2.954E-29 3.723E-21 1.067E-08 1.067E-08

 At SCF step    1       vres2   =  3.72E-21 < tolvrs=  1.00E-18 =>converged.

 Cartesian components of stress tensor (hartree/bohr^3)
  sigma(1 1)= -3.50364064E-05  sigma(3 2)=  0.00000000E+00
  sigma(2 2)= -3.50364064E-05  sigma(3 1)=  0.00000000E+00
  sigma(3 3)= -1.99359247E-05  sigma(2 1)=  0.00000000E+00


---OUTPUT-----------------------------------------------------------------------

 Cartesian coordinates (xcart) [bohr]
 -2.16506350946110E+00  3.75000000000000E+00  0.00000000000000E+00
  2.16506350946110E+00  3.75000000000000E+00  6.13169400000000E+00
 -2.16506350946110E+00  3.75000000000000E+00  4.60433646934322E+00
  2.16506350946110E+00  3.75000000000000E+00  1.07360304693432E+01
 Reduced coordinates (xred)
  3.33333333333333E-01  6.66666666666667E-01  0.00000000000000E+00
  6.66666666666667E-01  3.33333333333333E-01  5.00000000000000E-01
  3.33333333333333E-01  6.66666666666667E-01  3.75453868812046E-01
  6.66666666666667E-01  3.33333333333333E-01  8.75453868812046E-01
 Cartesian forces (fcart) [Ha/bohr]; max,rms= 1.06738E-08 6.16254E-09 (free atoms)
 -0.00000000000000E+00 -0.00000000000000E+00 -1.06738388219448E-08
 -0.00000000000000E+00 -0.00000000000000E+00 -1.06738388219448E-08
 -0.00000000000000E+00 -0.00000000000000E+00  1.06738388219449E-08
 -0.00000000000000E+00 -0.00000000000000E+00  1.06738388219449E-08
 Reduced forces (fred)
  0.00000000000000E+00  0.00000000000000E+00  1.63827189379060E-07
  0.00000000000000E+00  0.00000000000000E+00  1.63827189379060E-07
  0.00000000000000E+00  0.00000000000000E+00 -9.79676644668851E-08
  0.00000000000000E+00  0.00000000000000E+00 -9.79676644668851E-08
 Scale of Primitive Cell (acell) [bohr]
  7.50000000000000E+00  7.50000000000000E+00  1.22633880000000E+01
 Real space primitive translations (rprimd) [bohr]
  6.49519052838329E+00  3.75000000000000E+00  0.00000000000000E+00
 -6.49519052838329E+00  3.75000000000000E+00  0.00000000000000E+00
  0.00000000000000E+00  0.00000000000000E+00  1.22633880000000E+01
 Unitary Cell Volume (ucvol) [Bohr^3]=  5.97397811876170E+02
 Angles (23,13,12)= [degrees]
  9.00000000000000E+01  9.00000000000000E+01  1.20000000000000E+02
 Lengths [Bohr]
  7.50000000000000E+00  7.50000000000000E+00  1.22633880000000E+01
 Stress tensor in cartesian coordinates (strten) [Ha/bohr^3]
 -3.50364064178343E-05  0.00000000000000E+00  0.00000000000000E+00
  0.00000000000000E+00 -3.50364064178317E-05  0.00000000000000E+00
  0.00000000000000E+00  0.00000000000000E+00 -1.99359246544810E-05
 Total energy (etotal) [Ha]= -2.02708282225745E+01

--- Iteration: ( 2/12) Internal Cycle: (1/1)
--------------------------------------------------------------------------------

---SELF-CONSISTENT-FIELD CONVERGENCE--------------------------------------------

     iter   Etot(hartree)      deltaE(h)  residm     vres2    diffor    maxfor
 ETOT  1  -20.270868764514    -2.027E+01 3.515E-11 3.170E-03 1.929E-05 1.930E-05
 ETOT  2  -20.270873094746    -4.330E-06 2.541E-12 2.126E-04 7.200E-05 9.130E-05
 ETOT  3  -20.270873261267    -1.665E-07 8.905E-10 1.784E-04 1.168E-05 7.962E-05
 ETOT  4  -20.270873421676    -1.604E-07 5.342E-10 1.664E-05 8.776E-06 8.840E-05
 ETOT  5  -20.270873433747    -1.207E-08 5.842E-11 2.982E-06 4.538E-06 9.294E-05
 ETOT  6  -20.270873435335    -1.589E-09 2.063E-11 3.181E-07 5.399E-06 8.754E-05
 ETOT  7  -20.270873435498    -1.630E-10 9.766E-13 9.975E-09 6.486E-07 8.819E-05
 ETOT  8  -20.270873435506    -7.912E-12 9.418E-14 1.433E-09 2.419E-07 8.794E-05
 ETOT  9  -20.270873435507    -8.029E-13 5.563E-15 1.283E-09 5.831E-08 8.800E-05
 ETOT 10  -20.270873435508    -6.573E-13 1.239E-15 1.463E-10 2.284E-08 8.798E-05
 ETOT 11  -20.270873435508    -7.105E-15 3.126E-16 3.116E-13 1.927E-09 8.798E-05
 ETOT 12  -20.270873435508    -4.974E-14 1.090E-17 1.097E-13 3.503E-09 8.798E-05
 ETOT 13  -20.270873435508    -3.197E-14 1.460E-19 8.948E-15 2.390E-10 8.798E-05
 ETOT 14  -20.270873435508     7.105E-14 4.773E-21 4.028E-16 1.220E-10 8.798E-05
 ETOT 15  -20.270873435508    -3.908E-14 1.983E-22 1.312E-16 2.323E-11 8.798E-05
 ETOT 16  -20.270873435508    -1.421E-14 9.374E-22 1.442E-17 2.499E-11 8.798E-05
 ETOT 17  -20.270873435508     3.197E-14 5.414E-23 3.296E-19 4.902E-12 8.798E-05

 At SCF step   17       vres2   =  3.30E-19 < tolvrs=  1.00E-18 =>converged.

 Cartesian components of stress tensor (hartree/bohr^3)
  sigma(1 1)= -2.71305168E-05  sigma(3 2)=  0.00000000E+00
  sigma(2 2)= -2.71305168E-05  sigma(3 1)=  0.00000000E+00
  sigma(3 3)= -1.44719848E-05  sigma(2 1)=  0.00000000E+00


---OUTPUT-----------------------------------------------------------------------

 Cartesian coordinates (xcart) [bohr]
 -2.16733919081223E+00  3.75394159572201E+00  0.00000000000000E+00
  2.16733919081223E+00  3.75394159572201E+00  6.13536122968765E+00
 -2.16733919081223E+00  3.75394159572201E+00  4.60709023117154E+00
  2.16733919081223E+00  3.75394159572201E+00  1.07424514608592E+01
 Reduced coordinates (xred)
  3.33333333333333E-01  6.66666666666667E-01  0.00000000000000E+00
  6.66666666666667E-01  3.33333333333333E-01  5.00000000000000E-01
  3.33333333333333E-01  6.66666666666667E-01  3.75453869682429E-01
  6.66666666666667E-01  3.33333333333333E-01  8.75453869682429E-01
 Cartesian forces (fcart) [Ha/bohr]; max,rms= 8.79778E-05 5.07940E-05 (free atoms)
 -0.00000000000000E+00 -0.00000000000000E+00 -8.79778295212932E-05
 -0.00000000000000E+00 -0.00000000000000E+00 -8.79778295212932E-05
 -0.00000000000000E+00 -0.00000000000000E+00  8.79778295212932E-05
 -0.00000000000000E+00 -0.00000000000000E+00  8.79778295212932E-05
 Reduced forces (fred)
  0.00000000000000E+00  0.00000000000000E+00  1.07958200726811E-03
  0.00000000000000E+00  0.00000000000000E+00  1.07958200726811E-03
  0.00000000000000E+00  0.00000000000000E+00 -1.07952104999994E-03
  0.00000000000000E+00  0.00000000000000E+00 -1.07952104999994E-03
 Scale of Primitive Cell (acell) [bohr]
  7.50788319144401E+00  7.50788319144401E+00  1.22707224593753E+01
 Real space primitive translations (rprimd) [bohr]
  6.50201757243670E+00  3.75394159572201E+00  0.00000000000000E+00
 -6.50201757243670E+00  3.75394159572201E+00  0.00000000000000E+00
  0.00000000000000E+00  0.00000000000000E+00  1.22707224593753E+01
 Unitary Cell Volume (ucvol) [Bohr^3]=  5.99012354047846E+02
 Angles (23,13,12)= [degrees]
  9.00000000000000E+01  9.00000000000000E+01  1.20000000000000E+02
 Lengths [Bohr]
  7.50788319144401E+00  7.50788319144401E+00  1.22707224593753E+01
 Stress tensor in cartesian coordinates (strten) [Ha/bohr^3]
 -2.71305168318054E-05  0.00000000000000E+00  0.00000000000000E+00
  0.00000000000000E+00 -2.71305168318028E-05  0.00000000000000E+00
  0.00000000000000E+00  0.00000000000000E+00 -1.44719847832639E-05
 Total energy (etotal) [Ha]= -2.02708734355078E+01

 Difference of energy with previous step (new-old):
           Absolute (Ha)=-4.52129E-05
           Relative     =-2.23044E-06

--- Iteration: ( 3/12) Internal Cycle: (1/1)
--------------------------------------------------------------------------------

---SELF-CONSISTENT-FIELD CONVERGENCE--------------------------------------------

     iter   Etot(hartree)      deltaE(h)  residm     vres2    diffor    maxfor
 ETOT  1  -20.270887218940    -2.027E+01 1.819E-10 3.538E-02 4.531E-05 1.333E-04
 ETOT  2  -20.270935558237    -4.834E-05 3.429E-11 2.492E-03 2.379E-04 3.712E-04
 ETOT  3  -20.270937679082    -2.121E-06 1.130E-08 2.016E-03 4.066E-05 3.305E-04
 ETOT  4  -20.270939503753    -1.825E-06 6.394E-09 1.857E-04 2.866E-05 3.592E-04
 ETOT  5  -20.270939641195    -1.374E-07 6.863E-10 3.437E-05 1.474E-05 3.739E-04
 ETOT  6  -20.270939659646    -1.845E-08 2.456E-10 3.628E-06 1.774E-05 3.562E-04
 ETOT  7  -20.270939661517    -1.871E-09 1.130E-11 1.155E-07 2.121E-06 3.583E-04
 ETOT  8  -20.270939661610    -9.236E-11 1.134E-12 1.703E-08 8.077E-07 3.575E-04
 ETOT  9  -20.270939661621    -1.096E-11 7.170E-14 1.495E-08 2.013E-07 3.577E-04
 ETOT 10  -20.270939661628    -7.013E-12 1.388E-14 1.719E-09 8.137E-08 3.576E-04
 ETOT 11  -20.270939661628    -9.273E-13 3.622E-15 3.789E-12 6.688E-09 3.576E-04
 ETOT 12  -20.270939661628     7.461E-14 1.340E-16 1.248E-12 1.193E-08 3.576E-04
 ETOT 13  -20.270939661628    -8.171E-14 2.057E-18 1.014E-13 7.686E-10 3.576E-04
 ETOT 14  -20.270939661628     3.553E-14 5.176E-20 5.048E-15 4.231E-10 3.576E-04
 ETOT 15  -20.270939661628    -3.908E-14 2.662E-21 1.570E-15 8.421E-11 3.576E-04
 ETOT 16  -20.270939661628     6.395E-14 1.200E-20 1.713E-16 8.686E-11 3.576E-04
 ETOT 17  -20.270939661629    -9.237E-14 6.590E-22 4.360E-18 1.753E-11 3.576E-04
 ETOT 18  -20.270939661628     8.171E-14 1.623E-23 4.175E-19 1.122E-12 3.576E-04

 At SCF step   18       vres2   =  4.18E-19 < tolvrs=  1.00E-18 =>converged.

 Cartesian components of stress tensor (hartree/bohr^3)
  sigma(1 1)= -9.38618421E-07  sigma(3 2)=  0.00000000E+00
  sigma(2 2)= -9.38618421E-07  sigma(3 1)=  0.00000000E+00
  sigma(3 3)=  2.86374526E-06  sigma(2 1)=  0.00000000E+00


---OUTPUT-----------------------------------------------------------------------

 Cartesian coordinates (xcart) [bohr]
 -2.17503598427032E+00  3.76727283304677E+00  0.00000000000000E+00
  2.17503598427032E+00  3.76727283304677E+00  6.14699135219927E+00
 -2.17503598427032E+00  3.76727283304677E+00  4.61620654219108E+00
  2.17503598427032E+00  3.76727283304677E+00  1.07631978943904E+01
 Reduced coordinates (xred)
  3.33333333333333E-01  6.66666666666667E-01  0.00000000000000E+00
  6.66666666666667E-01  3.33333333333333E-01  5.00000000000000E-01
  3.33333333333333E-01  6.66666666666667E-01  3.75485036312886E-01
  6.66666666666667E-01  3.33333333333333E-01  8.75485036312886E-01
 Cartesian forces (fcart) [Ha/bohr]; max,rms= 3.57613E-04 2.06468E-04 (free atoms)
 -0.00000000000000E+00 -0.00000000000000E+00 -3.57613205032062E-04
 -0.00000000000000E+00 -0.00000000000000E+00 -3.57613205032062E-04
 -0.00000000000000E+00 -0.00000000000000E+00  3.57613205032062E-04
 -0.00000000000000E+00 -0.00000000000000E+00  3.57613205032062E-04
 Reduced forces (fred)
  0.00000000000000E+00  0.00000000000000E+00  4.39651306941769E-03
  0.00000000000000E+00  0.00000000000000E+00  4.39651306941769E-03
  0.00000000000000E+00  0.00000000000000E+00 -4.39646804563972E-03
  0.00000000000000E+00  0.00000000000000E+00 -4.39646804563972E-03
 Scale of Primitive Cell (acell) [bohr]
  7.53454566609355E+00  7.53454566609355E+00  1.22939827043985E+01
 Real space primitive translations (rprimd) [bohr]
  6.52510795281096E+00  3.76727283304677E+00  0.00000000000000E+00
 -6.52510795281096E+00  3.76727283304677E+00  0.00000000000000E+00
  0.00000000000000E+00  0.00000000000000E+00  1.22939827043985E+01
 Unitary Cell Volume (ucvol) [Bohr^3]=  6.04417970654472E+02
 Angles (23,13,12)= [degrees]
  9.00000000000000E+01  9.00000000000000E+01  1.20000000000000E+02
 Lengths [Bohr]
  7.53454566609355E+00  7.53454566609355E+00  1.22939827043985E+01
 Stress tensor in cartesian coordinates (strten) [Ha/bohr^3]
 -9.38618420725460E-07  0.00000000000000E+00  0.00000000000000E+00
  0.00000000000000E+00 -9.38618420723725E-07  0.00000000000000E+00
  0.00000000000000E+00  0.00000000000000E+00  2.86374526024683E-06
 Total energy (etotal) [Ha]= -2.02709396616284E+01

 Difference of energy with previous step (new-old):
           Absolute (Ha)=-6.62261E-05
           Relative     =-3.26705E-06

--- Iteration: ( 4/12) Internal Cycle: (1/1)
--------------------------------------------------------------------------------

---SELF-CONSISTENT-FIELD CONVERGENCE--------------------------------------------

     iter   Etot(hartree)      deltaE(h)  residm     vres2    diffor    maxfor
 ETOT  1  -20.270940089268    -2.027E+01 2.620E-12 5.066E-06 1.157E-05 3.460E-04
 ETOT  2  -20.270940095720    -6.452E-09 1.044E-15 8.547E-08 3.472E-07 3.464E-04
 ETOT  3  -20.270940095791    -7.052E-11 5.738E-13 6.450E-09 2.791E-07 3.467E-04
 ETOT  4  -20.270940095794    -3.883E-12 6.451E-14 1.107E-09 7.096E-08 3.467E-04
 ETOT  5  -20.270940095795    -9.948E-13 4.564E-14 7.748E-11 2.306E-07 3.465E-04
 ETOT  6  -20.270940095796    -1.634E-13 3.099E-15 1.838E-12 4.635E-08 3.466E-04
 ETOT  7  -20.270940095796    -2.487E-14 2.469E-17 8.236E-13 5.500E-09 3.465E-04
 ETOT  8  -20.270940095796    -2.487E-14 1.028E-17 5.267E-14 2.356E-09 3.466E-04
 ETOT  9  -20.270940095796     3.553E-15 6.125E-19 2.823E-15 7.029E-10 3.466E-04
 ETOT 10  -20.270940095796     2.487E-14 6.236E-20 4.165E-16 1.473E-10 3.466E-04
 ETOT 11  -20.270940095796    -3.908E-14 4.690E-21 2.080E-16 4.212E-11 3.466E-04
 ETOT 12  -20.270940095796     9.592E-14 4.786E-22 1.716E-17 2.247E-12 3.466E-04
 ETOT 13  -20.270940095796    -1.563E-13 5.182E-23 2.017E-19 6.440E-12 3.466E-04

 At SCF step   13       vres2   =  2.02E-19 < tolvrs=  1.00E-18 =>converged.

 Cartesian components of stress tensor (hartree/bohr^3)
  sigma(1 1)= -6.68382851E-07  sigma(3 2)=  0.00000000E+00
  sigma(2 2)= -6.68382851E-07  sigma(3 1)=  0.00000000E+00
  sigma(3 3)=  2.74297759E-06  sigma(2 1)=  0.00000000E+00


---OUTPUT-----------------------------------------------------------------------

 Cartesian coordinates (xcart) [bohr]
 -2.17517016670024E+00  3.76750524383288E+00  0.00000000000000E+00
  2.17517016670024E+00  3.76750524383288E+00  6.14656526767961E+00
 -2.17517016670024E+00  3.76750524383288E+00  4.61625122596788E+00
  2.17517016670024E+00  3.76750524383288E+00  1.07628164936475E+01
 Reduced coordinates (xred)
  3.33333333333333E-01  6.66666666666667E-01  0.00000000000000E+00
  6.66666666666667E-01  3.33333333333333E-01  5.00000000000000E-01
  3.33333333333333E-01  6.66666666666667E-01  3.75514700074970E-01
  6.66666666666667E-01  3.33333333333333E-01  8.75514700074970E-01
 Cartesian forces (fcart) [Ha/bohr]; max,rms= 3.46551E-04 2.00081E-04 (free atoms)
 -0.00000000000000E+00 -0.00000000000000E+00 -3.46550789586649E-04
 -0.00000000000000E+00 -0.00000000000000E+00 -3.46550789586649E-04
 -0.00000000000000E+00 -0.00000000000000E+00  3.46550789586649E-04
 -0.00000000000000E+00 -0.00000000000000E+00  3.46550789586649E-04
 Reduced forces (fred)
  0.00000000000000E+00  0.00000000000000E+00  4.26021668794034E-03
  0.00000000000000E+00  0.00000000000000E+00  4.26021668794034E-03
  0.00000000000000E+00  0.00000000000000E+00 -4.26017149910061E-03
  0.00000000000000E+00  0.00000000000000E+00 -4.26017149910061E-03
 Scale of Primitive Cell (acell) [bohr]
  7.53501048766576E+00  7.53501048766576E+00  1.22931305353592E+01
 Real space primitive translations (rprimd) [bohr]
  6.52551050010072E+00  3.76750524383288E+00  0.00000000000000E+00
 -6.52551050010072E+00  3.76750524383288E+00  0.00000000000000E+00
  0.00000000000000E+00  0.00000000000000E+00  1.22931305353592E+01
 Unitary Cell Volume (ucvol) [Bohr^3]=  6.04450647550090E+02
 Angles (23,13,12)= [degrees]
  9.00000000000000E+01  9.00000000000000E+01  1.20000000000000E+02
 Lengths [Bohr]
  7.53501048766576E+00  7.53501048766576E+00  1.22931305353592E+01
 Stress tensor in cartesian coordinates (strten) [Ha/bohr^3]
 -6.68382851471555E-07  0.00000000000000E+00  0.00000000000000E+00
  0.00000000000000E+00 -6.68382851468519E-07  0.00000000000000E+00
  0.00000000000000E+00  0.00000000000000E+00  2.74297758827164E-06
 Total energy (etotal) [Ha]= -2.02709400957957E+01

 Difference of energy with previous step (new-old):
           Absolute (Ha)=-4.34167E-07
           Relative     =-2.14182E-08

--- Iteration: ( 5/12) Internal Cycle: (1/1)
--------------------------------------------------------------------------------

---SELF-CONSISTENT-FIELD CONVERGENCE--------------------------------------------

     iter   Etot(hartree)      deltaE(h)  residm     vres2    diffor    maxfor
 ETOT  1  -20.270942012990    -2.027E+01 6.890E-10 1.134E-03 1.908E-04 1.558E-04
 ETOT  2  -20.270943499674    -1.487E-06 9.499E-13 4.154E-05 3.163E-05 1.242E-04
 ETOT  3  -20.270943517028    -1.735E-08 2.232E-10 4.277E-05 3.180E-06 1.273E-04
 ETOT  4  -20.270943561959    -4.493E-08 4.821E-10 4.091E-06 5.698E-06 1.330E-04
 ETOT  5  -20.270943566846    -4.887E-09 5.168E-11 5.197E-07 2.360E-06 1.307E-04
 ETOT  6  -20.270943567499    -6.532E-10 3.309E-12 2.922E-07 6.173E-07 1.313E-04
 ETOT  7  -20.270943567675    -1.759E-10 4.601E-13 4.132E-08 3.308E-07 1.310E-04
 ETOT  8  -20.270943567702    -2.688E-11 1.358E-13 8.982E-11 8.417E-08 1.309E-04
 ETOT  9  -20.270943567702    -5.329E-14 2.425E-16 1.291E-11 7.952E-09 1.309E-04
 ETOT 10  -20.270943567702    -7.461E-14 4.734E-17 1.959E-12 4.113E-09 1.309E-04
 ETOT 11  -20.270943567702    -3.908E-14 6.168E-17 1.819E-13 7.557E-09 1.309E-04
 ETOT 12  -20.270943567702    -5.329E-14 2.257E-18 3.194E-15 1.377E-09 1.309E-04
 ETOT 13  -20.270943567702     1.457E-13 1.521E-20 5.180E-16 6.645E-11 1.309E-04
 ETOT 14  -20.270943567702    -1.776E-14 7.010E-21 4.095E-17 3.528E-11 1.309E-04
 ETOT 15  -20.270943567702    -8.171E-14 4.923E-22 5.798E-19 8.052E-12 1.309E-04

 At SCF step   15       vres2   =  5.80E-19 < tolvrs=  1.00E-18 =>converged.

 Cartesian components of stress tensor (hartree/bohr^3)
  sigma(1 1)=  9.30686856E-07  sigma(3 2)=  0.00000000E+00
  sigma(2 2)=  9.30686856E-07  sigma(3 1)=  0.00000000E+00
  sigma(3 3)= -6.14419513E-07  sigma(2 1)=  0.00000000E+00


---OUTPUT-----------------------------------------------------------------------

 Cartesian coordinates (xcart) [bohr]
 -2.17648621592446E+00  3.76978470795449E+00  0.00000000000000E+00
  2.17648621592446E+00  3.76978470795449E+00  6.13891193335526E+00
 -2.17648621592446E+00  3.76978470795449E+00  4.61629098076726E+00
  2.17648621592446E+00  3.76978470795449E+00  1.07552029141225E+01
 Reduced coordinates (xred)
  3.33333333333333E-01  6.66666666666667E-01  0.00000000000000E+00
  6.66666666666667E-01  3.33333333333333E-01  5.00000000000000E-01
  3.33333333333333E-01  6.66666666666667E-01  3.75986089300698E-01
  6.66666666666667E-01  3.33333333333333E-01  8.75986089300697E-01
 Cartesian forces (fcart) [Ha/bohr]; max,rms= 1.30873E-04 7.55596E-05 (free atoms)
  2.57991790064426E-32  4.46854888327230E-32 -1.30872995772104E-04
  2.57991790064426E-32  4.46854888327230E-32 -1.30872995772104E-04
  2.57991790064426E-32  4.46854888327230E-32  1.30872995772104E-04
 -7.73975370193279E-32 -1.34056466498169E-31  1.30872995772104E-04
 Reduced forces (fred)
  0.00000000000000E+00  0.00000000000000E+00  1.60685978811477E-03
  0.00000000000000E+00  0.00000000000000E+00  1.60685978811477E-03
  0.00000000000000E+00  0.00000000000000E+00 -1.60681139388250E-03
  1.34763737975256E-30  0.00000000000000E+00 -1.60681139388250E-03
 Scale of Primitive Cell (acell) [bohr]
  7.53956941590898E+00  7.53956941590898E+00  1.22778238667105E+01
 Real space primitive translations (rprimd) [bohr]
  6.52945864777338E+00  3.76978470795449E+00  0.00000000000000E+00
 -6.52945864777338E+00  3.76978470795449E+00  0.00000000000000E+00
  0.00000000000000E+00  0.00000000000000E+00  1.22778238667105E+01
 Unitary Cell Volume (ucvol) [Bohr^3]=  6.04428757027650E+02
 Angles (23,13,12)= [degrees]
  9.00000000000000E+01  9.00000000000000E+01  1.20000000000000E+02
 Lengths [Bohr]
  7.53956941590898E+00  7.53956941590898E+00  1.22778238667105E+01
 Stress tensor in cartesian coordinates (strten) [Ha/bohr^3]
  9.30686855971519E-07  0.00000000000000E+00  0.00000000000000E+00
  0.00000000000000E+00  9.30686855973688E-07  0.00000000000000E+00
  0.00000000000000E+00  0.00000000000000E+00 -6.14419513225283E-07
 Total energy (etotal) [Ha]= -2.02709435677024E+01

 Difference of energy with previous step (new-old):
           Absolute (Ha)=-3.47191E-06
           Relative     =-1.71275E-07

--- Iteration: ( 6/12) Internal Cycle: (1/1)
--------------------------------------------------------------------------------

---SELF-CONSISTENT-FIELD CONVERGENCE--------------------------------------------

     iter   Etot(hartree)      deltaE(h)  residm     vres2    diffor    maxfor
 ETOT  1  -20.270943631891    -2.027E+01 5.788E-12 2.529E-05 2.219E-05 1.087E-04
 ETOT  2  -20.270943667167    -3.528E-08 6.470E-14 2.350E-06 2.057E-05 8.811E-05
 ETOT  3  -20.270943670292    -3.125E-09 2.280E-11 1.212E-06 4.592E-06 9.270E-05
 ETOT  4  -20.270943671357    -1.065E-09 3.143E-12 9.721E-08 2.206E-06 9.050E-05
 ETOT  5  -20.270943671419    -6.187E-11 4.172E-13 3.041E-08 8.660E-07 8.963E-05
 ETOT  6  -20.270943671438    -1.969E-11 5.055E-13 3.117E-09 1.107E-06 9.074E-05
 ETOT  7  -20.270943671441    -2.355E-12 4.217E-14 1.301E-10 2.113E-07 9.053E-05
 ETOT  8  -20.270943671441    -1.847E-13 1.301E-15 1.496E-11 3.286E-08 9.056E-05
 ETOT  9  -20.270943671441     4.974E-14 1.736E-16 1.342E-12 9.172E-09 9.055E-05
 ETOT 10  -20.270943671441     8.171E-14 1.887E-17 2.225E-13 3.020E-09 9.055E-05
 ETOT 11  -20.270943671441     3.197E-14 1.344E-18 1.993E-13 8.185E-10 9.055E-05
 ETOT 12  -20.270943671441    -9.948E-14 1.925E-19 2.281E-14 2.132E-10 9.055E-05
 ETOT 13  -20.270943671441     2.132E-14 5.322E-20 4.137E-17 3.556E-11 9.055E-05
 ETOT 14  -20.270943671441    -1.421E-14 1.552E-21 1.358E-18 3.984E-11 9.055E-05
 ETOT 15  -20.270943671441    -4.263E-14 3.058E-24 1.731E-19 1.876E-12 9.055E-05

 At SCF step   15       vres2   =  1.73E-19 < tolvrs=  1.00E-18 =>converged.

 Cartesian components of stress tensor (hartree/bohr^3)
  sigma(1 1)=  4.48429595E-07  sigma(3 2)=  0.00000000E+00
  sigma(2 2)=  4.48429595E-07  sigma(3 1)=  0.00000000E+00
  sigma(3 3)= -9.46578111E-07  sigma(2 1)=  0.00000000E+00


---OUTPUT-----------------------------------------------------------------------

 Cartesian coordinates (xcart) [bohr]
 -2.17640916486318E+00  3.76965125160157E+00  0.00000000000000E+00
  2.17640916486318E+00  3.76965125160157E+00  6.13830615839015E+00
 -2.17640916486318E+00  3.76965125160157E+00  4.61638091633155E+00
  2.17640916486318E+00  3.76965125160157E+00  1.07546870747217E+01
 Reduced coordinates (xred)
  3.33333333333333E-01  6.66666666666667E-01  0.00000000000000E+00
  6.66666666666667E-01  3.33333333333333E-01  5.00000000000000E-01
  3.33333333333333E-01  6.66666666666667E-01  3.76030520245528E-01
  6.66666666666667E-01  3.33333333333333E-01  8.76030520245527E-01
 Cartesian forces (fcart) [Ha/bohr]; max,rms= 9.05539E-05 5.22813E-05 (free atoms)
 -0.00000000000000E+00 -0.00000000000000E+00 -9.05538989181888E-05
 -0.00000000000000E+00 -0.00000000000000E+00 -9.05538989181888E-05
 -0.00000000000000E+00 -0.00000000000000E+00  9.05538989181888E-05
 -0.00000000000000E+00 -0.00000000000000E+00  9.05538989181888E-05
 Reduced forces (fred)
  0.00000000000000E+00  0.00000000000000E+00  1.11171964435620E-03
  0.00000000000000E+00  0.00000000000000E+00  1.11171964435620E-03
  0.00000000000000E+00  0.00000000000000E+00 -1.11167057722683E-03
  0.00000000000000E+00  0.00000000000000E+00 -1.11167057722683E-03
 Scale of Primitive Cell (acell) [bohr]
  7.53930250320315E+00  7.53930250320315E+00  1.22766123167803E+01
 Real space primitive translations (rprimd) [bohr]
  6.52922749458954E+00  3.76965125160157E+00  0.00000000000000E+00
 -6.52922749458954E+00  3.76965125160157E+00  0.00000000000000E+00
  0.00000000000000E+00  0.00000000000000E+00  1.22766123167803E+01
 Unitary Cell Volume (ucvol) [Bohr^3]=  6.04326322773170E+02
 Angles (23,13,12)= [degrees]
  9.00000000000000E+01  9.00000000000000E+01  1.20000000000000E+02
 Lengths [Bohr]
  7.53930250320315E+00  7.53930250320315E+00  1.22766123167803E+01
 Stress tensor in cartesian coordinates (strten) [Ha/bohr^3]
  4.48429595267894E-07  0.00000000000000E+00  0.00000000000000E+00
  0.00000000000000E+00  4.48429595268762E-07  0.00000000000000E+00
  0.00000000000000E+00  0.00000000000000E+00 -9.46578111487000E-07
 Total energy (etotal) [Ha]= -2.02709436714410E+01

 Difference of energy with previous step (new-old):
           Absolute (Ha)=-1.03739E-07
           Relative     =-5.11760E-09

--- Iteration: ( 7/12) Internal Cycle: (1/1)
--------------------------------------------------------------------------------

---SELF-CONSISTENT-FIELD CONVERGENCE--------------------------------------------

     iter   Etot(hartree)      deltaE(h)  residm     vres2    diffor    maxfor
 ETOT  1  -20.270943709222    -2.027E+01 1.586E-12 1.579E-05 2.060E-05 6.996E-05
 ETOT  2  -20.270943732446    -2.322E-08 2.891E-14 6.848E-07 2.644E-05 4.352E-05
 ETOT  3  -20.270943733054    -6.077E-10 9.254E-12 5.171E-07 3.645E-06 4.716E-05
 ETOT  4  -20.270943733598    -5.442E-10 3.813E-12 4.358E-08 2.110E-06 4.505E-05
 ETOT  5  -20.270943733636    -3.810E-11 2.258E-13 3.791E-09 1.447E-07 4.491E-05
 ETOT  6  -20.270943733639    -2.959E-12 1.293E-14 5.122E-10 5.350E-09 4.490E-05
 ETOT  7  -20.270943733639     6.040E-14 1.080E-16 5.930E-10 9.193E-10 4.490E-05
 ETOT  8  -20.270943733639    -3.482E-13 1.082E-15 7.493E-11 4.120E-10 4.490E-05
 ETOT  9  -20.270943733639     4.619E-14 1.371E-16 2.372E-13 6.903E-10 4.490E-05
 ETOT 10  -20.270943733639    -6.395E-14 3.879E-19 1.191E-14 5.326E-10 4.490E-05
 ETOT 11  -20.270943733639     6.395E-14 2.082E-20 8.270E-16 8.948E-11 4.490E-05
 ETOT 12  -20.270943733639    -3.553E-15 2.235E-21 8.820E-17 5.496E-11 4.490E-05
 ETOT 13  -20.270943733639    -1.172E-13 4.102E-22 7.552E-18 2.318E-12 4.490E-05
 ETOT 14  -20.270943733639     9.948E-14 3.312E-23 9.605E-19 2.921E-12 4.490E-05

 At SCF step   14       vres2   =  9.60E-19 < tolvrs=  1.00E-18 =>converged.

 Cartesian components of stress tensor (hartree/bohr^3)
  sigma(1 1)=  1.55102104E-08  sigma(3 2)=  0.00000000E+00
  sigma(2 2)=  1.55102104E-08  sigma(3 1)=  0.00000000E+00
  sigma(3 3)= -8.30604669E-07  sigma(2 1)=  0.00000000E+00


---OUTPUT-----------------------------------------------------------------------

 Cartesian coordinates (xcart) [bohr]
 -2.17631710057351E+00  3.76949179157431E+00  0.00000000000000E+00
  2.17631710057351E+00  3.76949179157431E+00  6.13822611594120E+00
 -2.17631710057351E+00  3.76949179157431E+00  4.61674405515571E+00
  2.17631710057351E+00  3.76949179157431E+00  1.07549701710969E+01
 Reduced coordinates (xred)
  3.33333333333333E-01  6.66666666666667E-01  0.00000000000000E+00
  6.66666666666667E-01  3.33333333333333E-01  5.00000000000000E-01
  3.33333333333333E-01  6.66666666666667E-01  3.76065003793674E-01
  6.66666666666667E-01  3.33333333333333E-01  8.76065003793673E-01
 Cartesian forces (fcart) [Ha/bohr]; max,rms= 4.49008E-05 2.59235E-05 (free atoms)
  4.65679902488796E-32 -8.06581251174315E-32 -4.49008108699720E-05
  4.65679902488796E-32 -8.06581251174315E-32 -4.49008108699720E-05
  4.65679902488796E-32 -8.06581251174315E-32  4.49008108699720E-05
 -1.39703970746639E-31  2.41974375352295E-31  4.49008108699720E-05
 Reduced forces (fred)
  0.00000000000000E+00  0.00000000000000E+00  5.51247434057619E-04
  0.00000000000000E+00  0.00000000000000E+00  5.51247434057619E-04
  0.00000000000000E+00  0.00000000000000E+00 -5.51197885578377E-04
  0.00000000000000E+00 -2.43232112443145E-30 -5.51197885578377E-04
 Scale of Primitive Cell (acell) [bohr]
  7.53898358314862E+00  7.53898358314862E+00  1.22764522318824E+01
 Real space primitive translations (rprimd) [bohr]
  6.52895130172054E+00  3.76949179157431E+00  0.00000000000000E+00
 -6.52895130172054E+00  3.76949179157431E+00  0.00000000000000E+00
  0.00000000000000E+00  0.00000000000000E+00  1.22764522318824E+01
 Unitary Cell Volume (ucvol) [Bohr^3]=  6.04267316991992E+02
 Angles (23,13,12)= [degrees]
  9.00000000000000E+01  9.00000000000000E+01  1.20000000000000E+02
 Lengths [Bohr]
  7.53898358314862E+00  7.53898358314862E+00  1.22764522318824E+01
 Stress tensor in cartesian coordinates (strten) [Ha/bohr^3]
  1.55102104441168E-08  0.00000000000000E+00  0.00000000000000E+00
  0.00000000000000E+00  1.55102104458515E-08  0.00000000000000E+00
  0.00000000000000E+00  0.00000000000000E+00 -8.30604668679985E-07
 Total energy (etotal) [Ha]= -2.02709437336391E+01

 Difference of energy with previous step (new-old):
           Absolute (Ha)=-6.21981E-08
           Relative     =-3.06834E-09

--- Iteration: ( 8/12) Internal Cycle: (1/1)
--------------------------------------------------------------------------------

---SELF-CONSISTENT-FIELD CONVERGENCE--------------------------------------------

     iter   Etot(hartree)      deltaE(h)  residm     vres2    diffor    maxfor
 ETOT  1  -20.270943754190    -2.027E+01 1.674E-12 6.476E-06 1.342E-05 3.148E-05
 ETOT  2  -20.270943763129    -8.939E-09 1.646E-14 1.190E-07 2.217E-05 9.312E-06
 ETOT  3  -20.270943763322    -1.936E-10 7.072E-12 8.719E-09 2.635E-06 1.195E-05
 ETOT  4  -20.270943763334    -1.161E-11 4.617E-13 5.391E-10 6.053E-07 1.134E-05
 ETOT  5  -20.270943763333     6.963E-13 9.781E-15 1.835E-09 5.143E-08 1.139E-05
 ETOT  6  -20.270943763334    -1.275E-12 3.187E-15 3.712E-10 5.354E-08 1.145E-05
 ETOT  7  -20.270943763335    -2.274E-13 1.921E-15 3.729E-12 1.757E-09 1.145E-05
 ETOT  8  -20.270943763335     0.000E+00 6.303E-18 3.666E-13 6.677E-11 1.145E-05
 ETOT  9  -20.270943763335     4.263E-14 4.947E-19 1.863E-14 7.124E-10 1.145E-05
 ETOT 10  -20.270943763335     1.421E-14 4.492E-20 2.207E-15 7.313E-11 1.145E-05
 ETOT 11  -20.270943763335    -1.812E-13 3.223E-21 3.235E-16 1.255E-11 1.145E-05
 ETOT 12  -20.270943763335     9.592E-14 1.042E-22 2.015E-16 3.182E-12 1.145E-05
 ETOT 13  -20.270943763335     6.040E-14 7.234E-22 2.218E-17 8.215E-13 1.145E-05
 ETOT 14  -20.270943763335    -7.461E-14 6.089E-23 7.838E-20 1.831E-13 1.145E-05

 At SCF step   14       vres2   =  7.84E-20 < tolvrs=  1.00E-18 =>converged.

 Cartesian components of stress tensor (hartree/bohr^3)
  sigma(1 1)= -1.23192444E-07  sigma(3 2)=  0.00000000E+00
  sigma(2 2)= -1.23192444E-07  sigma(3 1)=  0.00000000E+00
  sigma(3 3)= -4.23321438E-07  sigma(2 1)=  0.00000000E+00


---OUTPUT-----------------------------------------------------------------------

 Cartesian coordinates (xcart) [bohr]
 -2.17628571197702E+00  3.76943742493040E+00  0.00000000000000E+00
  2.17628571197702E+00  3.76943742493040E+00  6.13850800263299E+00
 -2.17628571197702E+00  3.76943742493040E+00  4.61719101275910E+00
  2.17628571197702E+00  3.76943742493040E+00  1.07556990153921E+01
 Reduced coordinates (xred)
  3.33333333333333E-01  6.66666666666667E-01  0.00000000000000E+00
  6.66666666666667E-01  3.33333333333333E-01  5.00000000000000E-01
  3.33333333333333E-01  6.66666666666667E-01  3.76084140541858E-01
  6.66666666666667E-01  3.33333333333333E-01  8.76084140541857E-01
 Cartesian forces (fcart) [Ha/bohr]; max,rms= 1.14492E-05 6.61018E-06 (free atoms)
  5.53789492860049E-32 -9.59191538331408E-32 -1.14491698521875E-05
  5.53789492860049E-32 -9.59191538331408E-32 -1.14491698521875E-05
 -2.51722496754568E-32  4.35996153787004E-32  1.14491698521875E-05
 -8.55856488965531E-32  1.48238692287581E-31  1.14491698521875E-05
 Reduced forces (fred)
  0.00000000000000E+00  0.00000000000000E+00  1.40586433919058E-04
  0.00000000000000E+00  0.00000000000000E+00  1.40586433919058E-04
  0.00000000000000E+00 -1.05181454029468E-30 -1.40536849125570E-04
  0.00000000000000E+00 -1.84067544551569E-30 -1.40536849125570E-04
 Scale of Primitive Cell (acell) [bohr]
  7.53887484986080E+00  7.53887484986080E+00  1.22770160052660E+01
 Real space primitive translations (rprimd) [bohr]
  6.52885713593105E+00  3.76943742493040E+00  0.00000000000000E+00
 -6.52885713593105E+00  3.76943742493040E+00  0.00000000000000E+00
  0.00000000000000E+00  0.00000000000000E+00  1.22770160052660E+01
 Unitary Cell Volume (ucvol) [Bohr^3]=  6.04277635718172E+02
 Angles (23,13,12)= [degrees]
  9.00000000000000E+01  9.00000000000000E+01  1.20000000000000E+02
 Lengths [Bohr]
  7.53887484986080E+00  7.53887484986080E+00  1.22770160052660E+01
 Stress tensor in cartesian coordinates (strten) [Ha/bohr^3]
 -1.23192444300389E-07  0.00000000000000E+00  0.00000000000000E+00
  0.00000000000000E+00 -1.23192444296920E-07  0.00000000000000E+00
  0.00000000000000E+00  0.00000000000000E+00 -4.23321437660606E-07
 Total energy (etotal) [Ha]= -2.02709437633347E+01

 Difference of energy with previous step (new-old):
           Absolute (Ha)=-2.96956E-08
           Relative     =-1.46494E-09

--- Iteration: ( 9/12) Internal Cycle: (1/1)
--------------------------------------------------------------------------------

---SELF-CONSISTENT-FIELD CONVERGENCE--------------------------------------------

     iter   Etot(hartree)      deltaE(h)  residm     vres2    diffor    maxfor
 ETOT  1  -20.270943767564    -2.027E+01 3.801E-13 3.214E-06 4.409E-06 7.040E-06
 ETOT  2  -20.270943771815    -4.251E-09 3.050E-15 1.362E-07 9.224E-06 2.183E-06
 ETOT  3  -20.270943771981    -1.656E-10 1.374E-12 1.538E-08 5.261E-07 1.657E-06
 ETOT  4  -20.270943771997    -1.654E-11 1.401E-13 1.335E-09 1.375E-07 1.795E-06
 ETOT  5  -20.270943771996     1.137E-12 3.493E-15 3.532E-09 6.468E-09 1.788E-06
 ETOT  6  -20.270943771998    -2.036E-12 4.920E-15 6.905E-10 1.132E-08 1.777E-06
 ETOT  7  -20.270943771999    -5.294E-13 2.226E-15 1.003E-11 9.394E-09 1.786E-06
 ETOT  8  -20.270943771999    -1.137E-13 3.702E-17 1.083E-12 5.185E-09 1.781E-06
 ETOT  9  -20.270943771999     1.883E-13 1.600E-18 1.050E-14 2.512E-10 1.781E-06
 ETOT 10  -20.270943771999    -3.197E-14 3.151E-20 6.850E-15 2.224E-10 1.781E-06
 ETOT 11  -20.270943771999    -3.553E-14 1.613E-20 5.818E-16 2.355E-10 1.781E-06
 ETOT 12  -20.270943771999     6.395E-14 6.468E-22 9.172E-18 3.700E-11 1.781E-06
 ETOT 13  -20.270943771999    -7.461E-14 1.223E-23 1.008E-18 3.107E-12 1.781E-06
 ETOT 14  -20.270943771999     3.553E-15 1.420E-24 2.124E-19 9.865E-13 1.781E-06

 At SCF step   14       vres2   =  2.12E-19 < tolvrs=  1.00E-18 =>converged.

 Cartesian components of stress tensor (hartree/bohr^3)
  sigma(1 1)= -6.32277384E-08  sigma(3 2)=  0.00000000E+00
  sigma(2 2)= -6.32277384E-08  sigma(3 1)=  0.00000000E+00
  sigma(3 3)= -7.04533191E-08  sigma(2 1)=  0.00000000E+00


---OUTPUT-----------------------------------------------------------------------

 Cartesian coordinates (xcart) [bohr]
 -2.17629797667196E+00  3.76945866800518E+00  0.00000000000000E+00
  2.17629797667196E+00  3.76945866800518E+00  6.13881752464334E+00
 -2.17629797667196E+00  3.76945866800518E+00  4.61747625966457E+00
  2.17629797667196E+00  3.76945866800518E+00  1.07562937843079E+01
 Reduced coordinates (xred)
  3.33333333333333E-01  6.66666666666667E-01  0.00000000000000E+00
  6.66666666666667E-01  3.33333333333333E-01  5.00000000000000E-01
  3.33333333333333E-01  6.66666666666667E-01  3.76088411255785E-01
  6.66666666666667E-01  3.33333333333333E-01  8.76088411255784E-01
 Cartesian forces (fcart) [Ha/bohr]; max,rms= 1.78091E-06 1.02821E-06 (free atoms)
  2.26548970337737E-32 -3.92394327027375E-32  1.78090754278017E-06
  2.26548970337737E-32 -3.92394327027375E-32  1.78090754278017E-06
  2.26548970337737E-32 -3.92394327027375E-32 -1.78090754278017E-06
 -6.79646911013211E-32  1.17718298108213E-31 -1.78090754278017E-06
 Reduced forces (fred)
  0.00000000000000E+00  0.00000000000000E+00 -2.18406014529879E-05
  0.00000000000000E+00  0.00000000000000E+00 -2.18406014529879E-05
  0.00000000000000E+00  0.00000000000000E+00  2.18900642805658E-05
  0.00000000000000E+00 -1.18329135783152E-30  2.18900642805658E-05
 Scale of Primitive Cell (acell) [bohr]
  7.53891733601035E+00  7.53891733601035E+00  1.22776350492867E+01
 Real space primitive translations (rprimd) [bohr]
  6.52889393001587E+00  3.76945866800518E+00  0.00000000000000E+00
 -6.52889393001587E+00  3.76945866800518E+00  0.00000000000000E+00
  0.00000000000000E+00  0.00000000000000E+00  1.22776350492867E+01
 Unitary Cell Volume (ucvol) [Bohr^3]=  6.04314916518859E+02
 Angles (23,13,12)= [degrees]
  9.00000000000000E+01  9.00000000000000E+01  1.20000000000000E+02
 Lengths [Bohr]
  7.53891733601035E+00  7.53891733601035E+00  1.22776350492867E+01
 Stress tensor in cartesian coordinates (strten) [Ha/bohr^3]
 -6.32277383756999E-08  0.00000000000000E+00  0.00000000000000E+00
  0.00000000000000E+00 -6.32277383722304E-08  0.00000000000000E+00
  0.00000000000000E+00  0.00000000000000E+00 -7.04533190815093E-08
 Total energy (etotal) [Ha]= -2.02709437719988E+01

 Difference of energy with previous step (new-old):
           Absolute (Ha)=-8.66407E-09
           Relative     =-4.27413E-10

--- Iteration: (10/12) Internal Cycle: (1/1)
--------------------------------------------------------------------------------

---SELF-CONSISTENT-FIELD CONVERGENCE--------------------------------------------

     iter   Etot(hartree)      deltaE(h)  residm     vres2    diffor    maxfor
 ETOT  1  -20.270943772258    -2.027E+01 6.789E-14 2.192E-07 8.522E-07 9.287E-07
 ETOT  2  -20.270943772543    -2.848E-10 1.860E-16 1.357E-08 1.078E-07 8.209E-07
 ETOT  3  -20.270943772558    -1.531E-11 7.945E-14 1.629E-09 3.071E-08 8.516E-07
 ETOT  4  -20.270943772560    -1.442E-12 8.861E-15 1.541E-10 4.992E-09 8.466E-07
 ETOT  5  -20.270943772560     1.990E-13 3.335E-16 4.750E-10 1.099E-09 8.455E-07
 ETOT  6  -20.270943772560    -2.807E-13 6.926E-16 9.287E-11 1.761E-09 8.472E-07
 ETOT  7  -20.270943772560    -5.329E-14 2.203E-16 1.222E-12 1.059E-10 8.471E-07
 ETOT  8  -20.270943772560    -3.197E-14 3.060E-18 1.396E-13 2.793E-10 8.468E-07
 ETOT  9  -20.270943772560     5.684E-14 1.883E-19 1.882E-15 1.698E-10 8.470E-07
 ETOT 10  -20.270943772560    -1.776E-14 4.537E-21 1.102E-15 2.668E-11 8.470E-07
 ETOT 11  -20.270943772560    -5.684E-14 2.550E-21 9.271E-17 3.208E-11 8.470E-07
 ETOT 12  -20.270943772560     1.066E-13 1.141E-22 7.381E-19 6.147E-12 8.470E-07

 At SCF step   12       vres2   =  7.38E-19 < tolvrs=  1.00E-18 =>converged.

 Cartesian components of stress tensor (hartree/bohr^3)
  sigma(1 1)= -1.02201782E-08  sigma(3 2)=  0.00000000E+00
  sigma(2 2)= -1.02201782E-08  sigma(3 1)=  0.00000000E+00
  sigma(3 3)= -6.35657682E-10  sigma(2 1)=  0.00000000E+00


---OUTPUT-----------------------------------------------------------------------

 Cartesian coordinates (xcart) [bohr]
 -2.17630949720701E+00  3.76947862215722E+00  0.00000000000000E+00
  2.17630949720701E+00  3.76947862215722E+00  6.13889317070756E+00
 -2.17630949720701E+00  3.76947862215722E+00  4.61750969462027E+00
  2.17630949720701E+00  3.76947862215722E+00  1.07564028653278E+01
 Reduced coordinates (xred)
  3.33333333333333E-01  6.66666666666667E-01  0.00000000000000E+00
  6.66666666666667E-01  3.33333333333333E-01  5.00000000000000E-01
  3.33333333333333E-01  6.66666666666667E-01  3.76086500140877E-01
  6.66666666666667E-01  3.33333333333333E-01  8.76086500140876E-01
 Cartesian forces (fcart) [Ha/bohr]; max,rms= 8.47028E-07 4.89032E-07 (free atoms)
 -2.01375796511736E-32 -3.48793110972979E-32  8.47028070580800E-07
 -2.01375796511736E-32 -3.48793110972979E-32  8.47028070580800E-07
  6.04127389535208E-32  1.04637933291894E-31 -8.47028070580800E-07
 -2.01375796511736E-32 -3.48793110972979E-32 -8.47028070580800E-07
 Reduced forces (fred)
  0.00000000000000E+00  0.00000000000000E+00 -1.03749394021053E-05
  0.00000000000000E+00  0.00000000000000E+00 -1.03749394021053E-05
 -1.05181454029468E-30  0.00000000000000E+00  1.04243199494390E-05
  0.00000000000000E+00  0.00000000000000E+00  1.04243199494390E-05
 Scale of Primitive Cell (acell) [bohr]
  7.53895724431444E+00  7.53895724431444E+00  1.22777863414151E+01
 Real space primitive translations (rprimd) [bohr]
  6.52892849162103E+00  3.76947862215722E+00  0.00000000000000E+00
 -6.52892849162103E+00  3.76947862215722E+00  0.00000000000000E+00
  0.00000000000000E+00  0.00000000000000E+00  1.22777863414151E+01
 Unitary Cell Volume (ucvol) [Bohr^3]=  6.04328761382545E+02
 Angles (23,13,12)= [degrees]
  9.00000000000000E+01  9.00000000000000E+01  1.20000000000000E+02
 Lengths [Bohr]
  7.53895724431444E+00  7.53895724431444E+00  1.22777863414151E+01
 Stress tensor in cartesian coordinates (strten) [Ha/bohr^3]
 -1.02201782449345E-08  0.00000000000000E+00  0.00000000000000E+00
  0.00000000000000E+00 -1.02201782414650E-08  0.00000000000000E+00
  0.00000000000000E+00  0.00000000000000E+00 -6.35657681873070E-10
 Total energy (etotal) [Ha]= -2.02709437725599E+01

 Difference of energy with previous step (new-old):
           Absolute (Ha)=-5.61155E-10
           Relative     =-2.76827E-11

--- Iteration: (11/12) Internal Cycle: (1/1)
--------------------------------------------------------------------------------

---SELF-CONSISTENT-FIELD CONVERGENCE--------------------------------------------

     iter   Etot(hartree)      deltaE(h)  residm     vres2    diffor    maxfor
 ETOT  1  -20.270943772569    -2.027E+01 1.110E-15 3.394E-09 3.936E-07 4.534E-07
 ETOT  2  -20.270943772573    -4.643E-12 7.150E-18 1.379E-10 3.893E-07 6.411E-08
 ETOT  3  -20.270943772573    -1.137E-13 1.075E-15 1.786E-11 1.422E-08 7.833E-08
 ETOT  4  -20.270943772573    -7.105E-14 6.504E-17 1.939E-12 5.382E-09 7.295E-08
 ETOT  5  -20.270943772573     3.553E-15 2.631E-18 2.983E-13 2.088E-10 7.316E-08
 ETOT  6  -20.270943772573     3.553E-15 2.730E-19 3.302E-13 2.163E-10 7.337E-08
 ETOT  7  -20.270943772573    -3.908E-14 1.674E-18 3.105E-14 3.674E-10 7.301E-08
 ETOT  8  -20.270943772573     4.263E-14 9.183E-20 5.462E-16 6.144E-11 7.307E-08
 ETOT  9  -20.270943772573    -4.619E-14 2.465E-21 4.074E-17 2.524E-11 7.304E-08
 ETOT 10  -20.270943772573     5.329E-14 2.213E-22 1.315E-18 2.021E-11 7.306E-08
 ETOT 11  -20.270943772573     2.487E-14 2.564E-23 1.117E-19 4.671E-12 7.306E-08

 At SCF step   11       vres2   =  1.12E-19 < tolvrs=  1.00E-18 =>converged.

 Cartesian components of stress tensor (hartree/bohr^3)
  sigma(1 1)= -3.76827638E-10  sigma(3 2)=  0.00000000E+00
  sigma(2 2)= -3.76827636E-10  sigma(3 1)=  0.00000000E+00
  sigma(3 3)=  7.81468539E-10  sigma(2 1)=  0.00000000E+00


---OUTPUT-----------------------------------------------------------------------

 Cartesian coordinates (xcart) [bohr]
 -2.17631167224706E+00  3.76948238943709E+00  0.00000000000000E+00
  2.17631167224706E+00  3.76948238943709E+00  6.13889775549333E+00
 -2.17631167224706E+00  3.76948238943709E+00  4.61750548147552E+00
  2.17631167224706E+00  3.76948238943709E+00  1.07564032369688E+01
 Reduced coordinates (xred)
  3.33333333333333E-01  6.66666666666667E-01  0.00000000000000E+00
  6.66666666666667E-01  3.33333333333333E-01  5.00000000000000E-01
  3.33333333333333E-01  6.66666666666667E-01  3.76085876112173E-01
  6.66666666666667E-01  3.33333333333333E-01  8.76085876112172E-01
 Cartesian forces (fcart) [Ha/bohr]; max,rms= 7.30575E-08 4.21798E-08 (free atoms)
 -2.32840532011980E-32  8.71981905959172E-32  7.30575017991822E-08
 -2.32840532011980E-32  8.71981905959172E-32  7.30575017991822E-08
  5.72661849002437E-32  2.26715295549385E-31 -7.30575017991822E-08
 -1.06980784978477E-32 -4.01111676741219E-31 -7.30575017991822E-08
 Reduced forces (fred)
  0.00000000000000E+00  0.00000000000000E+00 -8.72299544596925E-07
  0.00000000000000E+00  0.00000000000000E+00 -8.72299544596925E-07
 -1.05181454029468E-30  0.00000000000000E+00  9.21670590670872E-07
  1.75850243455517E-30  1.92284845647622E-30  9.21670590670872E-07
 Scale of Primitive Cell (acell) [bohr]
  7.53896477887418E+00  7.53896477887418E+00  1.22777955109867E+01
 Real space primitive translations (rprimd) [bohr]
  6.52893501674117E+00  3.76948238943709E+00  0.00000000000000E+00
 -6.52893501674117E+00  3.76948238943709E+00  0.00000000000000E+00
  0.00000000000000E+00  0.00000000000000E+00  1.22777955109867E+01
 Unitary Cell Volume (ucvol) [Bohr^3]=  6.04330420674907E+02
 Angles (23,13,12)= [degrees]
  9.00000000000000E+01  9.00000000000000E+01  1.20000000000000E+02
 Lengths [Bohr]
  7.53896477887418E+00  7.53896477887418E+00  1.22777955109867E+01
 Stress tensor in cartesian coordinates (strten) [Ha/bohr^3]
 -3.76827637670052E-10  0.00000000000000E+00  0.00000000000000E+00
  0.00000000000000E+00 -3.76827635501648E-10  0.00000000000000E+00
  0.00000000000000E+00  0.00000000000000E+00  7.81468539184926E-10
 Total energy (etotal) [Ha]= -2.02709437725733E+01

 Difference of energy with previous step (new-old):
           Absolute (Ha)=-1.33547E-11
           Relative     =-6.58808E-13

 At Broyd/MD step  11, gradients are converged : 
  max grad (force/stress) = 7.8147E-08 < tolmxf= 1.0000E-06 ha/bohr (free atoms)

================================================================================

 ----iterations are completed or convergence reached----

 Mean square residual over all n,k,spin=   9.9655E-24; max=  2.5641E-23
   0.0000  0.0000  0.1250    1  2.10165E-23 kpt; spin; max resid(k); each band:
  2.00E-23 1.00E-23 1.00E-23 1.02E-25 1.02E-25 2.10E-23 8.47E-26 8.47E-26
   0.2500  0.0000  0.1250    1  2.56406E-23 kpt; spin; max resid(k); each band:
  2.31E-23 1.37E-23 1.01E-23 5.81E-24 6.24E-24 1.43E-25 2.56E-23 3.96E-26
   0.5000  0.0000  0.1250    1  2.17940E-23 kpt; spin; max resid(k); each band:
  2.18E-23 1.84E-23 2.56E-24 1.85E-24 1.60E-23 1.17E-25 2.07E-23 3.14E-26
   0.2500  0.2500  0.1250    1  2.37625E-23 kpt; spin; max resid(k); each band:
  2.38E-23 1.93E-23 4.28E-24 3.84E-24 1.34E-24 1.60E-23 2.05E-25 2.27E-23
   0.0000  0.0000  0.3750    1  1.40237E-23 kpt; spin; max resid(k); each band:
  1.40E-23 1.13E-23 1.14E-23 1.40E-23 2.67E-26 2.67E-26 6.06E-26 6.06E-26
   0.2500  0.0000  0.3750    1  1.83781E-23 kpt; spin; max resid(k); each band:
  1.84E-23 1.48E-23 1.07E-23 9.16E-24 9.09E-24 1.57E-25 1.63E-23 2.48E-26
   0.5000  0.0000  0.3750    1  2.42763E-23 kpt; spin; max resid(k); each band:
  2.43E-23 2.02E-23 3.92E-24 3.79E-24 1.68E-23 1.30E-25 1.69E-26 2.15E-23
   0.2500  0.2500  0.3750    1  2.48102E-23 kpt; spin; max resid(k); each band:
  2.48E-23 2.09E-23 6.19E-24 6.22E-24 1.08E-24 1.48E-24 1.62E-23 2.15E-23
 reduced coordinates (array xred) for    4 atoms
       0.333333333333      0.666666666667      0.000000000000
       0.666666666667      0.333333333333      0.500000000000
       0.333333333333      0.666666666667      0.376085876112
       0.666666666667      0.333333333333      0.876085876112
 rms dE/dt=  5.1807E-07; max dE/dt=  9.2167E-07; dE/dt below (all hartree)
    1       0.000000000000      0.000000000000     -0.000000872300
    2       0.000000000000      0.000000000000     -0.000000872300
    3      -0.000000000000      0.000000000000      0.000000921671
    4       0.000000000000      0.000000000000      0.000000921671

 cartesian coordinates (angstrom) at end:
    1     -1.15165453574153     1.99472416867148     0.00000000000000
    2      1.15165453574153     1.99472416867148     3.24856477807137
    3     -1.15165453574153     1.99472416867148     2.44347866133624
    4      1.15165453574153     1.99472416867148     5.69204343940761

 cartesian forces (hartree/bohr) at end:
    1     -0.00000000000000     0.00000000000000     0.00000007305750
    2     -0.00000000000000     0.00000000000000     0.00000007305750
    3      0.00000000000000     0.00000000000000    -0.00000007305750
    4     -0.00000000000000    -0.00000000000000    -0.00000007305750
 frms,max,avg= 4.2179768E-08 7.3057502E-08   0.000E+00  0.000E+00 -2.011E-09 h/b

 cartesian forces (eV/Angstrom) at end:
    1     -0.00000000000000     0.00000000000000     0.00000375676747
    2     -0.00000000000000     0.00000000000000     0.00000375676747
    3      0.00000000000000     0.00000000000000    -0.00000375676747
    4     -0.00000000000000    -0.00000000000000    -0.00000375676747
 frms,max,avg= 2.1689707E-06 3.7567675E-06   0.000E+00  0.000E+00 -1.034E-07 e/A
 length scales=  7.538964778874  7.538964778874 12.277795510987 bohr
              =  3.989448337343  3.989448337343  6.497129556143 angstroms
 prteigrs : about to open file telast_1o_DS2_EIG
 Fermi (or HOMO) energy (hartree) =   0.08616   Average Vxc (hartree)=  -0.34268
 Eigenvalues (hartree) for nkpt=   8  k points:
 kpt#   1, nband=  8, wtk=  0.03125, kpt=  0.0000  0.0000  0.1250 (reduced coord)
  -0.35501  -0.30563  -0.11714   0.05113   0.05113   0.06669   0.08616   0.08616
 kpt#   2, nband=  8, wtk=  0.18750, kpt=  0.2500  0.0000  0.1250 (reduced coord)
  -0.33586  -0.29258  -0.10547  -0.03924  -0.02013   0.02274   0.05953   0.06705
 kpt#   3, nband=  8, wtk=  0.09375, kpt=  0.5000  0.0000  0.1250 (reduced coord)
  -0.30400  -0.28360  -0.12000  -0.09157  -0.03886   0.00386   0.01546   0.05100
 kpt#   4, nband=  8, wtk=  0.18750, kpt=  0.2500  0.2500  0.1250 (reduced coord)
  -0.30598  -0.28219  -0.10698  -0.07993  -0.04120  -0.03242   0.00996   0.02544
 kpt#   5, nband=  8, wtk=  0.03125, kpt=  0.0000  0.0000  0.3750 (reduced coord)
  -0.34370  -0.32404  -0.07358  -0.00616   0.05993   0.05993   0.07422   0.07422
 kpt#   6, nband=  8, wtk=  0.18750, kpt=  0.2500  0.0000  0.3750 (reduced coord)
  -0.32559  -0.30819  -0.08220  -0.05101  -0.00951   0.03311   0.03645   0.05086
 kpt#   7, nband=  8, wtk=  0.09375, kpt=  0.5000  0.0000  0.3750 (reduced coord)
  -0.29789  -0.28933  -0.12394  -0.11248   0.00170   0.01474   0.03355   0.03500
 kpt#   8, nband=  8, wtk=  0.18750, kpt=  0.2500  0.2500  0.3750 (reduced coord)
  -0.29924  -0.28933  -0.11044  -0.09876  -0.03198  -0.01162   0.01059   0.04345
 Total charge density [el/Bohr^3]
,     Maximum=    9.5489E-02  at reduced coord.    0.8889    0.4444    0.9000
,Next maximum=    9.5489E-02  at reduced coord.    0.5556    0.4444    0.9000
,     Minimum=    1.9877E-03  at reduced coord.    0.0000    0.0000    0.1667
,Next minimum=    1.9877E-03  at reduced coord.    0.0000    0.0000    0.6667
,  Integrated=    1.6000E+01

--------------------------------------------------------------------------------
 Components of total free energy (in Hartree) :

    Kinetic energy  =  5.91947827141601E+00
    Hartree energy  =  1.65285115607192E+00
    XC energy       = -8.68515356317285E+00
    Ewald energy    = -1.68697612368331E+01
    PspCore energy  =  1.45231023396453E+00
    Loc. psp. energy= -4.92404864085054E+00
    NL   psp  energy=  1.18338000683071E+00
    >>>>>>>>> Etotal= -2.02709437725733E+01

 Other information on the energy :
    Total energy(eV)= -5.51600432199968E+02 ; Band energy (Ha)=  -1.4274245107E+00
--------------------------------------------------------------------------------
 rms coord change=  2.5802E-04   atom, delta coord (reduced):
     1        0.000000000000      0.000000000000      0.000000000000
     2        0.000000000000      0.000000000000      0.000000000000
     3        0.000000000000      0.000000000000      0.000632007300
     4        0.000000000000      0.000000000000      0.000632007300

 Cartesian components of stress tensor (hartree/bohr^3)
  sigma(1 1)= -3.76827638E-10  sigma(3 2)=  0.00000000E+00
  sigma(2 2)= -3.76827636E-10  sigma(3 1)=  0.00000000E+00
  sigma(3 3)=  7.81468539E-10  sigma(2 1)=  0.00000000E+00

-Cartesian components of stress tensor (GPa)         [Pressure= -2.7276E-07 GPa]
- sigma(1 1)= -1.10866500E-05  sigma(3 2)=  0.00000000E+00
- sigma(2 2)= -1.10866499E-05  sigma(3 1)=  0.00000000E+00
- sigma(3 3)=  2.29915943E-05  sigma(2 1)=  0.00000000E+00

== END DATASET(S) ==============================================================
================================================================================
  
 -outvars: echo values of variables after computation  --------
            acell1     7.5000000000E+00  7.5000000000E+00  1.2263388000E+01 Bohr
            acell2     7.5389647789E+00  7.5389647789E+00  1.2277795511E+01 Bohr
              amu      2.69815390E+01  7.49215900E+01
           diemac      9.00000000E+00
          dilatmx1     1.00000000E+00
          dilatmx2     1.05000000E+00
             ecut      6.00000000E+00 Hartree
           ecutsm      5.00000000E-01 Hartree
           etotal1    -2.0270828223E+01
           etotal2    -2.0270943773E+01
            fcart1    -4.5544905598E-32  8.7651211691E-33 -1.0674346408E-08
                      -4.5544905598E-32  8.7651211691E-33 -1.0674346408E-08
                       3.5423815465E-32  1.4900705988E-31  1.0674346408E-08
                       5.5665995731E-32 -1.6653730221E-31  1.0674346408E-08
            fcart2    -2.3284053201E-32  8.7198190596E-32  7.3057501799E-08
                      -2.3284053201E-32  8.7198190596E-32  7.3057501799E-08
                       5.7266184900E-32  2.2671529555E-31 -7.3057501799E-08
                      -1.0698078498E-32 -4.0111167674E-31 -7.3057501799E-08
-          fftalg         112
           getwfk1          0
           getwfk2         -1
          getxred1          0
          getxred2         -1
           iatfix        1    2
           ionmov           2
             iscf           5
           jdtset        1    2
              kpt      0.00000000E+00  0.00000000E+00  1.25000000E-01
                       2.50000000E-01  0.00000000E+00  1.25000000E-01
                       5.00000000E-01  0.00000000E+00  1.25000000E-01
                       2.50000000E-01  2.50000000E-01  1.25000000E-01
                       0.00000000E+00  0.00000000E+00  3.75000000E-01
                       2.50000000E-01  0.00000000E+00  3.75000000E-01
                       5.00000000E-01  0.00000000E+00  3.75000000E-01
                       2.50000000E-01  2.50000000E-01  3.75000000E-01
         kptrlatt        4    0    0      0    4    0      0    0    4
P           mkmem           8
           natfix           2
            natom           4
            nband           8
           ndtset           2
            ngfft          18      18      30
             nkpt           8
            nstep          40
             nsym          12
            ntime1          5
            ntime2         12
           ntypat           2
              occ      2.000000  2.000000  2.000000  2.000000  2.000000  2.000000
                       2.000000  2.000000
          optcell1          0
          optcell2          2
        optforces           1
            rprim      8.6602540378E-01  5.0000000000E-01  0.0000000000E+00
                      -8.6602540378E-01  5.0000000000E-01  0.0000000000E+00
                       0.0000000000E+00  0.0000000000E+00  1.0000000000E+00
           shiftk      0.00000000E+00  0.00000000E+00  5.00000000E-01
          spgroup         186
           strten1    -3.5036406185E-05 -3.5036406185E-05 -1.9935924386E-05
                       0.0000000000E+00  0.0000000000E+00  0.0000000000E+00
           strten2    -3.7682763767E-10 -3.7682763550E-10  7.8146853918E-10
                       0.0000000000E+00  0.0000000000E+00  0.0000000000E+00
           symrel      1  0  0   0  1  0   0  0  1       0  1  0   1  0  0   0  0  1
                       1  1  0  -1  0  0   0  0  1      -1  0  0   1  1  0   0  0  1
                       0  1  0  -1 -1  0   0  0  1      -1 -1  0   0  1  0   0  0  1
                      -1  0  0   0 -1  0   0  0  1       0 -1  0  -1  0  0   0  0  1
                      -1 -1  0   1  0  0   0  0  1       1  0  0  -1 -1  0   0  0  1
                       0 -1  0   1  1  0   0  0  1       1  1  0   0 -1  0   0  0  1
            tnons      0.0000000  0.0000000  0.0000000     0.0000000  0.0000000  0.5000000
                      -0.0000000  0.0000000  0.5000000     0.0000000  0.0000000  0.0000000
                       0.0000000 -0.0000000  0.0000000     0.0000000  0.0000000  0.5000000
                       0.0000000  0.0000000  0.5000000     0.0000000  0.0000000  0.0000000
                       0.0000000  0.0000000  0.0000000    -0.0000000  0.0000000  0.5000000
                       0.0000000  0.0000000  0.5000000     0.0000000 -0.0000000  0.0000000
           tolmxf      1.00000000E-06
           tolvrs      1.00000000E-18
            typat      1  1  2  2
              wtk        0.03125    0.18750    0.09375    0.18750    0.03125    0.18750
                         0.09375    0.18750
           xangst1    -1.1457022644E+00  1.9844145322E+00  0.0000000000E+00
                       1.1457022644E+00  1.9844145322E+00  3.2447527148E+00
                      -1.1457022644E+00  1.9844145322E+00  2.4365099203E+00
                       1.1457022644E+00  1.9844145322E+00  5.6812626351E+00
           xangst2    -1.1516545357E+00  1.9947241687E+00  0.0000000000E+00
                       1.1516545357E+00  1.9947241687E+00  3.2485647781E+00
                      -1.1516545357E+00  1.9947241687E+00  2.4434786613E+00
                       1.1516545357E+00  1.9947241687E+00  5.6920434394E+00
            xcart1    -2.1650635095E+00  3.7500000000E+00  0.0000000000E+00
                       2.1650635095E+00  3.7500000000E+00  6.1316940000E+00
                      -2.1650635095E+00  3.7500000000E+00  4.6043364693E+00
                       2.1650635095E+00  3.7500000000E+00  1.0736030469E+01
            xcart2    -2.1763116722E+00  3.7694823894E+00  0.0000000000E+00
                       2.1763116722E+00  3.7694823894E+00  6.1388977555E+00
                      -2.1763116722E+00  3.7694823894E+00  4.6175054815E+00
                       2.1763116722E+00  3.7694823894E+00  1.0756403237E+01
             xred1     3.3333333333E-01  6.6666666667E-01  0.0000000000E+00
                       6.6666666667E-01  3.3333333333E-01  5.0000000000E-01
                       3.3333333333E-01  6.6666666667E-01  3.7545386881E-01
                       6.6666666667E-01  3.3333333333E-01  8.7545386881E-01
             xred2     3.3333333333E-01  6.6666666667E-01  0.0000000000E+00
                       6.6666666667E-01  3.3333333333E-01  5.0000000000E-01
                       3.3333333333E-01  6.6666666667E-01  3.7608587611E-01
                       6.6666666667E-01  3.3333333333E-01  8.7608587611E-01
            znucl       13.00000   33.00000

================================================================================


- Timing analysis has been suppressed with timopt=0



================================================================================

 Suggested references for the acknowledgment of ABINIT usage.

 The users of ABINIT have little formal obligations with respect to the ABINIT group
 (those specified in the GNU General Public License, http://www.gnu.org/copyleft/gpl.txt).
 However, it is common practice in the scientific literature,
 to acknowledge the efforts of people that have made the research possible.
 In this spirit, please find below suggested citations of work written by ABINIT developers,
 corresponding to implementations inside of ABINIT that you have used in the present run.
 Note also that it will be of great value to readers of publications presenting these results,
 to read papers enabling them to understand the theoretical formalism and details
 of the ABINIT implementation.
 For information on why they are suggested, see also http://www.abinit.org/about/?text=acknowledgments.

 [1] ABINIT : First-principles approach of materials and nanosystem properties.
 X. Gonze, B. Amadon, P.-M. Anglade, J.-M. Beuken, F. Bottin, P. Boulanger, F. Bruneval,
 D. Caliste, R. Caracas, M. Cote, T. Deutsch, L. Genovese, Ph. Ghosez, M. Giantomassi
 S. Goedecker, D.R. Hamann, P. Hermet, F. Jollet, G. Jomard, S. Leroux, M. Mancini, S. Mazevet,
 M.J.T. Oliveira, G. Onida, Y. Pouillon, T. Rangel, G.-M. Rignanese, D. Sangalli, R. Shaltaf,
 M. Torrent, M.J. Verstraete, G. Zerah, J.W. Zwanziger
 Computer Phys. Comm. 180, 2582-2615 (2009).
 Comment : the third generic paper describing the ABINIT project.
 Note that a version of this paper, that is not formatted for Computer Phys. Comm. 
 is available at http://www.abinit.org/about/ABINIT_CPC_v10.pdf .
 The licence allows the authors to put it on the Web.

 [2] A brief introduction to the ABINIT software package.
 X. Gonze, G.-M. Rignanese, M. Verstraete, J.-M. Beuken, Y. Pouillon, R. Caracas, F. Jollet,
 M. Torrent, G. Zerah, M. Mikami, Ph. Ghosez, M. Veithen, J.-Y. Raty, V. Olevano, F. Bruneval,
 L. Reining, R. Godby, G. Onida, D.R. Hamann, and D.C. Allan.
 Z. Kristallogr. 220, 558-562 (2005).
 Comment : the second generic paper describing the ABINIT project. Note that this paper
 should be cited especially if you are using the GW part of ABINIT, as several authors
 of this part are not in the list of authors of the first or third paper.
 The .pdf of the latter paper is available at http://www.abinit.org/about/zfk_0505-06_558-562.pdf.
 Note that it should not redistributed (Copyright by Oldenburg Wissenshaftverlag,
 the licence allows the authors to put it on the Web).


 And optionally :

 [3] First-principles computation of material properties : the ABINIT software project. 
 X. Gonze, J.-M. Beuken, R. Caracas, F. Detraux, M. Fuchs, G.-M. Rignanese, L. Sindic,
 M. Verstraete, G. Zerah, F. Jollet, M. Torrent, A. Roy, M. Mikami, Ph. Ghosez, J.-Y. Raty, D.C. Allan.
 Computational Materials Science 25, 478-492 (2002). http://dx.doi.org/10.1016/S0927-0256(02)00325-7
 Comment : the original paper describing the ABINIT project.

 [4] Fast radix 2, 3, 4 and 5 kernels for Fast Fourier Transformations
 on computers with overlapping multiply-add instructions.
 S. Goedecker, SIAM J. on Scientific Computing 18, 1605 (1997).

 [5] Towards a potential-based conjugate gradient algorithm for order-N self-consistent
 total energy calculations.
 X. Gonze, Phys. Rev. B 54, 4383 (1996).
 Comment : The potential-based conjugate-gradient algorithm, used when iscf=5, is not published.
 However, many elements of this algorithm have been explained in the paper above.
-
- Proc.   0 individual time (sec): cpu=         30.8  wall=         30.8

================================================================================

 Calculation completed.
.Delivered    9 WARNINGs and   0 COMMENTs to log file.
+Overall time at end (sec) : cpu=         30.8  wall=         30.8
