
.Version 7.9.3 of ABINIT 
.(MPI version, prepared for a x86_64_linux_gnu4.7 computer) 

.Copyright (C) 1998-2014 ABINIT group . 
 ABINIT comes with ABSOLUTELY NO WARRANTY.
 It is free software, and you are welcome to redistribute it
 under certain conditions (GNU General Public License,
 see ~abinit/COPYING or http://www.gnu.org/copyleft/gpl.txt).

 ABINIT is a project of the Universite Catholique de Louvain,
 Corning Inc. and other collaborators, see ~abinit/doc/developers/contributors.txt .
 Please read ~abinit/doc/users/acknowledgments.html for suggested
 acknowledgments of the ABINIT effort.
 For more information, see http://www.abinit.org .

.Starting date : Sat 30 Aug 2014.
- ( at 22h23 )
  
- input  file    -> temp_3.in
- output file    -> temp_3.out
- root for input  files -> temp_3i
- root for output files -> temp_3o


 DATASET   11 : space group P1 (#  1); Bravais aP (primitive triclinic)
================================================================================
 Values of the parameters that define the memory need for DATASET 11.
   intxc =         0  ionmov =         0    iscf =         7 xclevel =         1
  lmnmax =         1   lnmax =         1   mband =        12  mffmem =         1
P  mgfft =        10   mkmem =         8 mpssoang=         2     mpw =        51
  mqgrid =      3001   natom =         2    nfft =      1000    nkpt =         8
  nloalg =         4  nspden =         1 nspinor =         1  nsppol =         1
    nsym =         1  n1xccc =      2501  ntypat =         1  occopt =         1
================================================================================
P This job should need less than                       0.892 Mbytes of memory.
  Rough estimation (10% accuracy) of disk space for files :
_ WF disk file :      0.077 Mbytes ; DEN or POT disk file :      0.010 Mbytes.
================================================================================


 DATASET   12 : space group P1 (#  1); Bravais aP (primitive triclinic)
================================================================================
 Values of the parameters that define the memory need for DATASET 12.
   intxc =         0  ionmov =         0    iscf =        -2 xclevel =         1
  lmnmax =         1   lnmax =         1   mband =        12  mffmem =         1
P  mgfft =        10   mkmem =         8 mpssoang=         2     mpw =        51
  mqgrid =      3001   natom =         2    nfft =      1000    nkpt =         8
  nloalg =         4  nspden =         1 nspinor =         1  nsppol =         1
    nsym =         1  n1xccc =      2501  ntypat =         1  occopt =         1
================================================================================
P This job should need less than                       0.770 Mbytes of memory.
  Rough estimation (10% accuracy) of disk space for files :
_ WF disk file :      0.077 Mbytes ; DEN or POT disk file :      0.010 Mbytes.
================================================================================


 DATASET   13 : space group P1 (#  1); Bravais aP (primitive triclinic)
================================================================================
 Values of the parameters that define the memory need for DATASET 13 (RF).
   intxc =         0    iscf =         7 xclevel =         1  lmnmax =         1
   lnmax =         1   mband =        12  mffmem =         1   mgfft =        10
P  mkmem =         8  mkqmem =         8  mk1mem =         8 mpssoang=         2
     mpw =        51  mqgrid =      3001   natom =         2    nfft =      1000
    nkpt =         8  nloalg =         4  nspden =         1 nspinor =         1
  nsppol =         1    nsym =         1  n1xccc =      2501  ntypat =         1
  occopt =         1
================================================================================
P This job should need less than                       0.995 Mbytes of memory.
  Rough estimation (10% accuracy) of disk space for files :
_ WF disk file :      0.077 Mbytes ; DEN or POT disk file :      0.010 Mbytes.
================================================================================


 DATASET   21 : space group P1 (#  1); Bravais aP (primitive triclinic)
================================================================================
 Values of the parameters that define the memory need for DATASET 21.
   intxc =         0  ionmov =         0    iscf =         7 xclevel =         1
  lmnmax =         1   lnmax =         1   mband =        12  mffmem =         1
P  mgfft =        10   mkmem =         8 mpssoang=         2     mpw =        51
  mqgrid =      3001   natom =         2    nfft =      1000    nkpt =         8
  nloalg =         4  nspden =         1 nspinor =         1  nsppol =         1
    nsym =         1  n1xccc =      2501  ntypat =         1  occopt =         1
================================================================================
P This job should need less than                       0.892 Mbytes of memory.
  Rough estimation (10% accuracy) of disk space for files :
_ WF disk file :      0.077 Mbytes ; DEN or POT disk file :      0.010 Mbytes.
================================================================================


 DATASET   22 : space group P1 (#  1); Bravais aP (primitive triclinic)
================================================================================
 Values of the parameters that define the memory need for DATASET 22.
   intxc =         0  ionmov =         0    iscf =        -2 xclevel =         1
  lmnmax =         1   lnmax =         1   mband =        12  mffmem =         1
P  mgfft =        10   mkmem =         8 mpssoang=         2     mpw =        43
  mqgrid =      3001   natom =         2    nfft =      1000    nkpt =         8
  nloalg =         4  nspden =         1 nspinor =         1  nsppol =         1
    nsym =         1  n1xccc =      2501  ntypat =         1  occopt =         1
================================================================================
P This job should need less than                       0.755 Mbytes of memory.
  Rough estimation (10% accuracy) of disk space for files :
_ WF disk file :      0.065 Mbytes ; DEN or POT disk file :      0.010 Mbytes.
================================================================================


 DATASET   23 : space group P1 (#  1); Bravais aP (primitive triclinic)
================================================================================
 Values of the parameters that define the memory need for DATASET 23 (RF).
   intxc =         0    iscf =         7 xclevel =         1  lmnmax =         1
   lnmax =         1   mband =        12  mffmem =         1   mgfft =        10
P  mkmem =         8  mkqmem =         8  mk1mem =         8 mpssoang=         2
     mpw =        51  mqgrid =      3001   natom =         2    nfft =      1000
    nkpt =         8  nloalg =         4  nspden =         1 nspinor =         1
  nsppol =         1    nsym =         1  n1xccc =      2501  ntypat =         1
  occopt =         1
================================================================================
P This job should need less than                       1.052 Mbytes of memory.
  Rough estimation (10% accuracy) of disk space for files :
_ WF disk file :      0.077 Mbytes ; DEN or POT disk file :      0.010 Mbytes.
================================================================================


 DATASET   31 : space group P1 (#  1); Bravais aP (primitive triclinic)
================================================================================
 Values of the parameters that define the memory need for DATASET 31.
   intxc =         0  ionmov =         0    iscf =         7 xclevel =         1
  lmnmax =         1   lnmax =         1   mband =        12  mffmem =         1
P  mgfft =        10   mkmem =         8 mpssoang=         2     mpw =        51
  mqgrid =      3001   natom =         2    nfft =      1000    nkpt =         8
  nloalg =         4  nspden =         1 nspinor =         1  nsppol =         1
    nsym =         1  n1xccc =      2501  ntypat =         1  occopt =         1
================================================================================
P This job should need less than                       0.892 Mbytes of memory.
  Rough estimation (10% accuracy) of disk space for files :
_ WF disk file :      0.077 Mbytes ; DEN or POT disk file :      0.010 Mbytes.
================================================================================


 DATASET   32 : space group P1 (#  1); Bravais aP (primitive triclinic)
================================================================================
 Values of the parameters that define the memory need for DATASET 32.
   intxc =         0  ionmov =         0    iscf =        -2 xclevel =         1
  lmnmax =         1   lnmax =         1   mband =        12  mffmem =         1
P  mgfft =        10   mkmem =         8 mpssoang=         2     mpw =        51
  mqgrid =      3001   natom =         2    nfft =      1000    nkpt =         8
  nloalg =         4  nspden =         1 nspinor =         1  nsppol =         1
    nsym =         1  n1xccc =      2501  ntypat =         1  occopt =         1
================================================================================
P This job should need less than                       0.770 Mbytes of memory.
  Rough estimation (10% accuracy) of disk space for files :
_ WF disk file :      0.077 Mbytes ; DEN or POT disk file :      0.010 Mbytes.
================================================================================


 DATASET   33 : space group P1 (#  1); Bravais aP (primitive triclinic)
================================================================================
 Values of the parameters that define the memory need for DATASET 33 (RF).
   intxc =         0    iscf =         7 xclevel =         1  lmnmax =         1
   lnmax =         1   mband =        12  mffmem =         1   mgfft =        10
P  mkmem =         8  mkqmem =         8  mk1mem =         8 mpssoang=         2
     mpw =        51  mqgrid =      3001   natom =         2    nfft =      1000
    nkpt =         8  nloalg =         4  nspden =         1 nspinor =         1
  nsppol =         1    nsym =         1  n1xccc =      2501  ntypat =         1
  occopt =         1
================================================================================
P This job should need less than                       1.052 Mbytes of memory.
  Rough estimation (10% accuracy) of disk space for files :
_ WF disk file :      0.077 Mbytes ; DEN or POT disk file :      0.010 Mbytes.
================================================================================


 DATASET   41 : space group P1 (#  1); Bravais aP (primitive triclinic)
================================================================================
 Values of the parameters that define the memory need for DATASET 41.
   intxc =         0  ionmov =         0    iscf =         7 xclevel =         1
  lmnmax =         1   lnmax =         1   mband =        12  mffmem =         1
P  mgfft =        10   mkmem =         8 mpssoang=         2     mpw =        51
  mqgrid =      3001   natom =         2    nfft =      1000    nkpt =         8
  nloalg =         4  nspden =         1 nspinor =         1  nsppol =         1
    nsym =         1  n1xccc =      2501  ntypat =         1  occopt =         1
================================================================================
P This job should need less than                       0.892 Mbytes of memory.
  Rough estimation (10% accuracy) of disk space for files :
_ WF disk file :      0.077 Mbytes ; DEN or POT disk file :      0.010 Mbytes.
================================================================================


 DATASET   42 : space group P1 (#  1); Bravais aP (primitive triclinic)
================================================================================
 Values of the parameters that define the memory need for DATASET 42.
   intxc =         0  ionmov =         0    iscf =        -2 xclevel =         1
  lmnmax =         1   lnmax =         1   mband =        12  mffmem =         1
P  mgfft =        10   mkmem =         8 mpssoang=         2     mpw =        44
  mqgrid =      3001   natom =         2    nfft =      1000    nkpt =         8
  nloalg =         4  nspden =         1 nspinor =         1  nsppol =         1
    nsym =         1  n1xccc =      2501  ntypat =         1  occopt =         1
================================================================================
P This job should need less than                       0.757 Mbytes of memory.
  Rough estimation (10% accuracy) of disk space for files :
_ WF disk file :      0.066 Mbytes ; DEN or POT disk file :      0.010 Mbytes.
================================================================================


 DATASET   43 : space group P1 (#  1); Bravais aP (primitive triclinic)
================================================================================
 Values of the parameters that define the memory need for DATASET 43 (RF).
   intxc =         0    iscf =         7 xclevel =         1  lmnmax =         1
   lnmax =         1   mband =        12  mffmem =         1   mgfft =        10
P  mkmem =         8  mkqmem =         8  mk1mem =         8 mpssoang=         2
     mpw =        51  mqgrid =      3001   natom =         2    nfft =      1000
    nkpt =         8  nloalg =         4  nspden =         1 nspinor =         1
  nsppol =         1    nsym =         1  n1xccc =      2501  ntypat =         1
  occopt =         1
================================================================================
P This job should need less than                       1.052 Mbytes of memory.
  Rough estimation (10% accuracy) of disk space for files :
_ WF disk file :      0.077 Mbytes ; DEN or POT disk file :      0.010 Mbytes.
================================================================================


 DATASET   51 : space group P1 (#  1); Bravais aP (primitive triclinic)
================================================================================
 Values of the parameters that define the memory need for DATASET 51.
   intxc =         0  ionmov =         0    iscf =         7 xclevel =         1
  lmnmax =         1   lnmax =         1   mband =        12  mffmem =         1
P  mgfft =        10   mkmem =         8 mpssoang=         2     mpw =        51
  mqgrid =      3001   natom =         2    nfft =      1000    nkpt =         8
  nloalg =         4  nspden =         1 nspinor =         1  nsppol =         1
    nsym =         1  n1xccc =      2501  ntypat =         1  occopt =         1
================================================================================
P This job should need less than                       0.892 Mbytes of memory.
  Rough estimation (10% accuracy) of disk space for files :
_ WF disk file :      0.077 Mbytes ; DEN or POT disk file :      0.010 Mbytes.
================================================================================


 DATASET   52 : space group P1 (#  1); Bravais aP (primitive triclinic)
================================================================================
 Values of the parameters that define the memory need for DATASET 52.
   intxc =         0  ionmov =         0    iscf =        -2 xclevel =         1
  lmnmax =         1   lnmax =         1   mband =        12  mffmem =         1
P  mgfft =        10   mkmem =         8 mpssoang=         2     mpw =        43
  mqgrid =      3001   natom =         2    nfft =      1000    nkpt =         8
  nloalg =         4  nspden =         1 nspinor =         1  nsppol =         1
    nsym =         1  n1xccc =      2501  ntypat =         1  occopt =         1
================================================================================
P This job should need less than                       0.755 Mbytes of memory.
  Rough estimation (10% accuracy) of disk space for files :
_ WF disk file :      0.065 Mbytes ; DEN or POT disk file :      0.010 Mbytes.
================================================================================


 DATASET   53 : space group P1 (#  1); Bravais aP (primitive triclinic)
================================================================================
 Values of the parameters that define the memory need for DATASET 53 (RF).
   intxc =         0    iscf =         7 xclevel =         1  lmnmax =         1
   lnmax =         1   mband =        12  mffmem =         1   mgfft =        10
P  mkmem =         8  mkqmem =         8  mk1mem =         8 mpssoang=         2
     mpw =        51  mqgrid =      3001   natom =         2    nfft =      1000
    nkpt =         8  nloalg =         4  nspden =         1 nspinor =         1
  nsppol =         1    nsym =         1  n1xccc =      2501  ntypat =         1
  occopt =         1
================================================================================
P This job should need less than                       1.052 Mbytes of memory.
  Rough estimation (10% accuracy) of disk space for files :
_ WF disk file :      0.077 Mbytes ; DEN or POT disk file :      0.010 Mbytes.
================================================================================


 DATASET   61 : space group P1 (#  1); Bravais aP (primitive triclinic)
================================================================================
 Values of the parameters that define the memory need for DATASET 61.
   intxc =         0  ionmov =         0    iscf =         7 xclevel =         1
  lmnmax =         1   lnmax =         1   mband =        12  mffmem =         1
P  mgfft =        10   mkmem =         8 mpssoang=         2     mpw =        51
  mqgrid =      3001   natom =         2    nfft =      1000    nkpt =         8
  nloalg =         4  nspden =         1 nspinor =         1  nsppol =         1
    nsym =         1  n1xccc =      2501  ntypat =         1  occopt =         1
================================================================================
P This job should need less than                       0.892 Mbytes of memory.
  Rough estimation (10% accuracy) of disk space for files :
_ WF disk file :      0.077 Mbytes ; DEN or POT disk file :      0.010 Mbytes.
================================================================================


 DATASET   62 : space group P1 (#  1); Bravais aP (primitive triclinic)
================================================================================
 Values of the parameters that define the memory need for DATASET 62.
   intxc =         0  ionmov =         0    iscf =        -2 xclevel =         1
  lmnmax =         1   lnmax =         1   mband =        12  mffmem =         1
P  mgfft =        10   mkmem =         8 mpssoang=         2     mpw =        44
  mqgrid =      3001   natom =         2    nfft =      1000    nkpt =         8
  nloalg =         4  nspden =         1 nspinor =         1  nsppol =         1
    nsym =         1  n1xccc =      2501  ntypat =         1  occopt =         1
================================================================================
P This job should need less than                       0.757 Mbytes of memory.
  Rough estimation (10% accuracy) of disk space for files :
_ WF disk file :      0.066 Mbytes ; DEN or POT disk file :      0.010 Mbytes.
================================================================================


 DATASET   63 : space group P1 (#  1); Bravais aP (primitive triclinic)
================================================================================
 Values of the parameters that define the memory need for DATASET 63 (RF).
   intxc =         0    iscf =         7 xclevel =         1  lmnmax =         1
   lnmax =         1   mband =        12  mffmem =         1   mgfft =        10
P  mkmem =         8  mkqmem =         8  mk1mem =         8 mpssoang=         2
     mpw =        51  mqgrid =      3001   natom =         2    nfft =      1000
    nkpt =         8  nloalg =         4  nspden =         1 nspinor =         1
  nsppol =         1    nsym =         1  n1xccc =      2501  ntypat =         1
  occopt =         1
================================================================================
P This job should need less than                       1.052 Mbytes of memory.
  Rough estimation (10% accuracy) of disk space for files :
_ WF disk file :      0.077 Mbytes ; DEN or POT disk file :      0.010 Mbytes.
================================================================================


 DATASET   71 : space group P1 (#  1); Bravais aP (primitive triclinic)
================================================================================
 Values of the parameters that define the memory need for DATASET 71.
   intxc =         0  ionmov =         0    iscf =         7 xclevel =         1
  lmnmax =         1   lnmax =         1   mband =        12  mffmem =         1
P  mgfft =        10   mkmem =         8 mpssoang=         2     mpw =        51
  mqgrid =      3001   natom =         2    nfft =      1000    nkpt =         8
  nloalg =         4  nspden =         1 nspinor =         1  nsppol =         1
    nsym =         1  n1xccc =      2501  ntypat =         1  occopt =         1
================================================================================
P This job should need less than                       0.892 Mbytes of memory.
  Rough estimation (10% accuracy) of disk space for files :
_ WF disk file :      0.077 Mbytes ; DEN or POT disk file :      0.010 Mbytes.
================================================================================


 DATASET   72 : space group P1 (#  1); Bravais aP (primitive triclinic)
================================================================================
 Values of the parameters that define the memory need for DATASET 72.
   intxc =         0  ionmov =         0    iscf =        -2 xclevel =         1
  lmnmax =         1   lnmax =         1   mband =        12  mffmem =         1
P  mgfft =        10   mkmem =         8 mpssoang=         2     mpw =        51
  mqgrid =      3001   natom =         2    nfft =      1000    nkpt =         8
  nloalg =         4  nspden =         1 nspinor =         1  nsppol =         1
    nsym =         1  n1xccc =      2501  ntypat =         1  occopt =         1
================================================================================
P This job should need less than                       0.770 Mbytes of memory.
  Rough estimation (10% accuracy) of disk space for files :
_ WF disk file :      0.077 Mbytes ; DEN or POT disk file :      0.010 Mbytes.
================================================================================


 DATASET   73 : space group P1 (#  1); Bravais aP (primitive triclinic)
================================================================================
 Values of the parameters that define the memory need for DATASET 73 (RF).
   intxc =         0    iscf =         7 xclevel =         1  lmnmax =         1
   lnmax =         1   mband =        12  mffmem =         1   mgfft =        10
P  mkmem =         8  mkqmem =         8  mk1mem =         8 mpssoang=         2
     mpw =        51  mqgrid =      3001   natom =         2    nfft =      1000
    nkpt =         8  nloalg =         4  nspden =         1 nspinor =         1
  nsppol =         1    nsym =         1  n1xccc =      2501  ntypat =         1
  occopt =         1
================================================================================
P This job should need less than                       1.052 Mbytes of memory.
  Rough estimation (10% accuracy) of disk space for files :
_ WF disk file :      0.077 Mbytes ; DEN or POT disk file :      0.010 Mbytes.
================================================================================


 DATASET   81 : space group P1 (#  1); Bravais aP (primitive triclinic)
================================================================================
 Values of the parameters that define the memory need for DATASET 81.
   intxc =         0  ionmov =         0    iscf =         7 xclevel =         1
  lmnmax =         1   lnmax =         1   mband =        12  mffmem =         1
P  mgfft =        10   mkmem =         8 mpssoang=         2     mpw =        51
  mqgrid =      3001   natom =         2    nfft =      1000    nkpt =         8
  nloalg =         4  nspden =         1 nspinor =         1  nsppol =         1
    nsym =         1  n1xccc =      2501  ntypat =         1  occopt =         1
================================================================================
P This job should need less than                       0.892 Mbytes of memory.
  Rough estimation (10% accuracy) of disk space for files :
_ WF disk file :      0.077 Mbytes ; DEN or POT disk file :      0.010 Mbytes.
================================================================================


 DATASET   82 : space group P1 (#  1); Bravais aP (primitive triclinic)
================================================================================
 Values of the parameters that define the memory need for DATASET 82.
   intxc =         0  ionmov =         0    iscf =        -2 xclevel =         1
  lmnmax =         1   lnmax =         1   mband =        12  mffmem =         1
P  mgfft =        10   mkmem =         8 mpssoang=         2     mpw =        44
  mqgrid =      3001   natom =         2    nfft =      1000    nkpt =         8
  nloalg =         4  nspden =         1 nspinor =         1  nsppol =         1
    nsym =         1  n1xccc =      2501  ntypat =         1  occopt =         1
================================================================================
P This job should need less than                       0.757 Mbytes of memory.
  Rough estimation (10% accuracy) of disk space for files :
_ WF disk file :      0.066 Mbytes ; DEN or POT disk file :      0.010 Mbytes.
================================================================================


 DATASET   83 : space group P1 (#  1); Bravais aP (primitive triclinic)
================================================================================
 Values of the parameters that define the memory need for DATASET 83 (RF).
   intxc =         0    iscf =         7 xclevel =         1  lmnmax =         1
   lnmax =         1   mband =        12  mffmem =         1   mgfft =        10
P  mkmem =         8  mkqmem =         8  mk1mem =         8 mpssoang=         2
     mpw =        51  mqgrid =      3001   natom =         2    nfft =      1000
    nkpt =         8  nloalg =         4  nspden =         1 nspinor =         1
  nsppol =         1    nsym =         1  n1xccc =      2501  ntypat =         1
  occopt =         1
================================================================================
P This job should need less than                       1.052 Mbytes of memory.
  Rough estimation (10% accuracy) of disk space for files :
_ WF disk file :      0.077 Mbytes ; DEN or POT disk file :      0.010 Mbytes.
================================================================================

--------------------------------------------------------------------------------
------------- Echo of variables that govern the present computation ------------
--------------------------------------------------------------------------------
-
- outvars: echo of selected default values                                      
-   accesswff0 =  0 , fftalg0 =112 , wfoptalg0 =  0
-
- outvars: echo of global parameters not present in the input file              
-  max_nthreads =    0
-
 -outvars: echo values of preprocessed input variables --------
            acell      6.6750000000E+00  6.6750000000E+00  6.6750000000E+00 Bohr
              amu      1.20110000E+01
           diemac      6.00000000E+00
             ecut      5.00000000E+00 Hartree
    elph2_imagden      3.67493254E-03 Hartree
           enunit           2
-          fftalg         112
           getden11         0
           getden12        -1
           getden13         0
           getden21         0
           getden22        -1
           getden23         0
           getden31         0
           getden32        -1
           getden33         0
           getden41         0
           getden42        -1
           getden43         0
           getden51         0
           getden52        -1
           getden53         0
           getden61         0
           getden62        -1
           getden63         0
           getden71         0
           getden72        -1
           getden73         0
           getden81         0
           getden82        -1
           getden83         0
           getwfk11         0
           getwfk12         0
           getwfk13        -2
           getwfk21         0
           getwfk22         0
           getwfk23        -2
           getwfk31         0
           getwfk32         0
           getwfk33        -2
           getwfk41         0
           getwfk42         0
           getwfk43        -2
           getwfk51         0
           getwfk52         0
           getwfk53        -2
           getwfk61         0
           getwfk62         0
           getwfk63        -2
           getwfk71         0
           getwfk72         0
           getwfk73        -2
           getwfk81         0
           getwfk82         0
           getwfk83        -2
           getwfq11         0
           getwfq12         0
           getwfq13        -1
           getwfq21         0
           getwfq22         0
           getwfq23        -1
           getwfq31         0
           getwfq32         0
           getwfq33        -1
           getwfq41         0
           getwfq42         0
           getwfq43        -1
           getwfq51         0
           getwfq52         0
           getwfq53        -1
           getwfq61         0
           getwfq62         0
           getwfq63        -1
           getwfq71         0
           getwfq72         0
           getwfq73        -1
           getwfq81         0
           getwfq82         0
           getwfq83        -1
          ieig2rf11         0
          ieig2rf12         0
          ieig2rf13         1
          ieig2rf21         0
          ieig2rf22         0
          ieig2rf23         1
          ieig2rf31         0
          ieig2rf32         0
          ieig2rf33         1
          ieig2rf41         0
          ieig2rf42         0
          ieig2rf43         1
          ieig2rf51         0
          ieig2rf52         0
          ieig2rf53         1
          ieig2rf61         0
          ieig2rf62         0
          ieig2rf63         1
          ieig2rf71         0
          ieig2rf72         0
          ieig2rf73         1
          ieig2rf81         0
          ieig2rf82         0
          ieig2rf83         1
             iscf11         7
             iscf12        -2
             iscf13         7
             iscf21         7
             iscf22        -2
             iscf23         7
             iscf31         7
             iscf32        -2
             iscf33         7
             iscf41         7
             iscf42        -2
             iscf43         7
             iscf51         7
             iscf52        -2
             iscf53         7
             iscf61         7
             iscf62        -2
             iscf63         7
             iscf71         7
             iscf72        -2
             iscf73         7
             iscf81         7
             iscf82        -2
             iscf83         7
           istwfk11      1    1    1    1    1    1    1    1
           istwfk12      1    1    1    1    1    1    1    1
           istwfk13      1    1    1    1    1    1    1    1
           istwfk21      1    1    1    1    1    1    1    1
           istwfk22      0    0    0    0    0    0    0    0
           istwfk23      1    1    1    1    1    1    1    1
           istwfk31      1    1    1    1    1    1    1    1
           istwfk32      1    0    1    0    1    0    1    0
           istwfk33      1    1    1    1    1    1    1    1
           istwfk41      1    1    1    1    1    1    1    1
           istwfk42      0    0    0    0    0    0    0    0
           istwfk43      1    1    1    1    1    1    1    1
           istwfk51      1    1    1    1    1    1    1    1
           istwfk52      0    0    0    0    0    0    0    0
           istwfk53      1    1    1    1    1    1    1    1
           istwfk61      1    1    1    1    1    1    1    1
           istwfk62      0    0    0    0    0    0    0    0
           istwfk63      1    1    1    1    1    1    1    1
           istwfk71      1    1    1    1    1    1    1    1
           istwfk72      1    0    0    0    1    0    0    0
           istwfk73      1    1    1    1    1    1    1    1
           istwfk81      1    1    1    1    1    1    1    1
           istwfk82      0    0    0    0    0    0    0    0
           istwfk83      1    1    1    1    1    1    1    1
           jdtset       11   12   13   21   22   23   31   32   33   41
                        42   43   51   52   53   61   62   63   71   72
                        73   81   82   83
              kpt      0.00000000E+00  0.00000000E+00  0.00000000E+00
                       5.00000000E-01  0.00000000E+00  0.00000000E+00
                       0.00000000E+00  5.00000000E-01  0.00000000E+00
                       5.00000000E-01  5.00000000E-01  0.00000000E+00
                       0.00000000E+00  0.00000000E+00  5.00000000E-01
                       5.00000000E-01  0.00000000E+00  5.00000000E-01
                       0.00000000E+00  5.00000000E-01  5.00000000E-01
                       5.00000000E-01  5.00000000E-01  5.00000000E-01
         kptrlatt        2    0    0      0    2    0      0    0    2
          kptrlen      9.43987553E+00
P           mkmem           8
P          mkqmem           8
P          mk1mem           8
            natom           2
            nband          12
           nbdbuf11         0
           nbdbuf12         2
           nbdbuf13         2
           nbdbuf21         0
           nbdbuf22         2
           nbdbuf23         2
           nbdbuf31         0
           nbdbuf32         2
           nbdbuf33         2
           nbdbuf41         0
           nbdbuf42         2
           nbdbuf43         2
           nbdbuf51         0
           nbdbuf52         2
           nbdbuf53         2
           nbdbuf61         0
           nbdbuf62         2
           nbdbuf63         2
           nbdbuf71         0
           nbdbuf72         2
           nbdbuf73         2
           nbdbuf81         0
           nbdbuf82         2
           nbdbuf83         2
           ndtset          24
            ngfft          10      10      10
             nkpt           8
             nqpt11         0
             nqpt12         1
             nqpt13         1
             nqpt21         0
             nqpt22         1
             nqpt23         1
             nqpt31         0
             nqpt32         1
             nqpt33         1
             nqpt41         0
             nqpt42         1
             nqpt43         1
             nqpt51         0
             nqpt52         1
             nqpt53         1
             nqpt61         0
             nqpt62         1
             nqpt63         1
             nqpt71         0
             nqpt72         1
             nqpt73         1
             nqpt81         0
             nqpt82         1
             nqpt83         1
            nstep          50
             nsym           1
           ntypat           1
              occ      2.000000  2.000000  2.000000  2.000000  0.000000  0.000000
                       0.000000  0.000000  0.000000  0.000000  0.000000  0.000000
        optdriver11         0
        optdriver12         0
        optdriver13         1
        optdriver21         0
        optdriver22         0
        optdriver23         1
        optdriver31         0
        optdriver32         0
        optdriver33         1
        optdriver41         0
        optdriver42         0
        optdriver43         1
        optdriver51         0
        optdriver52         0
        optdriver53         1
        optdriver61         0
        optdriver62         0
        optdriver63         1
        optdriver71         0
        optdriver72         0
        optdriver73         1
        optdriver81         0
        optdriver82         0
        optdriver83         1
              qpt11    0.00000000E+00  0.00000000E+00  0.00000000E+00
              qpt12    0.00000000E+00  0.00000000E+00  0.00000000E+00
              qpt13    0.00000000E+00  0.00000000E+00  0.00000000E+00
              qpt21    0.00000000E+00  0.00000000E+00  0.00000000E+00
              qpt22    2.50000000E-01  0.00000000E+00  0.00000000E+00
              qpt23    2.50000000E-01  0.00000000E+00  0.00000000E+00
              qpt31    0.00000000E+00  0.00000000E+00  0.00000000E+00
              qpt32    5.00000000E-01  0.00000000E+00  0.00000000E+00
              qpt33    5.00000000E-01  0.00000000E+00  0.00000000E+00
              qpt41    0.00000000E+00  0.00000000E+00  0.00000000E+00
              qpt42    2.50000000E-01  2.50000000E-01  0.00000000E+00
              qpt43    2.50000000E-01  2.50000000E-01  0.00000000E+00
              qpt51    0.00000000E+00  0.00000000E+00  0.00000000E+00
              qpt52    5.00000000E-01  2.50000000E-01  0.00000000E+00
              qpt53    5.00000000E-01  2.50000000E-01  0.00000000E+00
              qpt61    0.00000000E+00  0.00000000E+00  0.00000000E+00
              qpt62   -2.50000000E-01  2.50000000E-01  0.00000000E+00
              qpt63   -2.50000000E-01  2.50000000E-01  0.00000000E+00
              qpt71    0.00000000E+00  0.00000000E+00  0.00000000E+00
              qpt72    5.00000000E-01  5.00000000E-01  0.00000000E+00
              qpt73    5.00000000E-01  5.00000000E-01  0.00000000E+00
              qpt81    0.00000000E+00  0.00000000E+00  0.00000000E+00
              qpt82   -2.50000000E-01  5.00000000E-01  2.50000000E-01
              qpt83   -2.50000000E-01  5.00000000E-01  2.50000000E-01
          rfatpol11         1       1
          rfatpol12         1       1
          rfatpol13         1       2
          rfatpol21         1       1
          rfatpol22         1       1
          rfatpol23         1       2
          rfatpol31         1       1
          rfatpol32         1       1
          rfatpol33         1       2
          rfatpol41         1       1
          rfatpol42         1       1
          rfatpol43         1       2
          rfatpol51         1       1
          rfatpol52         1       1
          rfatpol53         1       2
          rfatpol61         1       1
          rfatpol62         1       1
          rfatpol63         1       2
          rfatpol71         1       1
          rfatpol72         1       1
          rfatpol73         1       2
          rfatpol81         1       1
          rfatpol82         1       1
          rfatpol83         1       2
            rfdir11         0       0       0
            rfdir12         0       0       0
            rfdir13         1       1       1
            rfdir21         0       0       0
            rfdir22         0       0       0
            rfdir23         1       1       1
            rfdir31         0       0       0
            rfdir32         0       0       0
            rfdir33         1       1       1
            rfdir41         0       0       0
            rfdir42         0       0       0
            rfdir43         1       1       1
            rfdir51         0       0       0
            rfdir52         0       0       0
            rfdir53         1       1       1
            rfdir61         0       0       0
            rfdir62         0       0       0
            rfdir63         1       1       1
            rfdir71         0       0       0
            rfdir72         0       0       0
            rfdir73         1       1       1
            rfdir81         0       0       0
            rfdir82         0       0       0
            rfdir83         1       1       1
           rfphon11         0
           rfphon12         0
           rfphon13         1
           rfphon21         0
           rfphon22         0
           rfphon23         1
           rfphon31         0
           rfphon32         0
           rfphon33         1
           rfphon41         0
           rfphon42         0
           rfphon43         1
           rfphon51         0
           rfphon52         0
           rfphon53         1
           rfphon61         0
           rfphon62         0
           rfphon63         1
           rfphon71         0
           rfphon72         0
           rfphon73         1
           rfphon81         0
           rfphon82         0
           rfphon83         1
            rprim      0.0000000000E+00  5.0000000000E-01  5.0000000000E-01
                       5.0000000000E-01  0.0000000000E+00  5.0000000000E-01
                       5.0000000000E-01  5.0000000000E-01  0.0000000000E+00
          spgroup           1
           tolvrs11    1.00000000E-08
           tolvrs12    0.00000000E+00
           tolvrs13    0.00000000E+00
           tolvrs21    1.00000000E-08
           tolvrs22    0.00000000E+00
           tolvrs23    0.00000000E+00
           tolvrs31    1.00000000E-08
           tolvrs32    0.00000000E+00
           tolvrs33    0.00000000E+00
           tolvrs41    1.00000000E-08
           tolvrs42    0.00000000E+00
           tolvrs43    0.00000000E+00
           tolvrs51    1.00000000E-08
           tolvrs52    0.00000000E+00
           tolvrs53    0.00000000E+00
           tolvrs61    1.00000000E-08
           tolvrs62    0.00000000E+00
           tolvrs63    0.00000000E+00
           tolvrs71    1.00000000E-08
           tolvrs72    0.00000000E+00
           tolvrs73    0.00000000E+00
           tolvrs81    1.00000000E-08
           tolvrs82    0.00000000E+00
           tolvrs83    0.00000000E+00
           tolwfr11    0.00000000E+00
           tolwfr12    1.00000000E-08
           tolwfr13    1.00000000E-08
           tolwfr21    0.00000000E+00
           tolwfr22    1.00000000E-08
           tolwfr23    1.00000000E-08
           tolwfr31    0.00000000E+00
           tolwfr32    1.00000000E-08
           tolwfr33    1.00000000E-08
           tolwfr41    0.00000000E+00
           tolwfr42    1.00000000E-08
           tolwfr43    1.00000000E-08
           tolwfr51    0.00000000E+00
           tolwfr52    1.00000000E-08
           tolwfr53    1.00000000E-08
           tolwfr61    0.00000000E+00
           tolwfr62    1.00000000E-08
           tolwfr63    1.00000000E-08
           tolwfr71    0.00000000E+00
           tolwfr72    1.00000000E-08
           tolwfr73    1.00000000E-08
           tolwfr81    0.00000000E+00
           tolwfr82    1.00000000E-08
           tolwfr83    1.00000000E-08
            typat      1  1
              wtk        0.12500    0.12500    0.12500    0.12500    0.12500    0.12500
                         0.12500    0.12500
           xangst      0.0000000000E+00  0.0000000000E+00  0.0000000000E+00
                       8.8306446683E-01  8.8306446683E-01  8.8306446683E-01
            xcart      0.0000000000E+00  0.0000000000E+00  0.0000000000E+00
                       1.6687500000E+00  1.6687500000E+00  1.6687500000E+00
             xred      0.0000000000E+00  0.0000000000E+00  0.0000000000E+00
                       2.5000000000E-01  2.5000000000E-01  2.5000000000E-01
            znucl        6.00000

================================================================================

 chkinp: Checking input parameters for consistency, jdtset=  11.

 chkinp: Checking input parameters for consistency, jdtset=  12.

 chkinp: Checking input parameters for consistency, jdtset=  13.

 chkinp: Checking input parameters for consistency, jdtset=  21.

 chkinp: Checking input parameters for consistency, jdtset=  22.

 chkinp: Checking input parameters for consistency, jdtset=  23.

 chkinp: Checking input parameters for consistency, jdtset=  31.

 chkinp: Checking input parameters for consistency, jdtset=  32.

 chkinp: Checking input parameters for consistency, jdtset=  33.

 chkinp: Checking input parameters for consistency, jdtset=  41.

 chkinp: Checking input parameters for consistency, jdtset=  42.

 chkinp: Checking input parameters for consistency, jdtset=  43.

 chkinp: Checking input parameters for consistency, jdtset=  51.

 chkinp: Checking input parameters for consistency, jdtset=  52.

 chkinp: Checking input parameters for consistency, jdtset=  53.

 chkinp: Checking input parameters for consistency, jdtset=  61.

 chkinp: Checking input parameters for consistency, jdtset=  62.

 chkinp: Checking input parameters for consistency, jdtset=  63.

 chkinp: Checking input parameters for consistency, jdtset=  71.

 chkinp: Checking input parameters for consistency, jdtset=  72.

 chkinp: Checking input parameters for consistency, jdtset=  73.

 chkinp: Checking input parameters for consistency, jdtset=  81.

 chkinp: Checking input parameters for consistency, jdtset=  82.

 chkinp: Checking input parameters for consistency, jdtset=  83.

================================================================================
== DATASET 11 ==================================================================
-   nproc =    1

 Exchange-correlation functional for the present dataset will be:
  LDA: new Teter (4/93) with spin-polarized option - ixc=1
 Citation for XC functional:
  S. Goedecker, M. Teter, J. Huetter, PRB 54, 1703 (1996)

 Real(R)+Recip(G) space primitive vectors, cartesian coordinates (Bohr,Bohr^-1):
 R(1)=  0.0000000  3.3375000  3.3375000  G(1)= -0.1498127  0.1498127  0.1498127
 R(2)=  3.3375000  0.0000000  3.3375000  G(2)=  0.1498127 -0.1498127  0.1498127
 R(3)=  3.3375000  3.3375000  0.0000000  G(3)=  0.1498127  0.1498127 -0.1498127
 Unit cell volume ucvol=  7.4352199E+01 bohr^3
 Angles (23,13,12)=  6.00000000E+01  6.00000000E+01  6.00000000E+01 degrees

 getcut: wavevector=  0.0000  0.0000  0.0000  ngfft=  10  10  10
         ecut(hartree)=      5.000   => boxcut(ratio)=   2.12576

--- Pseudopotential description ------------------------------------------------
- pspini: atom type   1  psp file is /home/gonze/ABINIT/ABINITv7.9.3/trunk/7.9.3-private/tests/Psps_for_tests/6c.pspnc
- pspatm: opening atomic psp file    /home/gonze/ABINIT/ABINITv7.9.3/trunk/7.9.3-private/tests/Psps_for_tests/6c.pspnc
-  Troullier-Martins psp for element  C         Thu Oct 27 17:29:33 EDT 1994
-  6.00000   4.00000    940714                znucl, zion, pspdat
    1    1    1    1      2001   0.00000      pspcod,pspxc,lmax,lloc,mmax,r2well
    0  10.372  24.987    1   1.4850707        l,e99.0,e99.9,nproj,rcpsp
   0.00000000   0.00000000   0.00000000   0.00000000     rms, ekb1, ekb2, epsatm
    1  15.431  21.987    0   1.4850707        l,e99.0,e99.9,nproj,rcpsp
   0.00000000   0.00000000   0.00000000   0.00000000     rms, ekb1, ekb2, epsatm
    0.83985002509544    0.99012430797080    0.51184907750884   rchrg,fchrg,qchrg
 pspatm: epsatm=    0.92590353
         --- l  ekb(1:nproj) -->
             0    4.921466
 pspatm: atomic psp has been read  and splines computed

   1.48144565E+01                                ecore*ucvol(ha*bohr**3)
--------------------------------------------------------------------------------

P newkpt: treating     12 bands with npw=      51 for ikpt=   1 by node    0
P newkpt: treating     12 bands with npw=      40 for ikpt=   2 by node    0
P newkpt: treating     12 bands with npw=      40 for ikpt=   3 by node    0
P newkpt: treating     12 bands with npw=      40 for ikpt=   4 by node    0
P newkpt: treating     12 bands with npw=      40 for ikpt=   5 by node    0
P newkpt: treating     12 bands with npw=      40 for ikpt=   6 by node    0
P newkpt: treating     12 bands with npw=      40 for ikpt=   7 by node    0
P newkpt: treating     12 bands with npw=      40 for ikpt=   8 by node    0

_setup2: Arith. and geom. avg. npw (full set) are      41.375      41.233

================================================================================

     iter   Etot(hartree)      deltaE(h)  residm     vres2
 ETOT  1  -11.061914888398    -1.106E+01 5.291E-03 4.950E-01
 ETOT  2  -11.062928829878    -1.014E-03 6.929E-08 2.258E-03
 ETOT  3  -11.062931374657    -2.545E-06 4.294E-07 1.472E-05
 ETOT  4  -11.062931395399    -2.074E-08 6.120E-09 2.167E-07
 ETOT  5  -11.062931395779    -3.807E-10 1.678E-10 6.232E-08
 ETOT  6  -11.062931396146    -3.662E-10 3.207E-11 7.446E-10

 At SCF step    6       vres2   =  7.45E-10 < tolvrs=  1.00E-08 =>converged.

 Cartesian components of stress tensor (hartree/bohr^3)
  sigma(1 1)=  2.08950315E-03  sigma(3 2)=  1.02766735E-09
  sigma(2 2)=  2.08950316E-03  sigma(3 1)=  5.17832109E-10
  sigma(3 3)=  2.08950315E-03  sigma(2 1)= -1.75372556E-09

================================================================================

 ----iterations are completed or convergence reached----

 Mean square residual over all n,k,spin=   1.2202E-11; max=  3.2066E-11
   0.0000  0.0000  0.0000    1  3.20664E-11 kpt; spin; max resid(k); each band:
  2.16E-11 1.17E-11 1.06E-11 1.08E-11 1.09E-11 1.24E-11 1.16E-11 3.21E-11
  1.07E-11 3.95E-12 5.20E-12 2.11E-12
   0.5000  0.0000  0.0000    1  2.37944E-11 kpt; spin; max resid(k); each band:
  2.38E-11 1.63E-11 1.46E-11 1.36E-11 2.23E-11 7.01E-12 8.31E-12 5.22E-12
  8.93E-12 6.67E-12 6.66E-12 1.87E-11
   0.0000  0.5000  0.0000    1  2.60200E-11 kpt; spin; max resid(k); each band:
  2.60E-11 1.45E-11 1.27E-11 1.29E-11 2.43E-11 7.67E-12 7.57E-12 6.78E-12
  1.03E-11 5.26E-12 5.34E-12 1.64E-11
   0.5000  0.5000  0.0000    1  1.81554E-11 kpt; spin; max resid(k); each band:
  1.80E-11 1.82E-11 1.61E-11 1.46E-11 6.89E-12 7.95E-12 1.59E-11 1.69E-11
  1.13E-11 1.12E-11 9.33E-13 1.24E-12
   0.0000  0.0000  0.5000    1  2.36423E-11 kpt; spin; max resid(k); each band:
  2.36E-11 1.63E-11 1.48E-11 1.36E-11 2.22E-11 6.58E-12 8.77E-12 5.12E-12
  8.85E-12 6.16E-12 7.35E-12 1.89E-11
   0.5000  0.0000  0.5000    1  1.79595E-11 kpt; spin; max resid(k); each band:
  1.79E-11 1.80E-11 1.55E-11 1.55E-11 6.69E-12 7.79E-12 1.67E-11 1.66E-11
  1.12E-11 1.10E-11 1.17E-12 1.05E-12
   0.0000  0.5000  0.5000    1  1.82180E-11 kpt; spin; max resid(k); each band:
  1.82E-11 1.82E-11 1.44E-11 1.61E-11 6.91E-12 8.02E-12 1.69E-11 1.57E-11
  1.14E-11 1.11E-11 1.22E-12 9.25E-13
   0.5000  0.5000  0.5000    1  2.26838E-11 kpt; spin; max resid(k); each band:
  2.02E-11 1.90E-11 1.63E-11 1.58E-11 2.00E-11 6.85E-12 7.57E-12 3.15E-12
  7.03E-12 8.80E-12 9.01E-12 2.27E-11
 reduced coordinates (array xred) for    2 atoms
       0.000000000000      0.000000000000      0.000000000000
       0.250000000000      0.250000000000      0.250000000000
 rms dE/dt=  2.3926E-07; max dE/dt=  3.4352E-07; dE/dt below (all hartree)
    1       0.000000300379      0.000000343520     -0.000000009512
    2       0.000000023994      0.000000181287      0.000000318931

 cartesian coordinates (angstrom) at end:
    1      0.00000000000000     0.00000000000000     0.00000000000000
    2      0.88306446683456     0.88306446683456     0.88306446683456

 cartesian forces (hartree/bohr) at end:
    1      0.00000003315320     0.00000001605167    -0.00000005745770
    2     -0.00000003315320    -0.00000001605167     0.00000005745770
 frms,max,avg= 3.9404645E-08 5.7457699E-08  -3.819E-08 -8.164E-09 -4.043E-08 h/b

 cartesian forces (eV/Angstrom) at end:
    1      0.00000170480595     0.00000082541011    -0.00000295459345
    2     -0.00000170480595    -0.00000082541011     0.00000295459345
 frms,max,avg= 2.0262681E-06 2.9545935E-06  -1.964E-06 -4.198E-07 -2.079E-06 e/A
 length scales=  6.675000000000  6.675000000000  6.675000000000 bohr
              =  3.532257867338  3.532257867338  3.532257867338 angstroms
 prteigrs : about to open file temp_3o_DS11_EIG
 Fermi (or HOMO) energy (hartree) =   0.65134   Average Vxc (hartree)=  -0.51113
 Eigenvalues (hartree) for nkpt=   8  k points:
 kpt#   1, nband= 12, wtk=  0.12500, kpt=  0.0000  0.0000  0.0000 (reduced coord)
  -0.32654   0.65134   0.65134   0.65134   0.79438   0.79438   0.79438   0.97907
   1.20177   1.49489   1.49489   1.53837
 kpt#   2, nband= 12, wtk=  0.12500, kpt=  0.5000  0.0000  0.0000 (reduced coord)
  -0.09797   0.04155   0.51389   0.51390   0.83319   0.91819   0.91819   1.17556
   1.53632   1.60381   1.60381   1.61990
 kpt#   3, nband= 12, wtk=  0.12500, kpt=  0.0000  0.5000  0.0000 (reduced coord)
  -0.09797   0.04155   0.51389   0.51390   0.83319   0.91819   0.91819   1.17556
   1.53632   1.60381   1.60381   1.61990
 kpt#   4, nband= 12, wtk=  0.12500, kpt=  0.5000  0.5000  0.0000 (reduced coord)
   0.03471   0.03474   0.36929   0.36929   0.69090   0.69093   1.36871   1.36871
   1.64585   1.64590   1.79927   1.79927
 kpt#   5, nband= 12, wtk=  0.12500, kpt=  0.0000  0.0000  0.5000 (reduced coord)
  -0.09797   0.04155   0.51389   0.51389   0.83319   0.91819   0.91819   1.17556
   1.53632   1.60381   1.60381   1.61990
 kpt#   6, nband= 12, wtk=  0.12500, kpt=  0.5000  0.0000  0.5000 (reduced coord)
   0.03471   0.03474   0.36929   0.36929   0.69090   0.69093   1.36871   1.36871
   1.64585   1.64590   1.79927   1.79927
 kpt#   7, nband= 12, wtk=  0.12500, kpt=  0.0000  0.5000  0.5000 (reduced coord)
   0.03471   0.03474   0.36929   0.36929   0.69090   0.69093   1.36871   1.36871
   1.64585   1.64590   1.79927   1.79927
 kpt#   8, nband= 12, wtk=  0.12500, kpt=  0.5000  0.5000  0.5000 (reduced coord)
  -0.09797   0.04155   0.51389   0.51390   0.83319   0.91819   0.91819   1.17556
   1.53632   1.60381   1.60381   1.61990
 Fermi (or HOMO) energy (eV) =  17.72396   Average Vxc (eV)= -13.90868
 Eigenvalues (   eV  ) for nkpt=   8  k points:
 kpt#   1, nband= 12, wtk=  0.12500, kpt=  0.0000  0.0000  0.0000 (reduced coord)
  -8.88555  17.72396  17.72396  17.72396  21.61616  21.61616  21.61616  26.64192
  32.70192  40.67807  40.67807  41.86126
 kpt#   2, nband= 12, wtk=  0.12500, kpt=  0.5000  0.0000  0.0000 (reduced coord)
  -2.66578   1.13050  13.98379  13.98379  22.67217  24.98516  24.98516  31.98866
  41.80545  43.64199  43.64199  44.07963
 kpt#   3, nband= 12, wtk=  0.12500, kpt=  0.0000  0.5000  0.0000 (reduced coord)
  -2.66578   1.13050  13.98379  13.98379  22.67217  24.98516  24.98516  31.98866
  41.80545  43.64199  43.64199  44.07963
 kpt#   4, nband= 12, wtk=  0.12500, kpt=  0.5000  0.5000  0.0000 (reduced coord)
   0.94455   0.94540  10.04878  10.04878  18.80034  18.80110  37.24443  37.24444
  44.78596  44.78726  48.96053  48.96053
 kpt#   5, nband= 12, wtk=  0.12500, kpt=  0.0000  0.0000  0.5000 (reduced coord)
  -2.66578   1.13050  13.98379  13.98379  22.67217  24.98516  24.98516  31.98866
  41.80545  43.64199  43.64199  44.07963
 kpt#   6, nband= 12, wtk=  0.12500, kpt=  0.5000  0.0000  0.5000 (reduced coord)
   0.94455   0.94540  10.04878  10.04878  18.80034  18.80110  37.24444  37.24444
  44.78596  44.78726  48.96053  48.96053
 kpt#   7, nband= 12, wtk=  0.12500, kpt=  0.0000  0.5000  0.5000 (reduced coord)
   0.94455   0.94540  10.04878  10.04878  18.80034  18.80110  37.24444  37.24444
  44.78595  44.78726  48.96053  48.96053
 kpt#   8, nband= 12, wtk=  0.12500, kpt=  0.5000  0.5000  0.5000 (reduced coord)
  -2.66578   1.13050  13.98379  13.98379  22.67217  24.98516  24.98516  31.98866
  41.80545  43.64199  43.64199  44.07963
 Total charge density [el/Bohr^3]
,     Maximum=    2.9111E-01  at reduced coord.    0.1000    0.7000    0.1000
,Next maximum=    2.9111E-01  at reduced coord.    0.7000    0.1000    0.1000
,     Minimum=    1.1895E-02  at reduced coord.    0.5000    0.5000    0.5000
,Next minimum=    1.3293E-02  at reduced coord.    0.7000    0.7000    0.8000
,  Integrated=    8.0000E+00

--------------------------------------------------------------------------------
 Components of total free energy (in Hartree) :

    Kinetic energy  =  7.24642922094488E+00
    Hartree energy  =  7.94195713362051E-01
    XC energy       = -4.27528116765308E+00
    Ewald energy    = -1.29121750870816E+01
    PspCore energy  =  1.99247051596180E-01
    Loc. psp. energy= -3.67772652222909E+00
    NL   psp  energy=  1.56237939491497E+00
    >>>>>>>>> Etotal= -1.10629313961457E+01

 Other information on the energy :
    Total energy(eV)= -3.01037672837365E+02 ; Band energy (Ha)=   1.9842624664E+00
--------------------------------------------------------------------------------

 Cartesian components of stress tensor (hartree/bohr^3)
  sigma(1 1)=  2.08950315E-03  sigma(3 2)=  1.02766735E-09
  sigma(2 2)=  2.08950316E-03  sigma(3 1)=  5.17832109E-10
  sigma(3 3)=  2.08950315E-03  sigma(2 1)= -1.75372556E-09

-Cartesian components of stress tensor (GPa)         [Pressure= -6.1475E+01 GPa]
- sigma(1 1)=  6.14752949E+01  sigma(3 2)=  3.02350122E-05
- sigma(2 2)=  6.14752951E+01  sigma(3 1)=  1.52351441E-05
- sigma(3 3)=  6.14752948E+01  sigma(2 1)= -5.15963788E-05

================================================================================
== DATASET 12 ==================================================================
-   nproc =    1

 mkfilename : getden/=0, take file _DEN from output of DATASET  11.

 Exchange-correlation functional for the present dataset will be:
  LDA: new Teter (4/93) with spin-polarized option - ixc=1
 Citation for XC functional:
  S. Goedecker, M. Teter, J. Huetter, PRB 54, 1703 (1996)

 Real(R)+Recip(G) space primitive vectors, cartesian coordinates (Bohr,Bohr^-1):
 R(1)=  0.0000000  3.3375000  3.3375000  G(1)= -0.1498127  0.1498127  0.1498127
 R(2)=  3.3375000  0.0000000  3.3375000  G(2)=  0.1498127 -0.1498127  0.1498127
 R(3)=  3.3375000  3.3375000  0.0000000  G(3)=  0.1498127  0.1498127 -0.1498127
 Unit cell volume ucvol=  7.4352199E+01 bohr^3
 Angles (23,13,12)=  6.00000000E+01  6.00000000E+01  6.00000000E+01 degrees

 getcut: wavevector=  0.0000  0.0000  0.0000  ngfft=  10  10  10
         ecut(hartree)=      5.000   => boxcut(ratio)=   2.12576
--------------------------------------------------------------------------------

P newkpt: treating     12 bands with npw=      51 for ikpt=   1 by node    0
P newkpt: treating     12 bands with npw=      40 for ikpt=   2 by node    0
P newkpt: treating     12 bands with npw=      40 for ikpt=   3 by node    0
P newkpt: treating     12 bands with npw=      40 for ikpt=   4 by node    0
P newkpt: treating     12 bands with npw=      40 for ikpt=   5 by node    0
P newkpt: treating     12 bands with npw=      40 for ikpt=   6 by node    0
P newkpt: treating     12 bands with npw=      40 for ikpt=   7 by node    0
P newkpt: treating     12 bands with npw=      40 for ikpt=   8 by node    0


================================================================================
 prteigrs : about to open file temp_3o_DS12_EIG
 Non-SCF case, kpt    1 (  0.00000  0.00000  0.00000), residuals and eigenvalues=
  7.92E-09  1.01E-09  8.57E-10  4.21E-10  4.89E-10  2.22E-09  2.43E-09  1.74E-09
  8.01E-10  7.04E-09  4.02E-07  3.51E-10
 -3.2654E-01  6.5134E-01  6.5134E-01  6.5134E-01  7.9438E-01  7.9438E-01
  7.9438E-01  9.7907E-01  1.2018E+00  1.4949E+00  1.4949E+00  1.5384E+00
  prteigrs : nnsclo,ikpt=   50    1 max resid (incl. the buffer)=  4.01520E-07
 Non-SCF case, kpt    2 (  0.50000  0.00000  0.00000), residuals and eigenvalues=
  2.82E-09  1.38E-10  8.54E-09  1.33E-09  5.01E-10  3.26E-10  1.05E-09  7.81E-09
  7.43E-09  5.88E-09  4.36E-08  1.29E-08
 -9.7965E-02  4.1545E-02  5.1389E-01  5.1390E-01  8.3319E-01  9.1819E-01
  9.1819E-01  1.1756E+00  1.5363E+00  1.6038E+00  1.6038E+00  1.6199E+00
  prteigrs : nnsclo,ikpt=   50    2 max resid (incl. the buffer)=  4.36098E-08
 Non-SCF case, kpt    3 (  0.00000  0.50000  0.00000), residuals and eigenvalues=
  1.45E-09  7.79E-10  9.81E-10  2.79E-09  2.16E-10  3.01E-09  4.75E-10  6.96E-09
  2.07E-09  3.38E-09  2.01E-09  7.57E-10
 -9.7965E-02  4.1545E-02  5.1389E-01  5.1390E-01  8.3319E-01  9.1819E-01
  9.1819E-01  1.1756E+00  1.5363E+00  1.6038E+00  1.6038E+00  1.6199E+00
 Non-SCF case, kpt    4 (  0.50000  0.50000  0.00000), residuals and eigenvalues=
  8.76E-09  5.97E-09  7.57E-09  2.51E-09  2.89E-10  4.50E-10  6.23E-10  4.08E-09
  1.64E-09  8.49E-10  4.23E-09  7.52E-10
  3.4712E-02  3.4742E-02  3.6929E-01  3.6929E-01  6.9090E-01  6.9093E-01
  1.3687E+00  1.3687E+00  1.6459E+00  1.6459E+00  1.7993E+00  1.7993E+00
 Non-SCF case, kpt    5 (  0.00000  0.00000  0.50000), residuals and eigenvalues=
  9.92E-10  1.54E-09  1.99E-10  9.29E-11  1.60E-09  4.97E-10  9.65E-10  9.25E-11
  3.31E-10  4.15E-09  8.33E-10  2.32E-09
 -9.7965E-02  4.1545E-02  5.1390E-01  5.1390E-01  8.3319E-01  9.1819E-01
  9.1819E-01  1.1756E+00  1.5363E+00  1.6038E+00  1.6038E+00  1.6199E+00
 Non-SCF case, kpt    6 (  0.50000  0.00000  0.50000), residuals and eigenvalues=
  1.35E-10  3.49E-11  6.86E-10  1.62E-10  4.51E-10  2.76E-10  3.48E-09  7.40E-09
  6.56E-10  7.83E-10  8.28E-09  6.42E-09
  3.4712E-02  3.4742E-02  3.6929E-01  3.6929E-01  6.9090E-01  6.9093E-01
  1.3687E+00  1.3687E+00  1.6459E+00  1.6459E+00  1.7993E+00  1.7993E+00
 Non-SCF case, kpt    7 (  0.00000  0.50000  0.50000), residuals and eigenvalues=
  1.91E-10  5.94E-11  3.23E-09  1.50E-09  3.51E-09  3.01E-10  2.12E-09  5.13E-09
  5.06E-09  1.41E-09  6.66E-09  2.87E-09
  3.4712E-02  3.4742E-02  3.6929E-01  3.6929E-01  6.9090E-01  6.9093E-01
  1.3687E+00  1.3687E+00  1.6459E+00  1.6459E+00  1.7993E+00  1.7993E+00
 Non-SCF case, kpt    8 (  0.50000  0.50000  0.50000), residuals and eigenvalues=
  6.85E-10  1.24E-09  5.98E-10  4.14E-10  4.88E-10  7.19E-10  1.16E-09  6.03E-10
  6.01E-09  8.55E-10  7.03E-09  1.43E-09
 -9.7965E-02  4.1545E-02  5.1389E-01  5.1390E-01  8.3319E-01  9.1819E-01
  9.1819E-01  1.1756E+00  1.5363E+00  1.6038E+00  1.6038E+00  1.6199E+00
================================================================================

 ----iterations are completed or convergence reached----

 Mean square residual over all n,k,spin=   7.0561E-09; max=  4.0152E-07
   0.0000  0.0000  0.0000    1  4.01520E-07 kpt; spin; max resid(k); each band:
  7.92E-09 1.01E-09 8.57E-10 4.21E-10 4.89E-10 2.22E-09 2.43E-09 1.74E-09
  8.01E-10 7.04E-09 4.02E-07 3.51E-10
   0.5000  0.0000  0.0000    1  4.36098E-08 kpt; spin; max resid(k); each band:
  2.82E-09 1.38E-10 8.54E-09 1.33E-09 5.01E-10 3.26E-10 1.05E-09 7.81E-09
  7.43E-09 5.88E-09 4.36E-08 1.29E-08
   0.0000  0.5000  0.0000    1  6.95885E-09 kpt; spin; max resid(k); each band:
  1.45E-09 7.79E-10 9.81E-10 2.79E-09 2.16E-10 3.01E-09 4.75E-10 6.96E-09
  2.07E-09 3.38E-09 2.01E-09 7.57E-10
   0.5000  0.5000  0.0000    1  8.75725E-09 kpt; spin; max resid(k); each band:
  8.76E-09 5.97E-09 7.57E-09 2.51E-09 2.89E-10 4.50E-10 6.23E-10 4.08E-09
  1.64E-09 8.49E-10 4.23E-09 7.52E-10
   0.0000  0.0000  0.5000    1  4.15334E-09 kpt; spin; max resid(k); each band:
  9.92E-10 1.54E-09 1.99E-10 9.29E-11 1.60E-09 4.97E-10 9.65E-10 9.25E-11
  3.31E-10 4.15E-09 8.33E-10 2.32E-09
   0.5000  0.0000  0.5000    1  8.28138E-09 kpt; spin; max resid(k); each band:
  1.35E-10 3.49E-11 6.86E-10 1.62E-10 4.51E-10 2.76E-10 3.48E-09 7.40E-09
  6.56E-10 7.83E-10 8.28E-09 6.42E-09
   0.0000  0.5000  0.5000    1  6.65791E-09 kpt; spin; max resid(k); each band:
  1.91E-10 5.94E-11 3.23E-09 1.50E-09 3.51E-09 3.01E-10 2.12E-09 5.13E-09
  5.06E-09 1.41E-09 6.66E-09 2.87E-09
   0.5000  0.5000  0.5000    1  7.02969E-09 kpt; spin; max resid(k); each band:
  6.85E-10 1.24E-09 5.98E-10 4.14E-10 4.88E-10 7.19E-10 1.16E-09 6.03E-10
  6.01E-09 8.55E-10 7.03E-09 1.43E-09
 reduced coordinates (array xred) for    2 atoms
       0.000000000000      0.000000000000      0.000000000000
       0.250000000000      0.250000000000      0.250000000000

 cartesian coordinates (angstrom) at end:
    1      0.00000000000000     0.00000000000000     0.00000000000000
    2      0.88306446683456     0.88306446683456     0.88306446683456
 length scales=  6.675000000000  6.675000000000  6.675000000000 bohr
              =  3.532257867338  3.532257867338  3.532257867338 angstroms
 prteigrs : about to open file temp_3o_DS12_EIG
 Eigenvalues (hartree) for nkpt=   8  k points:
 kpt#   1, nband= 12, wtk=  0.12500, kpt=  0.0000  0.0000  0.0000 (reduced coord)
  -0.32654   0.65134   0.65134   0.65134   0.79438   0.79438   0.79438   0.97907
   1.20177   1.49489   1.49489   1.53837
 kpt#   2, nband= 12, wtk=  0.12500, kpt=  0.5000  0.0000  0.0000 (reduced coord)
  -0.09797   0.04155   0.51389   0.51390   0.83319   0.91819   0.91819   1.17556
   1.53632   1.60381   1.60381   1.61990
 kpt#   3, nband= 12, wtk=  0.12500, kpt=  0.0000  0.5000  0.0000 (reduced coord)
  -0.09797   0.04155   0.51389   0.51390   0.83319   0.91819   0.91819   1.17556
   1.53632   1.60381   1.60381   1.61990
 kpt#   4, nband= 12, wtk=  0.12500, kpt=  0.5000  0.5000  0.0000 (reduced coord)
   0.03471   0.03474   0.36929   0.36929   0.69090   0.69093   1.36871   1.36871
   1.64585   1.64590   1.79927   1.79927
 kpt#   5, nband= 12, wtk=  0.12500, kpt=  0.0000  0.0000  0.5000 (reduced coord)
  -0.09797   0.04155   0.51390   0.51390   0.83319   0.91819   0.91819   1.17556
   1.53632   1.60381   1.60381   1.61990
 kpt#   6, nband= 12, wtk=  0.12500, kpt=  0.5000  0.0000  0.5000 (reduced coord)
   0.03471   0.03474   0.36929   0.36929   0.69090   0.69093   1.36871   1.36871
   1.64585   1.64590   1.79927   1.79927
 kpt#   7, nband= 12, wtk=  0.12500, kpt=  0.0000  0.5000  0.5000 (reduced coord)
   0.03471   0.03474   0.36929   0.36929   0.69090   0.69093   1.36871   1.36871
   1.64585   1.64590   1.79927   1.79927
 kpt#   8, nband= 12, wtk=  0.12500, kpt=  0.5000  0.5000  0.5000 (reduced coord)
  -0.09797   0.04155   0.51389   0.51390   0.83319   0.91819   0.91819   1.17556
   1.53632   1.60381   1.60381   1.61990
 Eigenvalues (   eV  ) for nkpt=   8  k points:
 kpt#   1, nband= 12, wtk=  0.12500, kpt=  0.0000  0.0000  0.0000 (reduced coord)
  -8.88555  17.72396  17.72396  17.72396  21.61616  21.61616  21.61616  26.64192
  32.70192  40.67807  40.67808  41.86126
 kpt#   2, nband= 12, wtk=  0.12500, kpt=  0.5000  0.0000  0.0000 (reduced coord)
  -2.66578   1.13050  13.98379  13.98379  22.67217  24.98516  24.98516  31.98866
  41.80545  43.64199  43.64199  44.07963
 kpt#   3, nband= 12, wtk=  0.12500, kpt=  0.0000  0.5000  0.0000 (reduced coord)
  -2.66578   1.13050  13.98379  13.98379  22.67217  24.98516  24.98516  31.98866
  41.80545  43.64199  43.64199  44.07963
 kpt#   4, nband= 12, wtk=  0.12500, kpt=  0.5000  0.5000  0.0000 (reduced coord)
   0.94456   0.94539  10.04878  10.04878  18.80034  18.80109  37.24444  37.24444
  44.78595  44.78727  48.96053  48.96053
 kpt#   5, nband= 12, wtk=  0.12500, kpt=  0.0000  0.0000  0.5000 (reduced coord)
  -2.66578   1.13050  13.98379  13.98379  22.67217  24.98516  24.98516  31.98866
  41.80545  43.64199  43.64199  44.07963
 kpt#   6, nband= 12, wtk=  0.12500, kpt=  0.5000  0.0000  0.5000 (reduced coord)
   0.94456   0.94539  10.04878  10.04878  18.80034  18.80109  37.24444  37.24444
  44.78595  44.78727  48.96053  48.96053
 kpt#   7, nband= 12, wtk=  0.12500, kpt=  0.0000  0.5000  0.5000 (reduced coord)
   0.94456   0.94539  10.04878  10.04878  18.80034  18.80109  37.24444  37.24444
  44.78595  44.78727  48.96053  48.96053
 kpt#   8, nband= 12, wtk=  0.12500, kpt=  0.5000  0.5000  0.5000 (reduced coord)
  -2.66578   1.13050  13.98379  13.98379  22.67217  24.98516  24.98516  31.98866
  41.80545  43.64199  43.64199  44.07963
 Total charge density [el/Bohr^3]
,     Maximum=    2.9111E-01  at reduced coord.    0.1000    0.7000    0.1000
,Next maximum=    2.9111E-01  at reduced coord.    0.7000    0.1000    0.1000
,     Minimum=    1.1895E-02  at reduced coord.    0.5000    0.5000    0.5000
,Next minimum=    1.3293E-02  at reduced coord.    0.7000    0.7000    0.8000
,  Integrated=    8.0000E+00

================================================================================
== DATASET 13 ==================================================================
-   nproc =    1

 mkfilename : getwfk/=0, take file _WFK from output of DATASET  11.

 mkfilename : getwfq/=0, take file _WFQ from output of DATASET  12.

 Exchange-correlation functional for the present dataset will be:
  LDA: new Teter (4/93) with spin-polarized option - ixc=1
 Citation for XC functional:
  S. Goedecker, M. Teter, J. Huetter, PRB 54, 1703 (1996)

 Real(R)+Recip(G) space primitive vectors, cartesian coordinates (Bohr,Bohr^-1):
 R(1)=  0.0000000  3.3375000  3.3375000  G(1)= -0.1498127  0.1498127  0.1498127
 R(2)=  3.3375000  0.0000000  3.3375000  G(2)=  0.1498127 -0.1498127  0.1498127
 R(3)=  3.3375000  3.3375000  0.0000000  G(3)=  0.1498127  0.1498127 -0.1498127
 Unit cell volume ucvol=  7.4352199E+01 bohr^3
 Angles (23,13,12)=  6.00000000E+01  6.00000000E+01  6.00000000E+01 degrees
 setup1 : take into account q-point for computing boxcut.

 getcut: wavevector=  0.0000  0.0000  0.0000  ngfft=  10  10  10
         ecut(hartree)=      5.000   => boxcut(ratio)=   2.12576
--------------------------------------------------------------------------------

-inwffil : will read wavefunctions from disk file temp_3o_DS11_WFK
P newkpt: treating     12 bands with npw=      51 for ikpt=   1 by node    0
P newkpt: treating     12 bands with npw=      40 for ikpt=   2 by node    0
P newkpt: treating     12 bands with npw=      40 for ikpt=   3 by node    0
P newkpt: treating     12 bands with npw=      40 for ikpt=   4 by node    0
P newkpt: treating     12 bands with npw=      40 for ikpt=   5 by node    0
P newkpt: treating     12 bands with npw=      40 for ikpt=   6 by node    0
P newkpt: treating     12 bands with npw=      40 for ikpt=   7 by node    0
P newkpt: treating     12 bands with npw=      40 for ikpt=   8 by node    0


 ==>  initialize data related to q vector <== 

 The list of irreducible perturbations for this q vector is:
    1)    idir= 1    ipert=   1
    2)    idir= 2    ipert=   1
    3)    idir= 3    ipert=   1
    4)    idir= 1    ipert=   2
    5)    idir= 2    ipert=   2
    6)    idir= 3    ipert=   2

================================================================================

--------------------------------------------------------------------------------
 Perturbation wavevector (in red.coord.)   0.000000  0.000000  0.000000
 Perturbation : displacement of atom   1   along direction   1
 The set of symmetries contains only one element for this perturbation.
 symkpt : not enough symmetry to change the number of k points.

--------------------------------------------------------------------------------

-inwffil : will read wavefunctions from disk file temp_3o_DS11_WFK
P newkpt: treating     12 bands with npw=      51 for ikpt=   1 by node    0
P newkpt: treating     12 bands with npw=      40 for ikpt=   2 by node    0
P newkpt: treating     12 bands with npw=      40 for ikpt=   3 by node    0
P newkpt: treating     12 bands with npw=      40 for ikpt=   4 by node    0
P newkpt: treating     12 bands with npw=      40 for ikpt=   5 by node    0
P newkpt: treating     12 bands with npw=      40 for ikpt=   6 by node    0
P newkpt: treating     12 bands with npw=      40 for ikpt=   7 by node    0
P newkpt: treating     12 bands with npw=      40 for ikpt=   8 by node    0

--------------------------------------------------------------------------------

-inwffil : will read wavefunctions from disk file temp_3o_DS12_WFQ
P newkpt: treating     12 bands with npw=      51 for ikpt=   1 by node    0
P newkpt: treating     12 bands with npw=      40 for ikpt=   2 by node    0
P newkpt: treating     12 bands with npw=      40 for ikpt=   3 by node    0
P newkpt: treating     12 bands with npw=      40 for ikpt=   4 by node    0
P newkpt: treating     12 bands with npw=      40 for ikpt=   5 by node    0
P newkpt: treating     12 bands with npw=      40 for ikpt=   6 by node    0
P newkpt: treating     12 bands with npw=      40 for ikpt=   7 by node    0
P newkpt: treating     12 bands with npw=      40 for ikpt=   8 by node    0

 Initialisation of the first-order wave-functions :
  ireadwf=   0
P newkpt: treating     12 bands with npw=      51 for ikpt=   1 by node    0
P newkpt: treating     12 bands with npw=      40 for ikpt=   2 by node    0
P newkpt: treating     12 bands with npw=      40 for ikpt=   3 by node    0
P newkpt: treating     12 bands with npw=      40 for ikpt=   4 by node    0
P newkpt: treating     12 bands with npw=      40 for ikpt=   5 by node    0
P newkpt: treating     12 bands with npw=      40 for ikpt=   6 by node    0
P newkpt: treating     12 bands with npw=      40 for ikpt=   7 by node    0
P newkpt: treating     12 bands with npw=      40 for ikpt=   8 by node    0


     iter   2DEtotal(Ha)        deltaE(Ha) residm    vres2
-ETOT  1   17.257982938301     -8.236E+01 5.382E-01 9.048E+02
 ETOT  2   11.103312189821     -6.155E+00 9.313E-03 2.318E+01
 ETOT  3   10.906185976358     -1.971E-01 1.373E-03 1.364E-01
 ETOT  4   10.905115161484     -1.071E-03 2.137E-06 5.002E-04
 ETOT  5   10.905113476138     -1.685E-06 2.977E-08 3.858E-06
 ETOT  6   10.905113456651     -1.949E-08 9.033E-09 1.288E-06

 At SCF step    6   max residual=  9.03E-09 < tolwfr=  1.00E-08 =>converged.
================================================================================

 ----iterations are completed or convergence reached----

 Mean square residual over all n,k,spin=  -1.6667E-02; max=  9.0333E-09
   0.0000  0.0000  0.0000    1  2.58965E-09 kpt; spin; max resid(k); each band:
  1.65E-09 2.59E-09 2.33E-09 1.93E-09 6.60E-10 1.18E-09 9.77E-10 3.11E-10
  2.24E-09 1.30E-09-1.00E-01-1.00E-01
   0.5000  0.0000  0.0000    1  7.56232E-09 kpt; spin; max resid(k); each band:
  1.03E-09 9.83E-10 2.28E-09 2.09E-09 2.91E-09 1.36E-09 1.39E-09 4.81E-09
  7.56E-09 5.59E-09-1.00E-01-1.00E-01
   0.0000  0.5000  0.0000    1  8.75993E-09 kpt; spin; max resid(k); each band:
  1.60E-09 9.17E-10 1.84E-09 1.73E-09 3.73E-09 1.40E-09 2.86E-09 1.61E-09
  7.54E-09 8.76E-09-1.00E-01-1.00E-01
   0.5000  0.5000  0.0000    1  9.03334E-09 kpt; spin; max resid(k); each band:
  1.30E-09 9.99E-10 1.70E-09 1.60E-09 3.97E-09 2.46E-09 9.03E-09 7.18E-09
  2.01E-09 3.81E-09-1.00E-01-1.00E-01
   0.0000  0.0000  0.5000    1  7.56489E-09 kpt; spin; max resid(k); each band:
  1.58E-09 9.18E-10 1.88E-09 1.72E-09 3.75E-09 2.02E-09 1.97E-09 1.61E-09
  7.56E-09 6.88E-09-1.00E-01-1.00E-01
   0.5000  0.0000  0.5000    1  8.55513E-09 kpt; spin; max resid(k); each band:
  1.30E-09 1.00E-09 1.55E-09 1.69E-09 3.97E-09 2.45E-09 8.56E-09 7.41E-09
  1.99E-09 3.84E-09-1.00E-01-1.00E-01
   0.0000  0.5000  0.5000    1  6.18886E-09 kpt; spin; max resid(k); each band:
  1.10E-09 7.83E-10 2.17E-09 3.37E-09 3.73E-09 2.59E-09 2.31E-09 6.19E-09
  1.36E-09 4.39E-09-1.00E-01-1.00E-01
   0.5000  0.5000  0.5000    1  7.06868E-09 kpt; spin; max resid(k); each band:
  9.46E-10 9.69E-10 2.46E-09 1.75E-09 3.39E-09 6.26E-10 1.24E-09 4.84E-09
  7.07E-09 6.45E-09-1.00E-01-1.00E-01

 Thirteen components of 2nd-order total energy (hartree) are
 1,2,3: 0th-order hamiltonian combined with 1st-order wavefunctions
     kin0=   7.48181904E+01 eigvalue=  -9.52759382E+00  local=  -2.18089763E+01
 4,5,6: 1st-order hamiltonian combined with 1st and 0th-order wfs
 loc psp =  -5.65025833E+01  Hartree=   1.84562622E+01     xc=  -6.88547566E+00
 note that "loc psp" includes a xc core correction that could be resolved
 7,8,9: eventually, occupation + non-local contributions
    edocc=   2.11185373E+01     enl0=   1.25399423E+01   enl1=  -1.20918824E+02
 1-9 gives the relaxation energy (to be shifted if some occ is /=2.0)
   erelax=  -8.87105214E+01
 10,11,12 Non-relaxation  contributions : frozen-wavefunctions and Ewald
 fr.local=   5.69050827E+00 fr.nonlo=   7.56702203E+01  Ewald=   2.00810916E+01
 13,14 Frozen wf xc core corrections (1) and (2)
 frxc 1  =  -1.24034240E+01  frxc 2 =   1.05772387E+01
 Resulting in :
 2DEtotal=    0.1090511346E+02 Ha. Also 2DEtotal=    0.296743228306E+03 eV
    (2DErelax=   -8.8710521420E+01 Ha. 2DEnonrelax=    9.9615634877E+01 Ha)
    (  non-var. 2DEtotal :    1.0904931025E+01 Ha)


--------------------------------------------------------------------------------
 Perturbation wavevector (in red.coord.)   0.000000  0.000000  0.000000
 Perturbation : displacement of atom   1   along direction   2
 The set of symmetries contains only one element for this perturbation.
 symkpt : not enough symmetry to change the number of k points.

--------------------------------------------------------------------------------

-inwffil : will read wavefunctions from disk file temp_3o_DS11_WFK
P newkpt: treating     12 bands with npw=      51 for ikpt=   1 by node    0
P newkpt: treating     12 bands with npw=      40 for ikpt=   2 by node    0
P newkpt: treating     12 bands with npw=      40 for ikpt=   3 by node    0
P newkpt: treating     12 bands with npw=      40 for ikpt=   4 by node    0
P newkpt: treating     12 bands with npw=      40 for ikpt=   5 by node    0
P newkpt: treating     12 bands with npw=      40 for ikpt=   6 by node    0
P newkpt: treating     12 bands with npw=      40 for ikpt=   7 by node    0
P newkpt: treating     12 bands with npw=      40 for ikpt=   8 by node    0

--------------------------------------------------------------------------------

-inwffil : will read wavefunctions from disk file temp_3o_DS12_WFQ
P newkpt: treating     12 bands with npw=      51 for ikpt=   1 by node    0
P newkpt: treating     12 bands with npw=      40 for ikpt=   2 by node    0
P newkpt: treating     12 bands with npw=      40 for ikpt=   3 by node    0
P newkpt: treating     12 bands with npw=      40 for ikpt=   4 by node    0
P newkpt: treating     12 bands with npw=      40 for ikpt=   5 by node    0
P newkpt: treating     12 bands with npw=      40 for ikpt=   6 by node    0
P newkpt: treating     12 bands with npw=      40 for ikpt=   7 by node    0
P newkpt: treating     12 bands with npw=      40 for ikpt=   8 by node    0

 Initialisation of the first-order wave-functions :
  ireadwf=   0
P newkpt: treating     12 bands with npw=      51 for ikpt=   1 by node    0
P newkpt: treating     12 bands with npw=      40 for ikpt=   2 by node    0
P newkpt: treating     12 bands with npw=      40 for ikpt=   3 by node    0
P newkpt: treating     12 bands with npw=      40 for ikpt=   4 by node    0
P newkpt: treating     12 bands with npw=      40 for ikpt=   5 by node    0
P newkpt: treating     12 bands with npw=      40 for ikpt=   6 by node    0
P newkpt: treating     12 bands with npw=      40 for ikpt=   7 by node    0
P newkpt: treating     12 bands with npw=      40 for ikpt=   8 by node    0


     iter   2DEtotal(Ha)        deltaE(Ha) residm    vres2
-ETOT  1   17.259339794484     -8.236E+01 2.221E-01 9.049E+02
 ETOT  2   11.103398621161     -6.156E+00 8.016E-03 2.318E+01
 ETOT  3   10.906275245280     -1.971E-01 6.038E-04 1.362E-01
 ETOT  4   10.905205365507     -1.070E-03 1.552E-06 4.944E-04
 ETOT  5   10.905203699889     -1.666E-06 9.935E-09 1.311E-06

 At SCF step    5   max residual=  9.93E-09 < tolwfr=  1.00E-08 =>converged.
================================================================================

 ----iterations are completed or convergence reached----

 Mean square residual over all n,k,spin=  -1.6667E-02; max=  9.9350E-09
   0.0000  0.0000  0.0000    1  9.13991E-09 kpt; spin; max resid(k); each band:
  1.10E-09 1.41E-09 2.03E-09 1.28E-09 6.20E-10 1.10E-09 6.71E-10 8.77E-09
  8.21E-09 9.14E-09-1.00E-01-1.00E-01
   0.5000  0.0000  0.0000    1  9.93500E-09 kpt; spin; max resid(k); each band:
[...]
          ieig2rf22         0
          ieig2rf23         1
          ieig2rf31         0
          ieig2rf32         0
          ieig2rf33         1
          ieig2rf41         0
          ieig2rf42         0
          ieig2rf43         1
          ieig2rf51         0
          ieig2rf52         0
          ieig2rf53         1
          ieig2rf61         0
          ieig2rf62         0
          ieig2rf63         1
          ieig2rf71         0
          ieig2rf72         0
          ieig2rf73         1
          ieig2rf81         0
          ieig2rf82         0
          ieig2rf83         1
             iscf11         7
             iscf12        -2
             iscf13         7
             iscf21         7
             iscf22        -2
             iscf23         7
             iscf31         7
             iscf32        -2
             iscf33         7
             iscf41         7
             iscf42        -2
             iscf43         7
             iscf51         7
             iscf52        -2
             iscf53         7
             iscf61         7
             iscf62        -2
             iscf63         7
             iscf71         7
             iscf72        -2
             iscf73         7
             iscf81         7
             iscf82        -2
             iscf83         7
           istwfk11      1    1    1    1    1    1    1    1
           istwfk12      1    1    1    1    1    1    1    1
           istwfk13      1    1    1    1    1    1    1    1
           istwfk21      1    1    1    1    1    1    1    1
           istwfk22      0    0    0    0    0    0    0    0
           istwfk23      1    1    1    1    1    1    1    1
           istwfk31      1    1    1    1    1    1    1    1
           istwfk32      1    0    1    0    1    0    1    0
           istwfk33      1    1    1    1    1    1    1    1
           istwfk41      1    1    1    1    1    1    1    1
           istwfk42      0    0    0    0    0    0    0    0
           istwfk43      1    1    1    1    1    1    1    1
           istwfk51      1    1    1    1    1    1    1    1
           istwfk52      0    0    0    0    0    0    0    0
           istwfk53      1    1    1    1    1    1    1    1
           istwfk61      1    1    1    1    1    1    1    1
           istwfk62      0    0    0    0    0    0    0    0
           istwfk63      1    1    1    1    1    1    1    1
           istwfk71      1    1    1    1    1    1    1    1
           istwfk72      1    0    0    0    1    0    0    0
           istwfk73      1    1    1    1    1    1    1    1
           istwfk81      1    1    1    1    1    1    1    1
           istwfk82      0    0    0    0    0    0    0    0
           istwfk83      1    1    1    1    1    1    1    1
           jdtset       11   12   13   21   22   23   31   32   33   41
                        42   43   51   52   53   61   62   63   71   72
                        73   81   82   83
              kpt      0.00000000E+00  0.00000000E+00  0.00000000E+00
                       5.00000000E-01  0.00000000E+00  0.00000000E+00
                       0.00000000E+00  5.00000000E-01  0.00000000E+00
                       5.00000000E-01  5.00000000E-01  0.00000000E+00
                       0.00000000E+00  0.00000000E+00  5.00000000E-01
                       5.00000000E-01  0.00000000E+00  5.00000000E-01
                       0.00000000E+00  5.00000000E-01  5.00000000E-01
                       5.00000000E-01  5.00000000E-01  5.00000000E-01
         kptrlatt        2    0    0      0    2    0      0    0    2
          kptrlen      9.43987553E+00
P           mkmem           8
P          mkqmem           8
P          mk1mem           8
            natom           2
            nband          12
           nbdbuf11         0
           nbdbuf12         2
           nbdbuf13         2
           nbdbuf21         0
           nbdbuf22         2
           nbdbuf23         2
           nbdbuf31         0
           nbdbuf32         2
           nbdbuf33         2
           nbdbuf41         0
           nbdbuf42         2
           nbdbuf43         2
           nbdbuf51         0
           nbdbuf52         2
           nbdbuf53         2
           nbdbuf61         0
           nbdbuf62         2
           nbdbuf63         2
           nbdbuf71         0
           nbdbuf72         2
           nbdbuf73         2
           nbdbuf81         0
           nbdbuf82         2
           nbdbuf83         2
           ndtset          24
            ngfft          10      10      10
             nkpt           8
             nqpt11         0
             nqpt12         1
             nqpt13         1
             nqpt21         0
             nqpt22         1
             nqpt23         1
             nqpt31         0
             nqpt32         1
             nqpt33         1
             nqpt41         0
             nqpt42         1
             nqpt43         1
             nqpt51         0
             nqpt52         1
             nqpt53         1
             nqpt61         0
             nqpt62         1
             nqpt63         1
             nqpt71         0
             nqpt72         1
             nqpt73         1
             nqpt81         0
             nqpt82         1
             nqpt83         1
            nstep          50
             nsym           1
           ntypat           1
              occ      2.000000  2.000000  2.000000  2.000000  0.000000  0.000000
                       0.000000  0.000000  0.000000  0.000000  0.000000  0.000000
        optdriver11         0
        optdriver12         0
        optdriver13         1
        optdriver21         0
        optdriver22         0
        optdriver23         1
        optdriver31         0
        optdriver32         0
        optdriver33         1
        optdriver41         0
        optdriver42         0
        optdriver43         1
        optdriver51         0
        optdriver52         0
        optdriver53         1
        optdriver61         0
        optdriver62         0
        optdriver63         1
        optdriver71         0
        optdriver72         0
        optdriver73         1
        optdriver81         0
        optdriver82         0
        optdriver83         1
              qpt11    0.00000000E+00  0.00000000E+00  0.00000000E+00
              qpt12    0.00000000E+00  0.00000000E+00  0.00000000E+00
              qpt13    0.00000000E+00  0.00000000E+00  0.00000000E+00
              qpt21    0.00000000E+00  0.00000000E+00  0.00000000E+00
              qpt22    2.50000000E-01  0.00000000E+00  0.00000000E+00
              qpt23    2.50000000E-01  0.00000000E+00  0.00000000E+00
              qpt31    0.00000000E+00  0.00000000E+00  0.00000000E+00
              qpt32    5.00000000E-01  0.00000000E+00  0.00000000E+00
              qpt33    5.00000000E-01  0.00000000E+00  0.00000000E+00
              qpt41    0.00000000E+00  0.00000000E+00  0.00000000E+00
              qpt42    2.50000000E-01  2.50000000E-01  0.00000000E+00
              qpt43    2.50000000E-01  2.50000000E-01  0.00000000E+00
              qpt51    0.00000000E+00  0.00000000E+00  0.00000000E+00
              qpt52    5.00000000E-01  2.50000000E-01  0.00000000E+00
              qpt53    5.00000000E-01  2.50000000E-01  0.00000000E+00
              qpt61    0.00000000E+00  0.00000000E+00  0.00000000E+00
              qpt62   -2.50000000E-01  2.50000000E-01  0.00000000E+00
              qpt63   -2.50000000E-01  2.50000000E-01  0.00000000E+00
              qpt71    0.00000000E+00  0.00000000E+00  0.00000000E+00
              qpt72    5.00000000E-01  5.00000000E-01  0.00000000E+00
              qpt73    5.00000000E-01  5.00000000E-01  0.00000000E+00
              qpt81    0.00000000E+00  0.00000000E+00  0.00000000E+00
              qpt82   -2.50000000E-01  5.00000000E-01  2.50000000E-01
              qpt83   -2.50000000E-01  5.00000000E-01  2.50000000E-01
          rfatpol11         1       1
          rfatpol12         1       1
          rfatpol13         1       2
          rfatpol21         1       1
          rfatpol22         1       1
          rfatpol23         1       2
          rfatpol31         1       1
          rfatpol32         1       1
          rfatpol33         1       2
          rfatpol41         1       1
          rfatpol42         1       1
          rfatpol43         1       2
          rfatpol51         1       1
          rfatpol52         1       1
          rfatpol53         1       2
          rfatpol61         1       1
          rfatpol62         1       1
          rfatpol63         1       2
          rfatpol71         1       1
          rfatpol72         1       1
          rfatpol73         1       2
          rfatpol81         1       1
          rfatpol82         1       1
          rfatpol83         1       2
            rfdir11         0       0       0
            rfdir12         0       0       0
            rfdir13         1       1       1
            rfdir21         0       0       0
            rfdir22         0       0       0
            rfdir23         1       1       1
            rfdir31         0       0       0
            rfdir32         0       0       0
            rfdir33         1       1       1
            rfdir41         0       0       0
            rfdir42         0       0       0
            rfdir43         1       1       1
            rfdir51         0       0       0
            rfdir52         0       0       0
            rfdir53         1       1       1
            rfdir61         0       0       0
            rfdir62         0       0       0
            rfdir63         1       1       1
            rfdir71         0       0       0
            rfdir72         0       0       0
            rfdir73         1       1       1
            rfdir81         0       0       0
            rfdir82         0       0       0
            rfdir83         1       1       1
           rfphon11         0
           rfphon12         0
           rfphon13         1
           rfphon21         0
           rfphon22         0
           rfphon23         1
           rfphon31         0
           rfphon32         0
           rfphon33         1
           rfphon41         0
           rfphon42         0
           rfphon43         1
           rfphon51         0
           rfphon52         0
           rfphon53         1
           rfphon61         0
           rfphon62         0
           rfphon63         1
           rfphon71         0
           rfphon72         0
           rfphon73         1
           rfphon81         0
           rfphon82         0
           rfphon83         1
            rprim      0.0000000000E+00  5.0000000000E-01  5.0000000000E-01
                       5.0000000000E-01  0.0000000000E+00  5.0000000000E-01
                       5.0000000000E-01  5.0000000000E-01  0.0000000000E+00
          spgroup           1
           strten11    2.0895031549E-03  2.0895031617E-03  2.0895031504E-03
                       1.0276673482E-09  5.1783210902E-10 -1.7537255639E-09
           strten13    0.0000000000E+00  0.0000000000E+00  0.0000000000E+00
                       0.0000000000E+00  0.0000000000E+00  0.0000000000E+00
           strten21    2.0895031549E-03  2.0895031617E-03  2.0895031504E-03
                       1.0276673482E-09  5.1783210902E-10 -1.7537255639E-09
           strten23    0.0000000000E+00  0.0000000000E+00  0.0000000000E+00
                       0.0000000000E+00  0.0000000000E+00  0.0000000000E+00
           strten31    2.0895031549E-03  2.0895031617E-03  2.0895031504E-03
                       1.0276673482E-09  5.1783210902E-10 -1.7537255639E-09
           strten33    0.0000000000E+00  0.0000000000E+00  0.0000000000E+00
                       0.0000000000E+00  0.0000000000E+00  0.0000000000E+00
           strten41    2.0895031549E-03  2.0895031617E-03  2.0895031504E-03
                       1.0276673482E-09  5.1783210902E-10 -1.7537255639E-09
           strten43    0.0000000000E+00  0.0000000000E+00  0.0000000000E+00
                       0.0000000000E+00  0.0000000000E+00  0.0000000000E+00
           strten51    2.0895031549E-03  2.0895031617E-03  2.0895031504E-03
                       1.0276673482E-09  5.1783210902E-10 -1.7537255639E-09
           strten53    0.0000000000E+00  0.0000000000E+00  0.0000000000E+00
                       0.0000000000E+00  0.0000000000E+00  0.0000000000E+00
           strten61    2.0895031549E-03  2.0895031617E-03  2.0895031504E-03
                       1.0276673482E-09  5.1783210902E-10 -1.7537255639E-09
           strten63    0.0000000000E+00  0.0000000000E+00  0.0000000000E+00
                       0.0000000000E+00  0.0000000000E+00  0.0000000000E+00
           strten71    2.0895031549E-03  2.0895031617E-03  2.0895031504E-03
                       1.0276673482E-09  5.1783210902E-10 -1.7537255639E-09
           strten73    0.0000000000E+00  0.0000000000E+00  0.0000000000E+00
                       0.0000000000E+00  0.0000000000E+00  0.0000000000E+00
           strten81    2.0895031549E-03  2.0895031617E-03  2.0895031504E-03
                       1.0276673482E-09  5.1783210902E-10 -1.7537255639E-09
           strten83    0.0000000000E+00  0.0000000000E+00  0.0000000000E+00
                       0.0000000000E+00  0.0000000000E+00  0.0000000000E+00
           tolvrs11    1.00000000E-08
           tolvrs12    0.00000000E+00
           tolvrs13    0.00000000E+00
           tolvrs21    1.00000000E-08
           tolvrs22    0.00000000E+00
           tolvrs23    0.00000000E+00
           tolvrs31    1.00000000E-08
           tolvrs32    0.00000000E+00
           tolvrs33    0.00000000E+00
           tolvrs41    1.00000000E-08
           tolvrs42    0.00000000E+00
           tolvrs43    0.00000000E+00
           tolvrs51    1.00000000E-08
           tolvrs52    0.00000000E+00
           tolvrs53    0.00000000E+00
           tolvrs61    1.00000000E-08
           tolvrs62    0.00000000E+00
           tolvrs63    0.00000000E+00
           tolvrs71    1.00000000E-08
           tolvrs72    0.00000000E+00
           tolvrs73    0.00000000E+00
           tolvrs81    1.00000000E-08
           tolvrs82    0.00000000E+00
           tolvrs83    0.00000000E+00
           tolwfr11    0.00000000E+00
           tolwfr12    1.00000000E-08
           tolwfr13    1.00000000E-08
           tolwfr21    0.00000000E+00
           tolwfr22    1.00000000E-08
           tolwfr23    1.00000000E-08
           tolwfr31    0.00000000E+00
           tolwfr32    1.00000000E-08
           tolwfr33    1.00000000E-08
           tolwfr41    0.00000000E+00
           tolwfr42    1.00000000E-08
           tolwfr43    1.00000000E-08
           tolwfr51    0.00000000E+00
           tolwfr52    1.00000000E-08
           tolwfr53    1.00000000E-08
           tolwfr61    0.00000000E+00
           tolwfr62    1.00000000E-08
           tolwfr63    1.00000000E-08
           tolwfr71    0.00000000E+00
           tolwfr72    1.00000000E-08
           tolwfr73    1.00000000E-08
           tolwfr81    0.00000000E+00
           tolwfr82    1.00000000E-08
           tolwfr83    1.00000000E-08
            typat      1  1
              wtk        0.12500    0.12500    0.12500    0.12500    0.12500    0.12500
                         0.12500    0.12500
           xangst      0.0000000000E+00  0.0000000000E+00  0.0000000000E+00
                       8.8306446683E-01  8.8306446683E-01  8.8306446683E-01
            xcart      0.0000000000E+00  0.0000000000E+00  0.0000000000E+00
                       1.6687500000E+00  1.6687500000E+00  1.6687500000E+00
             xred      0.0000000000E+00  0.0000000000E+00  0.0000000000E+00
                       2.5000000000E-01  2.5000000000E-01  2.5000000000E-01
            znucl        6.00000

================================================================================


- Timing analysis has been suppressed with timopt=0



================================================================================

 Suggested references for the acknowledgment of ABINIT usage.

 The users of ABINIT have little formal obligations with respect to the ABINIT group
 (those specified in the GNU General Public License, http://www.gnu.org/copyleft/gpl.txt).
 However, it is common practice in the scientific literature,
 to acknowledge the efforts of people that have made the research possible.
 In this spirit, please find below suggested citations of work written by ABINIT developers,
 corresponding to implementations inside of ABINIT that you have used in the present run.
 Note also that it will be of great value to readers of publications presenting these results,
 to read papers enabling them to understand the theoretical formalism and details
 of the ABINIT implementation.
 For information on why they are suggested, see also http://www.abinit.org/about/?text=acknowledgments.

 [1] First-principles responses of solids to atomic displacements and homogeneous electric fields:,
 implementation of a conjugate-gradient algorithm. X. Gonze, Phys. Rev. B55, 10337 (1997).
 Comment : Non-vanishing rfphon and/or rfelfd, in the norm-conserving case.

 [2] Dynamical matrices, Born effective charges, dielectric permittivity tensors, and ,
 interatomic force constants from density-functional perturbation theory,
 X. Gonze and C. Lee, Phys. Rev. B55, 10355 (1997).
 Comment : Non-vanishing rfphon and/or rfelfd, in the norm-conserving case.

 [3] ABINIT : First-principles approach of materials and nanosystem properties.
 X. Gonze, B. Amadon, P.-M. Anglade, J.-M. Beuken, F. Bottin, P. Boulanger, F. Bruneval,
 D. Caliste, R. Caracas, M. Cote, T. Deutsch, L. Genovese, Ph. Ghosez, M. Giantomassi
 S. Goedecker, D.R. Hamann, P. Hermet, F. Jollet, G. Jomard, S. Leroux, M. Mancini, S. Mazevet,
 M.J.T. Oliveira, G. Onida, Y. Pouillon, T. Rangel, G.-M. Rignanese, D. Sangalli, R. Shaltaf,
 M. Torrent, M.J. Verstraete, G. Zerah, J.W. Zwanziger
 Computer Phys. Comm. 180, 2582-2615 (2009).
 Comment : the third generic paper describing the ABINIT project.
 Note that a version of this paper, that is not formatted for Computer Phys. Comm. 
 is available at http://www.abinit.org/about/ABINIT_CPC_v10.pdf .
 The licence allows the authors to put it on the Web.

 [4] A brief introduction to the ABINIT software package.
 X. Gonze, G.-M. Rignanese, M. Verstraete, J.-M. Beuken, Y. Pouillon, R. Caracas, F. Jollet,
 M. Torrent, G. Zerah, M. Mikami, Ph. Ghosez, M. Veithen, J.-Y. Raty, V. Olevano, F. Bruneval,
 L. Reining, R. Godby, G. Onida, D.R. Hamann, and D.C. Allan.
 Z. Kristallogr. 220, 558-562 (2005).
 Comment : the second generic paper describing the ABINIT project. Note that this paper
 should be cited especially if you are using the GW part of ABINIT, as several authors
 of this part are not in the list of authors of the first or third paper.
 The .pdf of the latter paper is available at http://www.abinit.org/about/zfk_0505-06_558-562.pdf.
 Note that it should not redistributed (Copyright by Oldenburg Wissenshaftverlag,
 the licence allows the authors to put it on the Web).


 And optionally :

 [5] First-principles computation of material properties : the ABINIT software project. 
 X. Gonze, J.-M. Beuken, R. Caracas, F. Detraux, M. Fuchs, G.-M. Rignanese, L. Sindic,
 M. Verstraete, G. Zerah, F. Jollet, M. Torrent, A. Roy, M. Mikami, Ph. Ghosez, J.-Y. Raty, D.C. Allan.
 Computational Materials Science 25, 478-492 (2002). http://dx.doi.org/10.1016/S0927-0256(02)00325-7
 Comment : the original paper describing the ABINIT project.
-
- Proc.   0 individual time (sec): cpu=         11.1  wall=         11.1

================================================================================

 Calculation completed.
.Delivered   35 WARNINGs and  72 COMMENTs to log file.
+Overall time at end (sec) : cpu=         11.1  wall=         11.1
