
.Version 7.10.4 of ABINIT 
.(MPI version, prepared for a x86_64_linux_gnu4.7 computer) 

.Copyright (C) 1998-2014 ABINIT group . 
 ABINIT comes with ABSOLUTELY NO WARRANTY.
 It is free software, and you are welcome to redistribute it
 under certain conditions (GNU General Public License,
 see ~abinit/COPYING or http://www.gnu.org/copyleft/gpl.txt).

 ABINIT is a project of the Universite Catholique de Louvain,
 Corning Inc. and other collaborators, see ~abinit/doc/developers/contributors.txt .
 Please read ~abinit/doc/users/acknowledgments.html for suggested
 acknowledgments of the ABINIT effort.
 For more information, see http://www.abinit.org .

.Starting date : Wed 11 Mar 2015.
- ( at 10h20 )
  
- input  file    -> temp_4.in
- output file    -> temp_4.out
- root for input  files -> temp_4i
- root for output files -> temp_4o


 DATASET   11 : space group P1 (#  1); Bravais aP (primitive triclinic)
================================================================================
 Values of the parameters that define the memory need for DATASET 11.
   intxc =         0  ionmov =         0    iscf =         7 xclevel =         1
  lmnmax =         1   lnmax =         1   mband =        12  mffmem =         1
P  mgfft =        10   mkmem =         8 mpssoang=         2     mpw =        51
  mqgrid =      3001   natom =         2    nfft =      1000    nkpt =         8
  nloalg =         4  nspden =         1 nspinor =         1  nsppol =         1
    nsym =         1  n1xccc =      2501  ntypat =         1  occopt =         1
================================================================================
P This job should need less than                       0.892 Mbytes of memory.
  Rough estimation (10% accuracy) of disk space for files :
_ WF disk file :      0.077 Mbytes ; DEN or POT disk file :      0.010 Mbytes.
================================================================================


 DATASET   12 : space group P1 (#  1); Bravais aP (primitive triclinic)
================================================================================
 Values of the parameters that define the memory need for DATASET 12.
   intxc =         0  ionmov =         0    iscf =        -2 xclevel =         1
  lmnmax =         1   lnmax =         1   mband =        12  mffmem =         1
P  mgfft =        10   mkmem =        85 mpssoang=         2     mpw =        51
  mqgrid =      3001   natom =         2    nfft =      1000    nkpt =        85
  nloalg =         4  nspden =         1 nspinor =         1  nsppol =         1
    nsym =         1  n1xccc =      2501  ntypat =         1  occopt =         1
================================================================================
P This job should need less than                       1.675 Mbytes of memory.
  Rough estimation (10% accuracy) of disk space for files :
_ WF disk file :      0.796 Mbytes ; DEN or POT disk file :      0.010 Mbytes.
================================================================================


 DATASET   13 : space group P1 (#  1); Bravais aP (primitive triclinic)
================================================================================
 Values of the parameters that define the memory need for DATASET 13.
   intxc =         0  ionmov =         0    iscf =        -2 xclevel =         1
  lmnmax =         1   lnmax =         1   mband =        12  mffmem =         1
P  mgfft =        10   mkmem =         8 mpssoang=         2     mpw =        51
  mqgrid =      3001   natom =         2    nfft =      1000    nkpt =         8
  nloalg =         4  nspden =         1 nspinor =         1  nsppol =         1
    nsym =         1  n1xccc =      2501  ntypat =         1  occopt =         1
================================================================================
P This job should need less than                       0.770 Mbytes of memory.
  Rough estimation (10% accuracy) of disk space for files :
_ WF disk file :      0.077 Mbytes ; DEN or POT disk file :      0.010 Mbytes.
================================================================================


 DATASET   14 : space group P1 (#  1); Bravais aP (primitive triclinic)
================================================================================
 Values of the parameters that define the memory need for DATASET 14 (RF).
   intxc =         0    iscf =         7 xclevel =         1  lmnmax =         1
   lnmax =         1   mband =        12  mffmem =         1   mgfft =        10
P  mkmem =         8  mkqmem =         8  mk1mem =         8 mpssoang=         2
     mpw =        51  mqgrid =      3001   natom =         2    nfft =      1000
    nkpt =         8  nloalg =         4  nspden =         1 nspinor =         1
  nsppol =         1    nsym =         1  n1xccc =      2501  ntypat =         1
  occopt =         1
================================================================================
P This job should need less than                       0.995 Mbytes of memory.
  Rough estimation (10% accuracy) of disk space for files :
_ WF disk file :      0.077 Mbytes ; DEN or POT disk file :      0.010 Mbytes.
================================================================================


 DATASET   15 : space group P1 (#  1); Bravais aP (primitive triclinic)
================================================================================
 Values of the parameters that define the memory need for DATASET 15.
   intxc =         0  ionmov =         0    iscf =        -2 xclevel =         1
  lmnmax =         1   lnmax =         1   mband =        12  mffmem =         1
P  mgfft =        10   mkmem =        85 mpssoang=         2     mpw =        51
  mqgrid =      3001   natom =         2    nfft =      1000    nkpt =        85
  nloalg =         4  nspden =         1 nspinor =         1  nsppol =         1
    nsym =         1  n1xccc =      2501  ntypat =         1  occopt =         1
================================================================================
P This job should need less than                       1.675 Mbytes of memory.
  Rough estimation (10% accuracy) of disk space for files :
_ WF disk file :      0.796 Mbytes ; DEN or POT disk file :      0.010 Mbytes.
================================================================================


 DATASET   16 : space group P1 (#  1); Bravais aP (primitive triclinic)
================================================================================
 Values of the parameters that define the memory need for DATASET 16 (RF).
   intxc =         0    iscf =        -2 xclevel =         1  lmnmax =         1
   lnmax =         1   mband =        12  mffmem =         1   mgfft =        10
P  mkmem =        85  mkqmem =        85  mk1mem =        85 mpssoang=         2
     mpw =        51  mqgrid =      3001   natom =         2    nfft =      1000
    nkpt =        85  nloalg =         4  nspden =         1 nspinor =         1
  nsppol =         1    nsym =         1  n1xccc =      2501  ntypat =         1
  occopt =         1
================================================================================
P This job should need less than                       3.471 Mbytes of memory.
  Rough estimation (10% accuracy) of disk space for files :
_ WF disk file :      0.796 Mbytes ; DEN or POT disk file :      0.010 Mbytes.
================================================================================


 DATASET   21 : space group P1 (#  1); Bravais aP (primitive triclinic)
================================================================================
 Values of the parameters that define the memory need for DATASET 21.
   intxc =         0  ionmov =         0    iscf =         7 xclevel =         1
  lmnmax =         1   lnmax =         1   mband =        12  mffmem =         1
P  mgfft =        10   mkmem =         8 mpssoang=         2     mpw =        51
  mqgrid =      3001   natom =         2    nfft =      1000    nkpt =         8
  nloalg =         4  nspden =         1 nspinor =         1  nsppol =         1
    nsym =         1  n1xccc =      2501  ntypat =         1  occopt =         1
================================================================================
P This job should need less than                       0.892 Mbytes of memory.
  Rough estimation (10% accuracy) of disk space for files :
_ WF disk file :      0.077 Mbytes ; DEN or POT disk file :      0.010 Mbytes.
================================================================================


 DATASET   22 : space group P1 (#  1); Bravais aP (primitive triclinic)
================================================================================
 Values of the parameters that define the memory need for DATASET 22.
   intxc =         0  ionmov =         0    iscf =        -2 xclevel =         1
  lmnmax =         1   lnmax =         1   mband =        12  mffmem =         1
P  mgfft =        10   mkmem =        85 mpssoang=         2     mpw =        51
  mqgrid =      3001   natom =         2    nfft =      1000    nkpt =        85
  nloalg =         4  nspden =         1 nspinor =         1  nsppol =         1
    nsym =         1  n1xccc =      2501  ntypat =         1  occopt =         1
================================================================================
P This job should need less than                       1.675 Mbytes of memory.
  Rough estimation (10% accuracy) of disk space for files :
_ WF disk file :      0.796 Mbytes ; DEN or POT disk file :      0.010 Mbytes.
================================================================================


 DATASET   23 : space group P1 (#  1); Bravais aP (primitive triclinic)
================================================================================
 Values of the parameters that define the memory need for DATASET 23.
   intxc =         0  ionmov =         0    iscf =        -2 xclevel =         1
  lmnmax =         1   lnmax =         1   mband =        12  mffmem =         1
P  mgfft =        10   mkmem =         8 mpssoang=         2     mpw =        43
  mqgrid =      3001   natom =         2    nfft =      1000    nkpt =         8
  nloalg =         4  nspden =         1 nspinor =         1  nsppol =         1
    nsym =         1  n1xccc =      2501  ntypat =         1  occopt =         1
================================================================================
P This job should need less than                       0.755 Mbytes of memory.
  Rough estimation (10% accuracy) of disk space for files :
_ WF disk file :      0.065 Mbytes ; DEN or POT disk file :      0.010 Mbytes.
================================================================================


 DATASET   24 : space group P1 (#  1); Bravais aP (primitive triclinic)
================================================================================
 Values of the parameters that define the memory need for DATASET 24 (RF).
   intxc =         0    iscf =         7 xclevel =         1  lmnmax =         1
   lnmax =         1   mband =        12  mffmem =         1   mgfft =        10
P  mkmem =         8  mkqmem =         8  mk1mem =         8 mpssoang=         2
     mpw =        51  mqgrid =      3001   natom =         2    nfft =      1000
    nkpt =         8  nloalg =         4  nspden =         1 nspinor =         1
  nsppol =         1    nsym =         1  n1xccc =      2501  ntypat =         1
  occopt =         1
================================================================================
P This job should need less than                       1.052 Mbytes of memory.
  Rough estimation (10% accuracy) of disk space for files :
_ WF disk file :      0.077 Mbytes ; DEN or POT disk file :      0.010 Mbytes.
================================================================================


 DATASET   25 : space group P1 (#  1); Bravais aP (primitive triclinic)
================================================================================
 Values of the parameters that define the memory need for DATASET 25.
   intxc =         0  ionmov =         0    iscf =        -2 xclevel =         1
  lmnmax =         1   lnmax =         1   mband =        12  mffmem =         1
P  mgfft =        10   mkmem =        85 mpssoang=         2     mpw =        43
  mqgrid =      3001   natom =         2    nfft =      1000    nkpt =        85
  nloalg =         4  nspden =         1 nspinor =         1  nsppol =         1
    nsym =         1  n1xccc =      2501  ntypat =         1  occopt =         1
================================================================================
P This job should need less than                       1.540 Mbytes of memory.
  Rough estimation (10% accuracy) of disk space for files :
_ WF disk file :      0.671 Mbytes ; DEN or POT disk file :      0.010 Mbytes.
================================================================================


 DATASET   26 : space group P1 (#  1); Bravais aP (primitive triclinic)
================================================================================
 Values of the parameters that define the memory need for DATASET 26 (RF).
   intxc =         0    iscf =        -2 xclevel =         1  lmnmax =         1
   lnmax =         1   mband =        12  mffmem =         1   mgfft =        10
P  mkmem =        85  mkqmem =        85  mk1mem =        85 mpssoang=         2
     mpw =        51  mqgrid =      3001   natom =         2    nfft =      1000
    nkpt =        85  nloalg =         4  nspden =         1 nspinor =         1
  nsppol =         1    nsym =         1  n1xccc =      2501  ntypat =         1
  occopt =         1
================================================================================
P This job should need less than                       3.520 Mbytes of memory.
  Rough estimation (10% accuracy) of disk space for files :
_ WF disk file :      0.796 Mbytes ; DEN or POT disk file :      0.010 Mbytes.
================================================================================


 DATASET   31 : space group P1 (#  1); Bravais aP (primitive triclinic)
================================================================================
 Values of the parameters that define the memory need for DATASET 31.
   intxc =         0  ionmov =         0    iscf =         7 xclevel =         1
  lmnmax =         1   lnmax =         1   mband =        12  mffmem =         1
P  mgfft =        10   mkmem =         8 mpssoang=         2     mpw =        51
  mqgrid =      3001   natom =         2    nfft =      1000    nkpt =         8
  nloalg =         4  nspden =         1 nspinor =         1  nsppol =         1
    nsym =         1  n1xccc =      2501  ntypat =         1  occopt =         1
================================================================================
P This job should need less than                       0.892 Mbytes of memory.
  Rough estimation (10% accuracy) of disk space for files :
_ WF disk file :      0.077 Mbytes ; DEN or POT disk file :      0.010 Mbytes.
================================================================================


 DATASET   32 : space group P1 (#  1); Bravais aP (primitive triclinic)
================================================================================
 Values of the parameters that define the memory need for DATASET 32.
   intxc =         0  ionmov =         0    iscf =        -2 xclevel =         1
  lmnmax =         1   lnmax =         1   mband =        12  mffmem =         1
P  mgfft =        10   mkmem =        85 mpssoang=         2     mpw =        51
  mqgrid =      3001   natom =         2    nfft =      1000    nkpt =        85
  nloalg =         4  nspden =         1 nspinor =         1  nsppol =         1
    nsym =         1  n1xccc =      2501  ntypat =         1  occopt =         1
================================================================================
P This job should need less than                       1.675 Mbytes of memory.
  Rough estimation (10% accuracy) of disk space for files :
_ WF disk file :      0.796 Mbytes ; DEN or POT disk file :      0.010 Mbytes.
================================================================================


 DATASET   33 : space group P1 (#  1); Bravais aP (primitive triclinic)
================================================================================
 Values of the parameters that define the memory need for DATASET 33.
   intxc =         0  ionmov =         0    iscf =        -2 xclevel =         1
  lmnmax =         1   lnmax =         1   mband =        12  mffmem =         1
P  mgfft =        10   mkmem =         8 mpssoang=         2     mpw =        51
  mqgrid =      3001   natom =         2    nfft =      1000    nkpt =         8
  nloalg =         4  nspden =         1 nspinor =         1  nsppol =         1
    nsym =         1  n1xccc =      2501  ntypat =         1  occopt =         1
================================================================================
P This job should need less than                       0.770 Mbytes of memory.
  Rough estimation (10% accuracy) of disk space for files :
_ WF disk file :      0.077 Mbytes ; DEN or POT disk file :      0.010 Mbytes.
================================================================================


 DATASET   34 : space group P1 (#  1); Bravais aP (primitive triclinic)
================================================================================
 Values of the parameters that define the memory need for DATASET 34 (RF).
   intxc =         0    iscf =         7 xclevel =         1  lmnmax =         1
   lnmax =         1   mband =        12  mffmem =         1   mgfft =        10
P  mkmem =         8  mkqmem =         8  mk1mem =         8 mpssoang=         2
     mpw =        51  mqgrid =      3001   natom =         2    nfft =      1000
    nkpt =         8  nloalg =         4  nspden =         1 nspinor =         1
  nsppol =         1    nsym =         1  n1xccc =      2501  ntypat =         1
  occopt =         1
================================================================================
P This job should need less than                       1.052 Mbytes of memory.
  Rough estimation (10% accuracy) of disk space for files :
_ WF disk file :      0.077 Mbytes ; DEN or POT disk file :      0.010 Mbytes.
================================================================================


 DATASET   35 : space group P1 (#  1); Bravais aP (primitive triclinic)
================================================================================
 Values of the parameters that define the memory need for DATASET 35.
   intxc =         0  ionmov =         0    iscf =        -2 xclevel =         1
  lmnmax =         1   lnmax =         1   mband =        12  mffmem =         1
P  mgfft =        10   mkmem =        85 mpssoang=         2     mpw =        51
  mqgrid =      3001   natom =         2    nfft =      1000    nkpt =        85
  nloalg =         4  nspden =         1 nspinor =         1  nsppol =         1
    nsym =         1  n1xccc =      2501  ntypat =         1  occopt =         1
================================================================================
P This job should need less than                       1.675 Mbytes of memory.
  Rough estimation (10% accuracy) of disk space for files :
_ WF disk file :      0.796 Mbytes ; DEN or POT disk file :      0.010 Mbytes.
================================================================================


 DATASET   36 : space group P1 (#  1); Bravais aP (primitive triclinic)
================================================================================
 Values of the parameters that define the memory need for DATASET 36 (RF).
   intxc =         0    iscf =        -2 xclevel =         1  lmnmax =         1
   lnmax =         1   mband =        12  mffmem =         1   mgfft =        10
P  mkmem =        85  mkqmem =        85  mk1mem =        85 mpssoang=         2
     mpw =        51  mqgrid =      3001   natom =         2    nfft =      1000
    nkpt =        85  nloalg =         4  nspden =         1 nspinor =         1
  nsppol =         1    nsym =         1  n1xccc =      2501  ntypat =         1
  occopt =         1
================================================================================
P This job should need less than                       3.520 Mbytes of memory.
  Rough estimation (10% accuracy) of disk space for files :
_ WF disk file :      0.796 Mbytes ; DEN or POT disk file :      0.010 Mbytes.
================================================================================


 DATASET   41 : space group P1 (#  1); Bravais aP (primitive triclinic)
================================================================================
 Values of the parameters that define the memory need for DATASET 41.
   intxc =         0  ionmov =         0    iscf =         7 xclevel =         1
  lmnmax =         1   lnmax =         1   mband =        12  mffmem =         1
P  mgfft =        10   mkmem =         8 mpssoang=         2     mpw =        51
  mqgrid =      3001   natom =         2    nfft =      1000    nkpt =         8
  nloalg =         4  nspden =         1 nspinor =         1  nsppol =         1
    nsym =         1  n1xccc =      2501  ntypat =         1  occopt =         1
================================================================================
P This job should need less than                       0.892 Mbytes of memory.
  Rough estimation (10% accuracy) of disk space for files :
_ WF disk file :      0.077 Mbytes ; DEN or POT disk file :      0.010 Mbytes.
================================================================================


 DATASET   42 : space group P1 (#  1); Bravais aP (primitive triclinic)
================================================================================
 Values of the parameters that define the memory need for DATASET 42.
   intxc =         0  ionmov =         0    iscf =        -2 xclevel =         1
  lmnmax =         1   lnmax =         1   mband =        12  mffmem =         1
P  mgfft =        10   mkmem =        85 mpssoang=         2     mpw =        51
  mqgrid =      3001   natom =         2    nfft =      1000    nkpt =        85
  nloalg =         4  nspden =         1 nspinor =         1  nsppol =         1
    nsym =         1  n1xccc =      2501  ntypat =         1  occopt =         1
================================================================================
P This job should need less than                       1.675 Mbytes of memory.
  Rough estimation (10% accuracy) of disk space for files :
_ WF disk file :      0.796 Mbytes ; DEN or POT disk file :      0.010 Mbytes.
================================================================================


 DATASET   43 : space group P1 (#  1); Bravais aP (primitive triclinic)
================================================================================
 Values of the parameters that define the memory need for DATASET 43.
   intxc =         0  ionmov =         0    iscf =        -2 xclevel =         1
  lmnmax =         1   lnmax =         1   mband =        12  mffmem =         1
P  mgfft =        10   mkmem =         8 mpssoang=         2     mpw =        44
  mqgrid =      3001   natom =         2    nfft =      1000    nkpt =         8
  nloalg =         4  nspden =         1 nspinor =         1  nsppol =         1
    nsym =         1  n1xccc =      2501  ntypat =         1  occopt =         1
================================================================================
P This job should need less than                       0.757 Mbytes of memory.
  Rough estimation (10% accuracy) of disk space for files :
_ WF disk file :      0.066 Mbytes ; DEN or POT disk file :      0.010 Mbytes.
================================================================================


 DATASET   44 : space group P1 (#  1); Bravais aP (primitive triclinic)
================================================================================
 Values of the parameters that define the memory need for DATASET 44 (RF).
   intxc =         0    iscf =         7 xclevel =         1  lmnmax =         1
   lnmax =         1   mband =        12  mffmem =         1   mgfft =        10
P  mkmem =         8  mkqmem =         8  mk1mem =         8 mpssoang=         2
     mpw =        51  mqgrid =      3001   natom =         2    nfft =      1000
    nkpt =         8  nloalg =         4  nspden =         1 nspinor =         1
  nsppol =         1    nsym =         1  n1xccc =      2501  ntypat =         1
  occopt =         1
================================================================================
P This job should need less than                       1.052 Mbytes of memory.
  Rough estimation (10% accuracy) of disk space for files :
_ WF disk file :      0.077 Mbytes ; DEN or POT disk file :      0.010 Mbytes.
================================================================================


 DATASET   45 : space group P1 (#  1); Bravais aP (primitive triclinic)
================================================================================
 Values of the parameters that define the memory need for DATASET 45.
   intxc =         0  ionmov =         0    iscf =        -2 xclevel =         1
  lmnmax =         1   lnmax =         1   mband =        12  mffmem =         1
P  mgfft =        10   mkmem =        85 mpssoang=         2     mpw =        44
  mqgrid =      3001   natom =         2    nfft =      1000    nkpt =        85
  nloalg =         4  nspden =         1 nspinor =         1  nsppol =         1
    nsym =         1  n1xccc =      2501  ntypat =         1  occopt =         1
================================================================================
P This job should need less than                       1.557 Mbytes of memory.
  Rough estimation (10% accuracy) of disk space for files :
_ WF disk file :      0.687 Mbytes ; DEN or POT disk file :      0.010 Mbytes.
================================================================================


 DATASET   46 : space group P1 (#  1); Bravais aP (primitive triclinic)
================================================================================
 Values of the parameters that define the memory need for DATASET 46 (RF).
   intxc =         0    iscf =        -2 xclevel =         1  lmnmax =         1
   lnmax =         1   mband =        12  mffmem =         1   mgfft =        10
P  mkmem =        85  mkqmem =        85  mk1mem =        85 mpssoang=         2
     mpw =        51  mqgrid =      3001   natom =         2    nfft =      1000
    nkpt =        85  nloalg =         4  nspden =         1 nspinor =         1
  nsppol =         1    nsym =         1  n1xccc =      2501  ntypat =         1
  occopt =         1
================================================================================
P This job should need less than                       3.520 Mbytes of memory.
  Rough estimation (10% accuracy) of disk space for files :
_ WF disk file :      0.796 Mbytes ; DEN or POT disk file :      0.010 Mbytes.
================================================================================


 DATASET   51 : space group P1 (#  1); Bravais aP (primitive triclinic)
================================================================================
 Values of the parameters that define the memory need for DATASET 51.
   intxc =         0  ionmov =         0    iscf =         7 xclevel =         1
  lmnmax =         1   lnmax =         1   mband =        12  mffmem =         1
P  mgfft =        10   mkmem =         8 mpssoang=         2     mpw =        51
  mqgrid =      3001   natom =         2    nfft =      1000    nkpt =         8
  nloalg =         4  nspden =         1 nspinor =         1  nsppol =         1
    nsym =         1  n1xccc =      2501  ntypat =         1  occopt =         1
================================================================================
P This job should need less than                       0.892 Mbytes of memory.
  Rough estimation (10% accuracy) of disk space for files :
_ WF disk file :      0.077 Mbytes ; DEN or POT disk file :      0.010 Mbytes.
================================================================================


 DATASET   52 : space group P1 (#  1); Bravais aP (primitive triclinic)
================================================================================
 Values of the parameters that define the memory need for DATASET 52.
   intxc =         0  ionmov =         0    iscf =        -2 xclevel =         1
  lmnmax =         1   lnmax =         1   mband =        12  mffmem =         1
P  mgfft =        10   mkmem =        85 mpssoang=         2     mpw =        51
  mqgrid =      3001   natom =         2    nfft =      1000    nkpt =        85
  nloalg =         4  nspden =         1 nspinor =         1  nsppol =         1
    nsym =         1  n1xccc =      2501  ntypat =         1  occopt =         1
================================================================================
P This job should need less than                       1.675 Mbytes of memory.
  Rough estimation (10% accuracy) of disk space for files :
_ WF disk file :      0.796 Mbytes ; DEN or POT disk file :      0.010 Mbytes.
================================================================================


 DATASET   53 : space group P1 (#  1); Bravais aP (primitive triclinic)
================================================================================
 Values of the parameters that define the memory need for DATASET 53.
   intxc =         0  ionmov =         0    iscf =        -2 xclevel =         1
  lmnmax =         1   lnmax =         1   mband =        12  mffmem =         1
P  mgfft =        10   mkmem =         8 mpssoang=         2     mpw =        43
  mqgrid =      3001   natom =         2    nfft =      1000    nkpt =         8
  nloalg =         4  nspden =         1 nspinor =         1  nsppol =         1
    nsym =         1  n1xccc =      2501  ntypat =         1  occopt =         1
================================================================================
P This job should need less than                       0.755 Mbytes of memory.
  Rough estimation (10% accuracy) of disk space for files :
_ WF disk file :      0.065 Mbytes ; DEN or POT disk file :      0.010 Mbytes.
================================================================================


 DATASET   54 : space group P1 (#  1); Bravais aP (primitive triclinic)
================================================================================
 Values of the parameters that define the memory need for DATASET 54 (RF).
   intxc =         0    iscf =         7 xclevel =         1  lmnmax =         1
   lnmax =         1   mband =        12  mffmem =         1   mgfft =        10
P  mkmem =         8  mkqmem =         8  mk1mem =         8 mpssoang=         2
     mpw =        51  mqgrid =      3001   natom =         2    nfft =      1000
    nkpt =         8  nloalg =         4  nspden =         1 nspinor =         1
  nsppol =         1    nsym =         1  n1xccc =      2501  ntypat =         1
  occopt =         1
================================================================================
P This job should need less than                       1.052 Mbytes of memory.
  Rough estimation (10% accuracy) of disk space for files :
_ WF disk file :      0.077 Mbytes ; DEN or POT disk file :      0.010 Mbytes.
================================================================================


 DATASET   55 : space group P1 (#  1); Bravais aP (primitive triclinic)
================================================================================
 Values of the parameters that define the memory need for DATASET 55.
   intxc =         0  ionmov =         0    iscf =        -2 xclevel =         1
  lmnmax =         1   lnmax =         1   mband =        12  mffmem =         1
P  mgfft =        10   mkmem =        85 mpssoang=         2     mpw =        43
  mqgrid =      3001   natom =         2    nfft =      1000    nkpt =        85
  nloalg =         4  nspden =         1 nspinor =         1  nsppol =         1
    nsym =         1  n1xccc =      2501  ntypat =         1  occopt =         1
================================================================================
P This job should need less than                       1.540 Mbytes of memory.
  Rough estimation (10% accuracy) of disk space for files :
_ WF disk file :      0.671 Mbytes ; DEN or POT disk file :      0.010 Mbytes.
================================================================================


 DATASET   56 : space group P1 (#  1); Bravais aP (primitive triclinic)
================================================================================
 Values of the parameters that define the memory need for DATASET 56 (RF).
   intxc =         0    iscf =        -2 xclevel =         1  lmnmax =         1
   lnmax =         1   mband =        12  mffmem =         1   mgfft =        10
P  mkmem =        85  mkqmem =        85  mk1mem =        85 mpssoang=         2
     mpw =        51  mqgrid =      3001   natom =         2    nfft =      1000
    nkpt =        85  nloalg =         4  nspden =         1 nspinor =         1
  nsppol =         1    nsym =         1  n1xccc =      2501  ntypat =         1
  occopt =         1
================================================================================
P This job should need less than                       3.520 Mbytes of memory.
  Rough estimation (10% accuracy) of disk space for files :
_ WF disk file :      0.796 Mbytes ; DEN or POT disk file :      0.010 Mbytes.
================================================================================


 DATASET   61 : space group P1 (#  1); Bravais aP (primitive triclinic)
================================================================================
 Values of the parameters that define the memory need for DATASET 61.
   intxc =         0  ionmov =         0    iscf =         7 xclevel =         1
  lmnmax =         1   lnmax =         1   mband =        12  mffmem =         1
P  mgfft =        10   mkmem =         8 mpssoang=         2     mpw =        51
  mqgrid =      3001   natom =         2    nfft =      1000    nkpt =         8
  nloalg =         4  nspden =         1 nspinor =         1  nsppol =         1
    nsym =         1  n1xccc =      2501  ntypat =         1  occopt =         1
================================================================================
P This job should need less than                       0.892 Mbytes of memory.
  Rough estimation (10% accuracy) of disk space for files :
_ WF disk file :      0.077 Mbytes ; DEN or POT disk file :      0.010 Mbytes.
================================================================================


 DATASET   62 : space group P1 (#  1); Bravais aP (primitive triclinic)
================================================================================
 Values of the parameters that define the memory need for DATASET 62.
   intxc =         0  ionmov =         0    iscf =        -2 xclevel =         1
  lmnmax =         1   lnmax =         1   mband =        12  mffmem =         1
P  mgfft =        10   mkmem =        85 mpssoang=         2     mpw =        51
  mqgrid =      3001   natom =         2    nfft =      1000    nkpt =        85
  nloalg =         4  nspden =         1 nspinor =         1  nsppol =         1
    nsym =         1  n1xccc =      2501  ntypat =         1  occopt =         1
================================================================================
P This job should need less than                       1.675 Mbytes of memory.
  Rough estimation (10% accuracy) of disk space for files :
_ WF disk file :      0.796 Mbytes ; DEN or POT disk file :      0.010 Mbytes.
================================================================================


 DATASET   63 : space group P1 (#  1); Bravais aP (primitive triclinic)
================================================================================
 Values of the parameters that define the memory need for DATASET 63.
   intxc =         0  ionmov =         0    iscf =        -2 xclevel =         1
  lmnmax =         1   lnmax =         1   mband =        12  mffmem =         1
P  mgfft =        10   mkmem =         8 mpssoang=         2     mpw =        44
  mqgrid =      3001   natom =         2    nfft =      1000    nkpt =         8
  nloalg =         4  nspden =         1 nspinor =         1  nsppol =         1
    nsym =         1  n1xccc =      2501  ntypat =         1  occopt =         1
================================================================================
P This job should need less than                       0.757 Mbytes of memory.
  Rough estimation (10% accuracy) of disk space for files :
_ WF disk file :      0.066 Mbytes ; DEN or POT disk file :      0.010 Mbytes.
================================================================================


 DATASET   64 : space group P1 (#  1); Bravais aP (primitive triclinic)
================================================================================
 Values of the parameters that define the memory need for DATASET 64 (RF).
   intxc =         0    iscf =         7 xclevel =         1  lmnmax =         1
   lnmax =         1   mband =        12  mffmem =         1   mgfft =        10
P  mkmem =         8  mkqmem =         8  mk1mem =         8 mpssoang=         2
     mpw =        51  mqgrid =      3001   natom =         2    nfft =      1000
    nkpt =         8  nloalg =         4  nspden =         1 nspinor =         1
  nsppol =         1    nsym =         1  n1xccc =      2501  ntypat =         1
  occopt =         1
================================================================================
P This job should need less than                       1.052 Mbytes of memory.
  Rough estimation (10% accuracy) of disk space for files :
_ WF disk file :      0.077 Mbytes ; DEN or POT disk file :      0.010 Mbytes.
================================================================================


 DATASET   65 : space group P1 (#  1); Bravais aP (primitive triclinic)
================================================================================
 Values of the parameters that define the memory need for DATASET 65.
   intxc =         0  ionmov =         0    iscf =        -2 xclevel =         1
  lmnmax =         1   lnmax =         1   mband =        12  mffmem =         1
P  mgfft =        10   mkmem =        85 mpssoang=         2     mpw =        44
  mqgrid =      3001   natom =         2    nfft =      1000    nkpt =        85
  nloalg =         4  nspden =         1 nspinor =         1  nsppol =         1
    nsym =         1  n1xccc =      2501  ntypat =         1  occopt =         1
================================================================================
P This job should need less than                       1.557 Mbytes of memory.
  Rough estimation (10% accuracy) of disk space for files :
_ WF disk file :      0.687 Mbytes ; DEN or POT disk file :      0.010 Mbytes.
================================================================================


 DATASET   66 : space group P1 (#  1); Bravais aP (primitive triclinic)
================================================================================
 Values of the parameters that define the memory need for DATASET 66 (RF).
   intxc =         0    iscf =        -2 xclevel =         1  lmnmax =         1
   lnmax =         1   mband =        12  mffmem =         1   mgfft =        10
P  mkmem =        85  mkqmem =        85  mk1mem =        85 mpssoang=         2
     mpw =        51  mqgrid =      3001   natom =         2    nfft =      1000
    nkpt =        85  nloalg =         4  nspden =         1 nspinor =         1
  nsppol =         1    nsym =         1  n1xccc =      2501  ntypat =         1
  occopt =         1
================================================================================
P This job should need less than                       3.520 Mbytes of memory.
  Rough estimation (10% accuracy) of disk space for files :
_ WF disk file :      0.796 Mbytes ; DEN or POT disk file :      0.010 Mbytes.
================================================================================


 DATASET   71 : space group P1 (#  1); Bravais aP (primitive triclinic)
================================================================================
 Values of the parameters that define the memory need for DATASET 71.
   intxc =         0  ionmov =         0    iscf =         7 xclevel =         1
  lmnmax =         1   lnmax =         1   mband =        12  mffmem =         1
P  mgfft =        10   mkmem =         8 mpssoang=         2     mpw =        51
  mqgrid =      3001   natom =         2    nfft =      1000    nkpt =         8
  nloalg =         4  nspden =         1 nspinor =         1  nsppol =         1
    nsym =         1  n1xccc =      2501  ntypat =         1  occopt =         1
================================================================================
P This job should need less than                       0.892 Mbytes of memory.
  Rough estimation (10% accuracy) of disk space for files :
_ WF disk file :      0.077 Mbytes ; DEN or POT disk file :      0.010 Mbytes.
================================================================================


 DATASET   72 : space group P1 (#  1); Bravais aP (primitive triclinic)
================================================================================
 Values of the parameters that define the memory need for DATASET 72.
   intxc =         0  ionmov =         0    iscf =        -2 xclevel =         1
  lmnmax =         1   lnmax =         1   mband =        12  mffmem =         1
P  mgfft =        10   mkmem =        85 mpssoang=         2     mpw =        51
  mqgrid =      3001   natom =         2    nfft =      1000    nkpt =        85
  nloalg =         4  nspden =         1 nspinor =         1  nsppol =         1
    nsym =         1  n1xccc =      2501  ntypat =         1  occopt =         1
================================================================================
P This job should need less than                       1.675 Mbytes of memory.
  Rough estimation (10% accuracy) of disk space for files :
_ WF disk file :      0.796 Mbytes ; DEN or POT disk file :      0.010 Mbytes.
================================================================================


 DATASET   73 : space group P1 (#  1); Bravais aP (primitive triclinic)
================================================================================
 Values of the parameters that define the memory need for DATASET 73.
   intxc =         0  ionmov =         0    iscf =        -2 xclevel =         1
  lmnmax =         1   lnmax =         1   mband =        12  mffmem =         1
P  mgfft =        10   mkmem =         8 mpssoang=         2     mpw =        51
  mqgrid =      3001   natom =         2    nfft =      1000    nkpt =         8
  nloalg =         4  nspden =         1 nspinor =         1  nsppol =         1
    nsym =         1  n1xccc =      2501  ntypat =         1  occopt =         1
================================================================================
P This job should need less than                       0.770 Mbytes of memory.
  Rough estimation (10% accuracy) of disk space for files :
_ WF disk file :      0.077 Mbytes ; DEN or POT disk file :      0.010 Mbytes.
================================================================================


 DATASET   74 : space group P1 (#  1); Bravais aP (primitive triclinic)
================================================================================
 Values of the parameters that define the memory need for DATASET 74 (RF).
   intxc =         0    iscf =         7 xclevel =         1  lmnmax =         1
   lnmax =         1   mband =        12  mffmem =         1   mgfft =        10
P  mkmem =         8  mkqmem =         8  mk1mem =         8 mpssoang=         2
     mpw =        51  mqgrid =      3001   natom =         2    nfft =      1000
    nkpt =         8  nloalg =         4  nspden =         1 nspinor =         1
  nsppol =         1    nsym =         1  n1xccc =      2501  ntypat =         1
  occopt =         1
================================================================================
P This job should need less than                       1.052 Mbytes of memory.
  Rough estimation (10% accuracy) of disk space for files :
_ WF disk file :      0.077 Mbytes ; DEN or POT disk file :      0.010 Mbytes.
================================================================================


 DATASET   75 : space group P1 (#  1); Bravais aP (primitive triclinic)
================================================================================
 Values of the parameters that define the memory need for DATASET 75.
   intxc =         0  ionmov =         0    iscf =        -2 xclevel =         1
  lmnmax =         1   lnmax =         1   mband =        12  mffmem =         1
P  mgfft =        10   mkmem =        85 mpssoang=         2     mpw =        51
  mqgrid =      3001   natom =         2    nfft =      1000    nkpt =        85
  nloalg =         4  nspden =         1 nspinor =         1  nsppol =         1
    nsym =         1  n1xccc =      2501  ntypat =         1  occopt =         1
================================================================================
P This job should need less than                       1.675 Mbytes of memory.
  Rough estimation (10% accuracy) of disk space for files :
_ WF disk file :      0.796 Mbytes ; DEN or POT disk file :      0.010 Mbytes.
================================================================================


 DATASET   76 : space group P1 (#  1); Bravais aP (primitive triclinic)
================================================================================
 Values of the parameters that define the memory need for DATASET 76 (RF).
   intxc =         0    iscf =        -2 xclevel =         1  lmnmax =         1
   lnmax =         1   mband =        12  mffmem =         1   mgfft =        10
P  mkmem =        85  mkqmem =        85  mk1mem =        85 mpssoang=         2
     mpw =        51  mqgrid =      3001   natom =         2    nfft =      1000
    nkpt =        85  nloalg =         4  nspden =         1 nspinor =         1
  nsppol =         1    nsym =         1  n1xccc =      2501  ntypat =         1
  occopt =         1
================================================================================
P This job should need less than                       3.520 Mbytes of memory.
  Rough estimation (10% accuracy) of disk space for files :
_ WF disk file :      0.796 Mbytes ; DEN or POT disk file :      0.010 Mbytes.
================================================================================


 DATASET   81 : space group P1 (#  1); Bravais aP (primitive triclinic)
================================================================================
 Values of the parameters that define the memory need for DATASET 81.
   intxc =         0  ionmov =         0    iscf =         7 xclevel =         1
  lmnmax =         1   lnmax =         1   mband =        12  mffmem =         1
P  mgfft =        10   mkmem =         8 mpssoang=         2     mpw =        51
  mqgrid =      3001   natom =         2    nfft =      1000    nkpt =         8
  nloalg =         4  nspden =         1 nspinor =         1  nsppol =         1
    nsym =         1  n1xccc =      2501  ntypat =         1  occopt =         1
================================================================================
P This job should need less than                       0.892 Mbytes of memory.
  Rough estimation (10% accuracy) of disk space for files :
_ WF disk file :      0.077 Mbytes ; DEN or POT disk file :      0.010 Mbytes.
================================================================================


 DATASET   82 : space group P1 (#  1); Bravais aP (primitive triclinic)
================================================================================
 Values of the parameters that define the memory need for DATASET 82.
   intxc =         0  ionmov =         0    iscf =        -2 xclevel =         1
  lmnmax =         1   lnmax =         1   mband =        12  mffmem =         1
P  mgfft =        10   mkmem =        85 mpssoang=         2     mpw =        51
  mqgrid =      3001   natom =         2    nfft =      1000    nkpt =        85
  nloalg =         4  nspden =         1 nspinor =         1  nsppol =         1
    nsym =         1  n1xccc =      2501  ntypat =         1  occopt =         1
================================================================================
P This job should need less than                       1.675 Mbytes of memory.
  Rough estimation (10% accuracy) of disk space for files :
_ WF disk file :      0.796 Mbytes ; DEN or POT disk file :      0.010 Mbytes.
================================================================================


 DATASET   83 : space group P1 (#  1); Bravais aP (primitive triclinic)
================================================================================
 Values of the parameters that define the memory need for DATASET 83.
   intxc =         0  ionmov =         0    iscf =        -2 xclevel =         1
  lmnmax =         1   lnmax =         1   mband =        12  mffmem =         1
P  mgfft =        10   mkmem =         8 mpssoang=         2     mpw =        44
  mqgrid =      3001   natom =         2    nfft =      1000    nkpt =         8
  nloalg =         4  nspden =         1 nspinor =         1  nsppol =         1
    nsym =         1  n1xccc =      2501  ntypat =         1  occopt =         1
================================================================================
P This job should need less than                       0.757 Mbytes of memory.
  Rough estimation (10% accuracy) of disk space for files :
_ WF disk file :      0.066 Mbytes ; DEN or POT disk file :      0.010 Mbytes.
================================================================================


 DATASET   84 : space group P1 (#  1); Bravais aP (primitive triclinic)
================================================================================
 Values of the parameters that define the memory need for DATASET 84 (RF).
   intxc =         0    iscf =         7 xclevel =         1  lmnmax =         1
   lnmax =         1   mband =        12  mffmem =         1   mgfft =        10
P  mkmem =         8  mkqmem =         8  mk1mem =         8 mpssoang=         2
     mpw =        51  mqgrid =      3001   natom =         2    nfft =      1000
    nkpt =         8  nloalg =         4  nspden =         1 nspinor =         1
  nsppol =         1    nsym =         1  n1xccc =      2501  ntypat =         1
  occopt =         1
================================================================================
P This job should need less than                       1.052 Mbytes of memory.
  Rough estimation (10% accuracy) of disk space for files :
_ WF disk file :      0.077 Mbytes ; DEN or POT disk file :      0.010 Mbytes.
================================================================================


 DATASET   85 : space group P1 (#  1); Bravais aP (primitive triclinic)
================================================================================
 Values of the parameters that define the memory need for DATASET 85.
   intxc =         0  ionmov =         0    iscf =        -2 xclevel =         1
  lmnmax =         1   lnmax =         1   mband =        12  mffmem =         1
P  mgfft =        10   mkmem =        85 mpssoang=         2     mpw =        51
  mqgrid =      3001   natom =         2    nfft =      1000    nkpt =        85
  nloalg =         4  nspden =         1 nspinor =         1  nsppol =         1
    nsym =         1  n1xccc =      2501  ntypat =         1  occopt =         1
================================================================================
P This job should need less than                       1.675 Mbytes of memory.
  Rough estimation (10% accuracy) of disk space for files :
_ WF disk file :      0.796 Mbytes ; DEN or POT disk file :      0.010 Mbytes.
================================================================================


 DATASET   86 : space group P1 (#  1); Bravais aP (primitive triclinic)
================================================================================
 Values of the parameters that define the memory need for DATASET 86 (RF).
   intxc =         0    iscf =        -2 xclevel =         1  lmnmax =         1
   lnmax =         1   mband =        12  mffmem =         1   mgfft =        10
P  mkmem =        85  mkqmem =        85  mk1mem =        85 mpssoang=         2
     mpw =        51  mqgrid =      3001   natom =         2    nfft =      1000
    nkpt =        85  nloalg =         4  nspden =         1 nspinor =         1
  nsppol =         1    nsym =         1  n1xccc =      2501  ntypat =         1
  occopt =         1
================================================================================
P This job should need less than                       3.520 Mbytes of memory.
  Rough estimation (10% accuracy) of disk space for files :
_ WF disk file :      0.796 Mbytes ; DEN or POT disk file :      0.010 Mbytes.
================================================================================

--------------------------------------------------------------------------------
------------- Echo of variables that govern the present computation ------------
--------------------------------------------------------------------------------
-
- outvars: echo of selected default values                                      
-   accesswff0 =  0 , fftalg0 =112 , wfoptalg0 =  0
-
- outvars: echo of global parameters not present in the input file              
-  max_nthreads =    0
-
 -outvars: echo values of preprocessed input variables --------
            acell      6.6750000000E+00  6.6750000000E+00  6.6750000000E+00 Bohr
              amu      1.20110000E+01
           diemac      6.00000000E+00
             ecut      5.00000000E+00 Hartree
    elph2_imagden      3.67493254E-03 Hartree
           enunit           2
-          fftalg         112
           getden11         0
           getden12        -1
           getden13        -2
           getden14         0
           getden15        -4
           getden16        -5
           getden21         0
           getden22        -1
           getden23        -2
           getden24         0
           getden25        -4
           getden26        -5
           getden31         0
           getden32        -1
           getden33        -2
           getden34         0
           getden35        -4
           getden36        -5
           getden41         0
           getden42        -1
           getden43        -2
           getden44         0
           getden45        -4
           getden46        -5
           getden51         0
           getden52        -1
           getden53        -2
           getden54         0
           getden55        -4
           getden56        -5
           getden61         0
           getden62        -1
           getden63        -2
           getden64         0
           getden65        -4
           getden66        -5
           getden71         0
           getden72        -1
           getden73        -2
           getden74         0
           getden75        -4
           getden76        -5
           getden81         0
           getden82        -1
           getden83        -2
           getden84         0
           getden85        -4
           getden86        -5
           getwfk11         0
           getwfk12        -1
           getwfk13        -2
           getwfk14        -3
           getwfk15        -3
           getwfk16        -4
           getwfk21         0
           getwfk22        -1
           getwfk23        -2
           getwfk24        -3
           getwfk25        -3
           getwfk26        -4
           getwfk31         0
           getwfk32        -1
           getwfk33        -2
           getwfk34        -3
           getwfk35        -3
           getwfk36        -4
           getwfk41         0
           getwfk42        -1
           getwfk43        -2
           getwfk44        -3
           getwfk45        -3
           getwfk46        -4
           getwfk51         0
           getwfk52        -1
           getwfk53        -2
           getwfk54        -3
           getwfk55        -3
           getwfk56        -4
           getwfk61         0
           getwfk62        -1
           getwfk63        -2
           getwfk64        -3
           getwfk65        -3
           getwfk66        -4
           getwfk71         0
           getwfk72        -1
           getwfk73        -2
           getwfk74        -3
           getwfk75        -3
           getwfk76        -4
           getwfk81         0
           getwfk82        -1
           getwfk83        -2
           getwfk84        -3
           getwfk85        -3
           getwfk86        -4
           getwfq11         0
           getwfq12         0
           getwfq13         0
           getwfq14        -1
           getwfq15         0
           getwfq16        -1
           getwfq21         0
           getwfq22         0
           getwfq23         0
           getwfq24        -1
           getwfq25         0
           getwfq26        -1
           getwfq31         0
           getwfq32         0
           getwfq33         0
           getwfq34        -1
           getwfq35         0
           getwfq36        -1
           getwfq41         0
           getwfq42         0
           getwfq43         0
           getwfq44        -1
           getwfq45         0
           getwfq46        -1
           getwfq51         0
           getwfq52         0
           getwfq53         0
           getwfq54        -1
           getwfq55         0
           getwfq56        -1
           getwfq61         0
           getwfq62         0
           getwfq63         0
           getwfq64        -1
           getwfq65         0
           getwfq66        -1
           getwfq71         0
           getwfq72         0
           getwfq73         0
           getwfq74        -1
           getwfq75         0
           getwfq76        -1
           getwfq81         0
           getwfq82         0
           getwfq83         0
           getwfq84        -1
           getwfq85         0
           getwfq86        -1
          get1den11         0
          get1den12         0
          get1den13         0
          get1den14         0
          get1den15        -1
          get1den16        -2
          get1den21         0
          get1den22         0
          get1den23         0
          get1den24         0
          get1den25        -1
          get1den26        -2
          get1den31         0
          get1den32         0
          get1den33         0
          get1den34         0
          get1den35        -1
          get1den36        -2
          get1den41         0
          get1den42         0
          get1den43         0
          get1den44         0
          get1den45        -1
          get1den46        -2
          get1den51         0
          get1den52         0
          get1den53         0
          get1den54         0
          get1den55        -1
          get1den56        -2
          get1den61         0
          get1den62         0
          get1den63         0
          get1den64         0
          get1den65        -1
          get1den66        -2
          get1den71         0
          get1den72         0
          get1den73         0
          get1den74         0
          get1den75        -1
          get1den76        -2
          get1den81         0
          get1den82         0
          get1den83         0
          get1den84         0
          get1den85        -1
          get1den86        -2
          ieig2rf11         0
          ieig2rf12         0
          ieig2rf13         0
          ieig2rf14         1
          ieig2rf15         0
          ieig2rf16         1
          ieig2rf21         0
          ieig2rf22         0
          ieig2rf23         0
          ieig2rf24         1
          ieig2rf25         0
          ieig2rf26         1
          ieig2rf31         0
          ieig2rf32         0
          ieig2rf33         0
          ieig2rf34         1
          ieig2rf35         0
          ieig2rf36         1
          ieig2rf41         0
          ieig2rf42         0
          ieig2rf43         0
          ieig2rf44         1
          ieig2rf45         0
          ieig2rf46         1
          ieig2rf51         0
          ieig2rf52         0
          ieig2rf53         0
          ieig2rf54         1
          ieig2rf55         0
          ieig2rf56         1
          ieig2rf61         0
          ieig2rf62         0
          ieig2rf63         0
          ieig2rf64         1
          ieig2rf65         0
          ieig2rf66         1
          ieig2rf71         0
          ieig2rf72         0
          ieig2rf73         0
          ieig2rf74         1
          ieig2rf75         0
          ieig2rf76         1
          ieig2rf81         0
          ieig2rf82         0
          ieig2rf83         0
          ieig2rf84         1
          ieig2rf85         0
          ieig2rf86         1
             iscf11         7
             iscf12        -2
             iscf13        -2
             iscf14         7
             iscf15        -2
             iscf16        -2
             iscf21         7
             iscf22        -2
             iscf23        -2
             iscf24         7
             iscf25        -2
             iscf26        -2
             iscf31         7
             iscf32        -2
             iscf33        -2
             iscf34         7
             iscf35        -2
             iscf36        -2
             iscf41         7
             iscf42        -2
             iscf43        -2
             iscf44         7
             iscf45        -2
             iscf46        -2
             iscf51         7
             iscf52        -2
             iscf53        -2
             iscf54         7
             iscf55        -2
             iscf56        -2
             iscf61         7
             iscf62        -2
             iscf63        -2
             iscf64         7
             iscf65        -2
             iscf66        -2
             iscf71         7
             iscf72        -2
             iscf73        -2
             iscf74         7
             iscf75        -2
             iscf76        -2
             iscf81         7
             iscf82        -2
             iscf83        -2
             iscf84         7
             iscf85        -2
             iscf86        -2
           istwfk11      1    1    1    1    1    1    1    1
           istwfk12      1    0    0    0    0    0    0    0    0    0
                         0    0    1    0    0    0    0    0    0    0
                         0    0    0    0    0    0    1    0    0    0
                         0    0    0    0    0    0    0    0    0    0
                         0    0    0    0    0    0    0    1    0    0
           istwfk13      1    1    1    1    1    1    1    1
           istwfk14      1    1    1    1    1    1    1    1
           istwfk15      1    0    0    0    0    0    0    0    0    0
                         0    0    1    0    0    0    0    0    0    0
                         0    0    0    0    0    0    1    0    0    0
                         0    0    0    0    0    0    0    0    0    0
                         0    0    0    0    0    0    0    1    0    0
           istwfk16      1    0    0    0    0    0    0    0    0    0
                         0    0    1    0    0    0    0    0    0    0
                         0    0    0    0    0    0    1    0    0    0
                         0    0    0    0    0    0    0    0    0    0
                         0    0    0    0    0    0    0    1    0    0
           istwfk21      1    1    1    1    1    1    1    1
           istwfk22      1    0    0    0    0    0    0    0    0    0
                         0    0    1    0    0    0    0    0    0    0
                         0    0    0    0    0    0    1    0    0    0
                         0    0    0    0    0    0    0    0    0    0
                         0    0    0    0    0    0    0    1    0    0
           istwfk24      1    1    1    1    1    1    1    1
           istwfk25      0    0    0    0    0    0    1    0    0    0
                         0    0    0    0    0    0    0    0    0    0
                         0    0    0    0    0    0    0    0    0    0
                         0    0    0    0    0    0    0    0    0    0
                         0    0    0    0    0    0    0    0    0    0
           istwfk26      1    0    0    0    0    0    0    0    0    0
                         0    0    1    0    0    0    0    0    0    0
                         0    0    0    0    0    0    1    0    0    0
                         0    0    0    0    0    0    0    0    0    0
                         0    0    0    0    0    0    0    1    0    0
           istwfk31      1    1    1    1    1    1    1    1
           istwfk32      1    0    0    0    0    0    0    0    0    0
                         0    0    1    0    0    0    0    0    0    0
                         0    0    0    0    0    0    1    0    0    0
                         0    0    0    0    0    0    0    0    0    0
                         0    0    0    0    0    0    0    1    0    0
           istwfk33      1    0    1    0    1    0    1    0
           istwfk34      1    1    1    1    1    1    1    1
           istwfk35      0    0    0    0    0    0    0    0    0    0
                         0    0    1    0    0    0    0    0    0    0
                         0    0    0    0    0    0    1    0    0    0
                         0    0    0    0    0    0    0    0    0    0
                         0    0    0    0    0    0    0    0    0    0
           istwfk36      1    0    0    0    0    0    0    0    0    0
                         0    0    1    0    0    0    0    0    0    0
                         0    0    0    0    0    0    1    0    0    0
                         0    0    0    0    0    0    0    0    0    0
                         0    0    0    0    0    0    0    1    0    0
           istwfk41      1    1    1    1    1    1    1    1
           istwfk42      1    0    0    0    0    0    0    0    0    0
                         0    0    1    0    0    0    0    0    0    0
                         0    0    0    0    0    0    1    0    0    0
                         0    0    0    0    0    0    0    0    0    0
                         0    0    0    0    0    0    0    1    0    0
           istwfk44      1    1    1    1    1    1    1    1
           istwfk46      1    0    0    0    0    0    0    0    0    0
                         0    0    1    0    0    0    0    0    0    0
                         0    0    0    0    0    0    1    0    0    0
                         0    0    0    0    0    0    0    0    0    0
                         0    0    0    0    0    0    0    1    0    0
           istwfk51      1    1    1    1    1    1    1    1
           istwfk52      1    0    0    0    0    0    0    0    0    0
                         0    0    1    0    0    0    0    0    0    0
                         0    0    0    0    0    0    1    0    0    0
                         0    0    0    0    0    0    0    0    0    0
                         0    0    0    0    0    0    0    1    0    0
           istwfk54      1    1    1    1    1    1    1    1
           istwfk56      1    0    0    0    0    0    0    0    0    0
                         0    0    1    0    0    0    0    0    0    0
                         0    0    0    0    0    0    1    0    0    0
                         0    0    0    0    0    0    0    0    0    0
                         0    0    0    0    0    0    0    1    0    0
           istwfk61      1    1    1    1    1    1    1    1
           istwfk62      1    0    0    0    0    0    0    0    0    0
                         0    0    1    0    0    0    0    0    0    0
                         0    0    0    0    0    0    1    0    0    0
                         0    0    0    0    0    0    0    0    0    0
                         0    0    0    0    0    0    0    1    0    0
           istwfk64      1    1    1    1    1    1    1    1
           istwfk66      1    0    0    0    0    0    0    0    0    0
                         0    0    1    0    0    0    0    0    0    0
                         0    0    0    0    0    0    1    0    0    0
                         0    0    0    0    0    0    0    0    0    0
                         0    0    0    0    0    0    0    1    0    0
           istwfk71      1    1    1    1    1    1    1    1
           istwfk72      1    0    0    0    0    0    0    0    0    0
                         0    0    1    0    0    0    0    0    0    0
                         0    0    0    0    0    0    1    0    0    0
                         0    0    0    0    0    0    0    0    0    0
                         0    0    0    0    0    0    0    1    0    0
           istwfk73      1    0    0    0    1    0    0    0
           istwfk74      1    1    1    1    1    1    1    1
           istwfk75      0    0    0    0    0    0    0    0    0    0
                         0    0    1    0    0    0    0    0    0    0
                         0    0    0    0    0    0    0    0    0    0
                         0    0    0    0    0    0    0    0    0    0
                         0    0    0    0    0    0    0    0    0    0
           istwfk76      1    0    0    0    0    0    0    0    0    0
                         0    0    1    0    0    0    0    0    0    0
                         0    0    0    0    0    0    1    0    0    0
                         0    0    0    0    0    0    0    0    0    0
                         0    0    0    0    0    0    0    1    0    0
           istwfk81      1    1    1    1    1    1    1    1
           istwfk82      1    0    0    0    0    0    0    0    0    0
                         0    0    1    0    0    0    0    0    0    0
                         0    0    0    0    0    0    1    0    0    0
                         0    0    0    0    0    0    0    0    0    0
                         0    0    0    0    0    0    0    1    0    0
           istwfk84      1    1    1    1    1    1    1    1
           istwfk86      1    0    0    0    0    0    0    0    0    0
                         0    0    1    0    0    0    0    0    0    0
                         0    0    0    0    0    0    1    0    0    0
                         0    0    0    0    0    0    0    0    0    0
                         0    0    0    0    0    0    0    1    0    0
                       outvar_i_n : Printing only first  50 k-points.
           jdtset       11   12   13   14   15   16   21   22   23   24
                        25   26   31   32   33   34   35   36   41   42
                        43   44   45   46   51   52   53   54   55   56
                        61   62   63   64   65   66   71   72   73   74
                        75   76   81   82   83   84   85   86
              kpt11    0.00000000E+00  0.00000000E+00  0.00000000E+00
                       5.00000000E-01  0.00000000E+00  0.00000000E+00
                       0.00000000E+00  5.00000000E-01  0.00000000E+00
                       5.00000000E-01  5.00000000E-01  0.00000000E+00
                       0.00000000E+00  0.00000000E+00  5.00000000E-01
                       5.00000000E-01  0.00000000E+00  5.00000000E-01
                       0.00000000E+00  5.00000000E-01  5.00000000E-01
                       5.00000000E-01  5.00000000E-01  5.00000000E-01
              kpt12    5.00000000E-01  0.00000000E+00  0.00000000E+00
                       4.58333333E-01  0.00000000E+00  0.00000000E+00
                       4.16666667E-01  0.00000000E+00  0.00000000E+00
                       3.75000000E-01  0.00000000E+00  0.00000000E+00
                       3.33333333E-01  0.00000000E+00  0.00000000E+00
                       2.91666667E-01  0.00000000E+00  0.00000000E+00
                       2.50000000E-01  0.00000000E+00  0.00000000E+00
                       2.08333333E-01  0.00000000E+00  0.00000000E+00
                       1.66666667E-01  0.00000000E+00  0.00000000E+00
                       1.25000000E-01  0.00000000E+00  0.00000000E+00
                       8.33333333E-02  0.00000000E+00  0.00000000E+00
                       4.16666667E-02  0.00000000E+00  0.00000000E+00
                       0.00000000E+00  0.00000000E+00  0.00000000E+00
                       0.00000000E+00  3.57142857E-02  3.57142857E-02
                       0.00000000E+00  7.14285714E-02  7.14285714E-02
                       0.00000000E+00  1.07142857E-01  1.07142857E-01
                       0.00000000E+00  1.42857143E-01  1.42857143E-01
                       0.00000000E+00  1.78571429E-01  1.78571429E-01
                       0.00000000E+00  2.14285714E-01  2.14285714E-01
                       0.00000000E+00  2.50000000E-01  2.50000000E-01
                       0.00000000E+00  2.85714286E-01  2.85714286E-01
                       0.00000000E+00  3.21428571E-01  3.21428571E-01
                       0.00000000E+00  3.57142857E-01  3.57142857E-01
                       0.00000000E+00  3.92857143E-01  3.92857143E-01
                       0.00000000E+00  4.28571429E-01  4.28571429E-01
                       0.00000000E+00  4.64285714E-01  4.64285714E-01
                       0.00000000E+00  5.00000000E-01  5.00000000E-01
                       3.57142857E-02  5.00000000E-01  5.35714286E-01
                       7.14285714E-02  5.00000000E-01  5.71428571E-01
                       1.07142857E-01  5.00000000E-01  6.07142857E-01
                       1.42857143E-01  5.00000000E-01  6.42857143E-01
                       1.78571429E-01  5.00000000E-01  6.78571429E-01
                       2.14285714E-01  5.00000000E-01  7.14285714E-01
                       2.50000000E-01  5.00000000E-01  7.50000000E-01
                       2.75000000E-01  4.75000000E-01  7.50000000E-01
                       3.00000000E-01  4.50000000E-01  7.50000000E-01
                       3.25000000E-01  4.25000000E-01  7.50000000E-01
                       3.50000000E-01  4.00000000E-01  7.50000000E-01
                       3.75000000E-01  3.75000000E-01  7.50000000E-01
                       3.88888889E-01  3.88888889E-01  7.22222222E-01
                       4.02777778E-01  4.02777778E-01  6.94444444E-01
                       4.16666667E-01  4.16666667E-01  6.66666667E-01
                       4.30555556E-01  4.30555556E-01  6.38888889E-01
                       4.44444444E-01  4.44444444E-01  6.11111111E-01
                       4.58333333E-01  4.58333333E-01  5.83333333E-01
                       4.72222222E-01  4.72222222E-01  5.55555556E-01
                       4.86111111E-01  4.86111111E-01  5.27777778E-01
                       5.00000000E-01  5.00000000E-01  5.00000000E-01
                       4.75000000E-01  5.00000000E-01  5.25000000E-01
                       4.50000000E-01  5.00000000E-01  5.50000000E-01
              kpt13    0.00000000E+00  0.00000000E+00  0.00000000E+00
                       5.00000000E-01  0.00000000E+00  0.00000000E+00
                       0.00000000E+00  5.00000000E-01  0.00000000E+00
                       5.00000000E-01  5.00000000E-01  0.00000000E+00
                       0.00000000E+00  0.00000000E+00  5.00000000E-01
                       5.00000000E-01  0.00000000E+00  5.00000000E-01
                       0.00000000E+00  5.00000000E-01  5.00000000E-01
                       5.00000000E-01  5.00000000E-01  5.00000000E-01
              kpt14    0.00000000E+00  0.00000000E+00  0.00000000E+00
                       5.00000000E-01  0.00000000E+00  0.00000000E+00
                       0.00000000E+00  5.00000000E-01  0.00000000E+00
                       5.00000000E-01  5.00000000E-01  0.00000000E+00
                       0.00000000E+00  0.00000000E+00  5.00000000E-01
                       5.00000000E-01  0.00000000E+00  5.00000000E-01
                       0.00000000E+00  5.00000000E-01  5.00000000E-01
                       5.00000000E-01  5.00000000E-01  5.00000000E-01
              kpt15    5.00000000E-01  0.00000000E+00  0.00000000E+00
                       4.58333333E-01  0.00000000E+00  0.00000000E+00
                       4.16666667E-01  0.00000000E+00  0.00000000E+00
                       3.75000000E-01  0.00000000E+00  0.00000000E+00
                       3.33333333E-01  0.00000000E+00  0.00000000E+00
                       2.91666667E-01  0.00000000E+00  0.00000000E+00
                       2.50000000E-01  0.00000000E+00  0.00000000E+00
                       2.08333333E-01  0.00000000E+00  0.00000000E+00
                       1.66666667E-01  0.00000000E+00  0.00000000E+00
                       1.25000000E-01  0.00000000E+00  0.00000000E+00
                       8.33333333E-02  0.00000000E+00  0.00000000E+00
                       4.16666667E-02  0.00000000E+00  0.00000000E+00
                       0.00000000E+00  0.00000000E+00  0.00000000E+00
                       0.00000000E+00  3.57142857E-02  3.57142857E-02
                       0.00000000E+00  7.14285714E-02  7.14285714E-02
                       0.00000000E+00  1.07142857E-01  1.07142857E-01
                       0.00000000E+00  1.42857143E-01  1.42857143E-01
                       0.00000000E+00  1.78571429E-01  1.78571429E-01
                       0.00000000E+00  2.14285714E-01  2.14285714E-01
                       0.00000000E+00  2.50000000E-01  2.50000000E-01
                       0.00000000E+00  2.85714286E-01  2.85714286E-01
                       0.00000000E+00  3.21428571E-01  3.21428571E-01
                       0.00000000E+00  3.57142857E-01  3.57142857E-01
                       0.00000000E+00  3.92857143E-01  3.92857143E-01
                       0.00000000E+00  4.28571429E-01  4.28571429E-01
                       0.00000000E+00  4.64285714E-01  4.64285714E-01
                       0.00000000E+00  5.00000000E-01  5.00000000E-01
                       3.57142857E-02  5.00000000E-01  5.35714286E-01
                       7.14285714E-02  5.00000000E-01  5.71428571E-01
                       1.07142857E-01  5.00000000E-01  6.07142857E-01
                       1.42857143E-01  5.00000000E-01  6.42857143E-01
                       1.78571429E-01  5.00000000E-01  6.78571429E-01
                       2.14285714E-01  5.00000000E-01  7.14285714E-01
                       2.50000000E-01  5.00000000E-01  7.50000000E-01
                       2.75000000E-01  4.75000000E-01  7.50000000E-01
                       3.00000000E-01  4.50000000E-01  7.50000000E-01
                       3.25000000E-01  4.25000000E-01  7.50000000E-01
                       3.50000000E-01  4.00000000E-01  7.50000000E-01
                       3.75000000E-01  3.75000000E-01  7.50000000E-01
                       3.88888889E-01  3.88888889E-01  7.22222222E-01
                       4.02777778E-01  4.02777778E-01  6.94444444E-01
[...]
                         1.00000    1.00000    1.00000    1.00000    1.00000    1.00000
                         1.00000    1.00000    1.00000    1.00000    1.00000    1.00000
                         1.00000    1.00000    1.00000    1.00000    1.00000    1.00000
                         1.00000    1.00000    1.00000    1.00000    1.00000    1.00000
                         1.00000    1.00000
              wtk33      0.12500    0.12500    0.12500    0.12500    0.12500    0.12500
                         0.12500    0.12500
              wtk34      0.12500    0.12500    0.12500    0.12500    0.12500    0.12500
                         0.12500    0.12500
              wtk35      1.00000    1.00000    1.00000    1.00000    1.00000    1.00000
                         1.00000    1.00000    1.00000    1.00000    1.00000    1.00000
                         1.00000    1.00000    1.00000    1.00000    1.00000    1.00000
                         1.00000    1.00000    1.00000    1.00000    1.00000    1.00000
                         1.00000    1.00000    1.00000    1.00000    1.00000    1.00000
                         1.00000    1.00000    1.00000    1.00000    1.00000    1.00000
                         1.00000    1.00000    1.00000    1.00000    1.00000    1.00000
                         1.00000    1.00000    1.00000    1.00000    1.00000    1.00000
                         1.00000    1.00000
              wtk36      1.00000    1.00000    1.00000    1.00000    1.00000    1.00000
                         1.00000    1.00000    1.00000    1.00000    1.00000    1.00000
                         1.00000    1.00000    1.00000    1.00000    1.00000    1.00000
                         1.00000    1.00000    1.00000    1.00000    1.00000    1.00000
                         1.00000    1.00000    1.00000    1.00000    1.00000    1.00000
                         1.00000    1.00000    1.00000    1.00000    1.00000    1.00000
                         1.00000    1.00000    1.00000    1.00000    1.00000    1.00000
                         1.00000    1.00000    1.00000    1.00000    1.00000    1.00000
                         1.00000    1.00000
              wtk41      0.12500    0.12500    0.12500    0.12500    0.12500    0.12500
                         0.12500    0.12500
              wtk42      1.00000    1.00000    1.00000    1.00000    1.00000    1.00000
                         1.00000    1.00000    1.00000    1.00000    1.00000    1.00000
                         1.00000    1.00000    1.00000    1.00000    1.00000    1.00000
                         1.00000    1.00000    1.00000    1.00000    1.00000    1.00000
                         1.00000    1.00000    1.00000    1.00000    1.00000    1.00000
                         1.00000    1.00000    1.00000    1.00000    1.00000    1.00000
                         1.00000    1.00000    1.00000    1.00000    1.00000    1.00000
                         1.00000    1.00000    1.00000    1.00000    1.00000    1.00000
                         1.00000    1.00000
              wtk43      0.12500    0.12500    0.12500    0.12500    0.12500    0.12500
                         0.12500    0.12500
              wtk44      0.12500    0.12500    0.12500    0.12500    0.12500    0.12500
                         0.12500    0.12500
              wtk45      1.00000    1.00000    1.00000    1.00000    1.00000    1.00000
                         1.00000    1.00000    1.00000    1.00000    1.00000    1.00000
                         1.00000    1.00000    1.00000    1.00000    1.00000    1.00000
                         1.00000    1.00000    1.00000    1.00000    1.00000    1.00000
                         1.00000    1.00000    1.00000    1.00000    1.00000    1.00000
                         1.00000    1.00000    1.00000    1.00000    1.00000    1.00000
                         1.00000    1.00000    1.00000    1.00000    1.00000    1.00000
                         1.00000    1.00000    1.00000    1.00000    1.00000    1.00000
                         1.00000    1.00000
              wtk46      1.00000    1.00000    1.00000    1.00000    1.00000    1.00000
                         1.00000    1.00000    1.00000    1.00000    1.00000    1.00000
                         1.00000    1.00000    1.00000    1.00000    1.00000    1.00000
                         1.00000    1.00000    1.00000    1.00000    1.00000    1.00000
                         1.00000    1.00000    1.00000    1.00000    1.00000    1.00000
                         1.00000    1.00000    1.00000    1.00000    1.00000    1.00000
                         1.00000    1.00000    1.00000    1.00000    1.00000    1.00000
                         1.00000    1.00000    1.00000    1.00000    1.00000    1.00000
                         1.00000    1.00000
              wtk51      0.12500    0.12500    0.12500    0.12500    0.12500    0.12500
                         0.12500    0.12500
              wtk52      1.00000    1.00000    1.00000    1.00000    1.00000    1.00000
                         1.00000    1.00000    1.00000    1.00000    1.00000    1.00000
                         1.00000    1.00000    1.00000    1.00000    1.00000    1.00000
                         1.00000    1.00000    1.00000    1.00000    1.00000    1.00000
                         1.00000    1.00000    1.00000    1.00000    1.00000    1.00000
                         1.00000    1.00000    1.00000    1.00000    1.00000    1.00000
                         1.00000    1.00000    1.00000    1.00000    1.00000    1.00000
                         1.00000    1.00000    1.00000    1.00000    1.00000    1.00000
                         1.00000    1.00000
              wtk53      0.12500    0.12500    0.12500    0.12500    0.12500    0.12500
                         0.12500    0.12500
              wtk54      0.12500    0.12500    0.12500    0.12500    0.12500    0.12500
                         0.12500    0.12500
              wtk55      1.00000    1.00000    1.00000    1.00000    1.00000    1.00000
                         1.00000    1.00000    1.00000    1.00000    1.00000    1.00000
                         1.00000    1.00000    1.00000    1.00000    1.00000    1.00000
                         1.00000    1.00000    1.00000    1.00000    1.00000    1.00000
                         1.00000    1.00000    1.00000    1.00000    1.00000    1.00000
                         1.00000    1.00000    1.00000    1.00000    1.00000    1.00000
                         1.00000    1.00000    1.00000    1.00000    1.00000    1.00000
                         1.00000    1.00000    1.00000    1.00000    1.00000    1.00000
                         1.00000    1.00000
              wtk56      1.00000    1.00000    1.00000    1.00000    1.00000    1.00000
                         1.00000    1.00000    1.00000    1.00000    1.00000    1.00000
                         1.00000    1.00000    1.00000    1.00000    1.00000    1.00000
                         1.00000    1.00000    1.00000    1.00000    1.00000    1.00000
                         1.00000    1.00000    1.00000    1.00000    1.00000    1.00000
                         1.00000    1.00000    1.00000    1.00000    1.00000    1.00000
                         1.00000    1.00000    1.00000    1.00000    1.00000    1.00000
                         1.00000    1.00000    1.00000    1.00000    1.00000    1.00000
                         1.00000    1.00000
              wtk61      0.12500    0.12500    0.12500    0.12500    0.12500    0.12500
                         0.12500    0.12500
              wtk62      1.00000    1.00000    1.00000    1.00000    1.00000    1.00000
                         1.00000    1.00000    1.00000    1.00000    1.00000    1.00000
                         1.00000    1.00000    1.00000    1.00000    1.00000    1.00000
                         1.00000    1.00000    1.00000    1.00000    1.00000    1.00000
                         1.00000    1.00000    1.00000    1.00000    1.00000    1.00000
                         1.00000    1.00000    1.00000    1.00000    1.00000    1.00000
                         1.00000    1.00000    1.00000    1.00000    1.00000    1.00000
                         1.00000    1.00000    1.00000    1.00000    1.00000    1.00000
                         1.00000    1.00000
              wtk63      0.12500    0.12500    0.12500    0.12500    0.12500    0.12500
                         0.12500    0.12500
              wtk64      0.12500    0.12500    0.12500    0.12500    0.12500    0.12500
                         0.12500    0.12500
              wtk65      1.00000    1.00000    1.00000    1.00000    1.00000    1.00000
                         1.00000    1.00000    1.00000    1.00000    1.00000    1.00000
                         1.00000    1.00000    1.00000    1.00000    1.00000    1.00000
                         1.00000    1.00000    1.00000    1.00000    1.00000    1.00000
                         1.00000    1.00000    1.00000    1.00000    1.00000    1.00000
                         1.00000    1.00000    1.00000    1.00000    1.00000    1.00000
                         1.00000    1.00000    1.00000    1.00000    1.00000    1.00000
                         1.00000    1.00000    1.00000    1.00000    1.00000    1.00000
                         1.00000    1.00000
              wtk66      1.00000    1.00000    1.00000    1.00000    1.00000    1.00000
                         1.00000    1.00000    1.00000    1.00000    1.00000    1.00000
                         1.00000    1.00000    1.00000    1.00000    1.00000    1.00000
                         1.00000    1.00000    1.00000    1.00000    1.00000    1.00000
                         1.00000    1.00000    1.00000    1.00000    1.00000    1.00000
                         1.00000    1.00000    1.00000    1.00000    1.00000    1.00000
                         1.00000    1.00000    1.00000    1.00000    1.00000    1.00000
                         1.00000    1.00000    1.00000    1.00000    1.00000    1.00000
                         1.00000    1.00000
              wtk71      0.12500    0.12500    0.12500    0.12500    0.12500    0.12500
                         0.12500    0.12500
              wtk72      1.00000    1.00000    1.00000    1.00000    1.00000    1.00000
                         1.00000    1.00000    1.00000    1.00000    1.00000    1.00000
                         1.00000    1.00000    1.00000    1.00000    1.00000    1.00000
                         1.00000    1.00000    1.00000    1.00000    1.00000    1.00000
                         1.00000    1.00000    1.00000    1.00000    1.00000    1.00000
                         1.00000    1.00000    1.00000    1.00000    1.00000    1.00000
                         1.00000    1.00000    1.00000    1.00000    1.00000    1.00000
                         1.00000    1.00000    1.00000    1.00000    1.00000    1.00000
                         1.00000    1.00000
              wtk73      0.12500    0.12500    0.12500    0.12500    0.12500    0.12500
                         0.12500    0.12500
              wtk74      0.12500    0.12500    0.12500    0.12500    0.12500    0.12500
                         0.12500    0.12500
              wtk75      1.00000    1.00000    1.00000    1.00000    1.00000    1.00000
                         1.00000    1.00000    1.00000    1.00000    1.00000    1.00000
                         1.00000    1.00000    1.00000    1.00000    1.00000    1.00000
                         1.00000    1.00000    1.00000    1.00000    1.00000    1.00000
                         1.00000    1.00000    1.00000    1.00000    1.00000    1.00000
                         1.00000    1.00000    1.00000    1.00000    1.00000    1.00000
                         1.00000    1.00000    1.00000    1.00000    1.00000    1.00000
                         1.00000    1.00000    1.00000    1.00000    1.00000    1.00000
                         1.00000    1.00000
              wtk76      1.00000    1.00000    1.00000    1.00000    1.00000    1.00000
                         1.00000    1.00000    1.00000    1.00000    1.00000    1.00000
                         1.00000    1.00000    1.00000    1.00000    1.00000    1.00000
                         1.00000    1.00000    1.00000    1.00000    1.00000    1.00000
                         1.00000    1.00000    1.00000    1.00000    1.00000    1.00000
                         1.00000    1.00000    1.00000    1.00000    1.00000    1.00000
                         1.00000    1.00000    1.00000    1.00000    1.00000    1.00000
                         1.00000    1.00000    1.00000    1.00000    1.00000    1.00000
                         1.00000    1.00000
              wtk81      0.12500    0.12500    0.12500    0.12500    0.12500    0.12500
                         0.12500    0.12500
              wtk82      1.00000    1.00000    1.00000    1.00000    1.00000    1.00000
                         1.00000    1.00000    1.00000    1.00000    1.00000    1.00000
                         1.00000    1.00000    1.00000    1.00000    1.00000    1.00000
                         1.00000    1.00000    1.00000    1.00000    1.00000    1.00000
                         1.00000    1.00000    1.00000    1.00000    1.00000    1.00000
                         1.00000    1.00000    1.00000    1.00000    1.00000    1.00000
                         1.00000    1.00000    1.00000    1.00000    1.00000    1.00000
                         1.00000    1.00000    1.00000    1.00000    1.00000    1.00000
                         1.00000    1.00000
              wtk83      0.12500    0.12500    0.12500    0.12500    0.12500    0.12500
                         0.12500    0.12500
              wtk84      0.12500    0.12500    0.12500    0.12500    0.12500    0.12500
                         0.12500    0.12500
              wtk85      1.00000    1.00000    1.00000    1.00000    1.00000    1.00000
                         1.00000    1.00000    1.00000    1.00000    1.00000    1.00000
                         1.00000    1.00000    1.00000    1.00000    1.00000    1.00000
                         1.00000    1.00000    1.00000    1.00000    1.00000    1.00000
                         1.00000    1.00000    1.00000    1.00000    1.00000    1.00000
                         1.00000    1.00000    1.00000    1.00000    1.00000    1.00000
                         1.00000    1.00000    1.00000    1.00000    1.00000    1.00000
                         1.00000    1.00000    1.00000    1.00000    1.00000    1.00000
                         1.00000    1.00000
              wtk86      1.00000    1.00000    1.00000    1.00000    1.00000    1.00000
                         1.00000    1.00000    1.00000    1.00000    1.00000    1.00000
                         1.00000    1.00000    1.00000    1.00000    1.00000    1.00000
                         1.00000    1.00000    1.00000    1.00000    1.00000    1.00000
                         1.00000    1.00000    1.00000    1.00000    1.00000    1.00000
                         1.00000    1.00000    1.00000    1.00000    1.00000    1.00000
                         1.00000    1.00000    1.00000    1.00000    1.00000    1.00000
                         1.00000    1.00000    1.00000    1.00000    1.00000    1.00000
                         1.00000    1.00000
                       outvars : Printing only first  50 k-points.
           xangst      0.0000000000E+00  0.0000000000E+00  0.0000000000E+00
                       8.8306446683E-01  8.8306446683E-01  8.8306446683E-01
            xcart      0.0000000000E+00  0.0000000000E+00  0.0000000000E+00
                       1.6687500000E+00  1.6687500000E+00  1.6687500000E+00
             xred      0.0000000000E+00  0.0000000000E+00  0.0000000000E+00
                       2.5000000000E-01  2.5000000000E-01  2.5000000000E-01
            znucl        6.00000

================================================================================


- Timing analysis has been suppressed with timopt=0



================================================================================

 Suggested references for the acknowledgment of ABINIT usage.

 The users of ABINIT have little formal obligations with respect to the ABINIT group
 (those specified in the GNU General Public License, http://www.gnu.org/copyleft/gpl.txt).
 However, it is common practice in the scientific literature,
 to acknowledge the efforts of people that have made the research possible.
 In this spirit, please find below suggested citations of work written by ABINIT developers,
 corresponding to implementations inside of ABINIT that you have used in the present run.
 Note also that it will be of great value to readers of publications presenting these results,
 to read papers enabling them to understand the theoretical formalism and details
 of the ABINIT implementation.
 For information on why they are suggested, see also http://www.abinit.org/about/?text=acknowledgments.

 [1] First-principles responses of solids to atomic displacements and homogeneous electric fields:,
 implementation of a conjugate-gradient algorithm. X. Gonze, Phys. Rev. B55, 10337 (1997).
 Comment : Non-vanishing rfphon and/or rfelfd, in the norm-conserving case.

 [2] Dynamical matrices, Born effective charges, dielectric permittivity tensors, and ,
 interatomic force constants from density-functional perturbation theory,
 X. Gonze and C. Lee, Phys. Rev. B55, 10355 (1997).
 Comment : Non-vanishing rfphon and/or rfelfd, in the norm-conserving case.

 [3] ABINIT : First-principles approach of materials and nanosystem properties.
 X. Gonze, B. Amadon, P.-M. Anglade, J.-M. Beuken, F. Bottin, P. Boulanger, F. Bruneval,
 D. Caliste, R. Caracas, M. Cote, T. Deutsch, L. Genovese, Ph. Ghosez, M. Giantomassi
 S. Goedecker, D.R. Hamann, P. Hermet, F. Jollet, G. Jomard, S. Leroux, M. Mancini, S. Mazevet,
 M.J.T. Oliveira, G. Onida, Y. Pouillon, T. Rangel, G.-M. Rignanese, D. Sangalli, R. Shaltaf,
 M. Torrent, M.J. Verstraete, G. Zerah, J.W. Zwanziger
 Computer Phys. Comm. 180, 2582-2615 (2009).
 Comment : the third generic paper describing the ABINIT project.
 Note that a version of this paper, that is not formatted for Computer Phys. Comm. 
 is available at http://www.abinit.org/about/ABINIT_CPC_v10.pdf .
 The licence allows the authors to put it on the Web.

 [4] A brief introduction to the ABINIT software package.
 X. Gonze, G.-M. Rignanese, M. Verstraete, J.-M. Beuken, Y. Pouillon, R. Caracas, F. Jollet,
 M. Torrent, G. Zerah, M. Mikami, Ph. Ghosez, M. Veithen, J.-Y. Raty, V. Olevano, F. Bruneval,
 L. Reining, R. Godby, G. Onida, D.R. Hamann, and D.C. Allan.
 Z. Kristallogr. 220, 558-562 (2005).
 Comment : the second generic paper describing the ABINIT project. Note that this paper
 should be cited especially if you are using the GW part of ABINIT, as several authors
 of this part are not in the list of authors of the first or third paper.
 The .pdf of the latter paper is available at http://www.abinit.org/about/zfk_0505-06_558-562.pdf.
 Note that it should not redistributed (Copyright by Oldenburg Wissenshaftverlag,
 the licence allows the authors to put it on the Web).


 And optionally :

 [5] First-principles computation of material properties : the ABINIT software project. 
 X. Gonze, J.-M. Beuken, R. Caracas, F. Detraux, M. Fuchs, G.-M. Rignanese, L. Sindic,
 M. Verstraete, G. Zerah, F. Jollet, M. Torrent, A. Roy, M. Mikami, Ph. Ghosez, J.-Y. Raty, D.C. Allan.
 Computational Materials Science 25, 478-492 (2002). http://dx.doi.org/10.1016/S0927-0256(02)00325-7
 Comment : the original paper describing the ABINIT project.
-
- Proc.   0 individual time (sec): cpu=         48.2  wall=         48.3

================================================================================

 Calculation completed.
.Delivered  671 WARNINGs and 144 COMMENTs to log file.
+Overall time at end (sec) : cpu=         48.2  wall=         48.3
