
.Version 7.10.4 of ABINIT 
.(MPI version, prepared for a x86_64_linux_gnu4.7 computer) 

.Copyright (C) 1998-2014 ABINIT group . 
 ABINIT comes with ABSOLUTELY NO WARRANTY.
 It is free software, and you are welcome to redistribute it
 under certain conditions (GNU General Public License,
 see ~abinit/COPYING or http://www.gnu.org/copyleft/gpl.txt).

 ABINIT is a project of the Universite Catholique de Louvain,
 Corning Inc. and other collaborators, see ~abinit/doc/developers/contributors.txt .
 Please read ~abinit/doc/users/acknowledgments.html for suggested
 acknowledgments of the ABINIT effort.
 For more information, see http://www.abinit.org .

.Starting date : Sun  1 Feb 2015.
- ( at 15h02 )
  
- input  file    -> tffield_5.in
- output file    -> tffield_5.out
- root for input  files -> tffield_5i
- root for output files -> tffield_5o


 DATASET    1 : space group F-4 3 m (#216); Bravais cF (face-center cubic)
================================================================================
 Values of the parameters that define the memory need for DATASET  1.
   intxc =         0  ionmov =         2    iscf =         5 xclevel =         1
  lmnmax =         2   lnmax =         2   mband =         5  mffmem =         1
P  mgfft =        12   mkmem =        28 mpssoang=         3     mpw =        80
  mqgrid =      3001   natom =         2    nfft =      1728    nkpt =        28
  nloalg =         4  nspden =         1 nspinor =         1  nsppol =         1
    nsym =        24  n1xccc =      2501  ntypat =         2  occopt =         1
================================================================================
P This job should need less than                       1.447 Mbytes of memory.
  Rough estimation (10% accuracy) of disk space for files :
_ WF disk file :      0.173 Mbytes ; DEN or POT disk file :      0.015 Mbytes.
================================================================================


 DATASET    2 : space group Cm (#  8); Bravais mC (1-face-center monocl.)
================================================================================
 Values of the parameters that define the memory need for DATASET  2.
   intxc =         0  ionmov =         2    iscf =         5 xclevel =         1
  lmnmax =         2   lnmax =         2   mband =         5  mffmem =         1
P  mgfft =        12   mkmem =       234 mpssoang=         3     mpw =        80
  mqgrid =      3001   natom =         2    nfft =      1728    nkpt =       234
  nloalg =         4  nspden =         1 nspinor =         1  nsppol =         1
    nsym =         2  n1xccc =      2501  ntypat =         2  occopt =         1
================================================================================
P This job should need less than                       3.049 Mbytes of memory.
  Rough estimation (10% accuracy) of disk space for files :
_ WF disk file :      1.430 Mbytes ; DEN or POT disk file :      0.015 Mbytes.
================================================================================


 DATASET    3 : space group Cm (#  8); Bravais mC (1-face-center monocl.)
================================================================================
 Values of the parameters that define the memory need for DATASET  3.
   intxc =         0  ionmov =         2    iscf =         5 xclevel =         1
  lmnmax =         2   lnmax =         2   mband =         5  mffmem =         1
P  mgfft =        12   mkmem =       234 mpssoang=         3     mpw =        80
  mqgrid =      3001   natom =         2    nfft =      1728    nkpt =       234
  nloalg =         4  nspden =         1 nspinor =         1  nsppol =         1
    nsym =         2  n1xccc =      2501  ntypat =         2  occopt =         1
================================================================================
P This job should need less than                       3.049 Mbytes of memory.
  Rough estimation (10% accuracy) of disk space for files :
_ WF disk file :      1.430 Mbytes ; DEN or POT disk file :      0.015 Mbytes.
================================================================================

--------------------------------------------------------------------------------
------------- Echo of variables that govern the present computation ------------
--------------------------------------------------------------------------------
-
- outvars: echo of selected default values                                      
-   accesswff0 =  0 , fftalg0 =112 , wfoptalg0 =  0
-
- outvars: echo of global parameters not present in the input file              
-  max_nthreads =    0
-
 -outvars: echo values of preprocessed input variables --------
            acell1     7.4485600000E+00  7.4485600000E+00  7.4485600000E+00 Bohr
            acell2     7.4858028000E+00  7.4485600000E+00  7.4485600000E+00 Bohr
            acell3     7.4113172000E+00  7.4485600000E+00  7.4485600000E+00 Bohr
              amu      2.69815390E+01  7.49215900E+01
         berryopt          -1
          dilatmx      1.05000000E+00
             ecut      2.80000000E+00 Hartree
           ecutsm      5.00000000E-01 Hartree
-          fftalg         112
           ionmov           2
             iscf           5
              ixc           3
           jdtset        1    2    3
              kpt1    -8.33333333E-02 -1.66666667E-01  0.00000000E+00
                      -8.33333333E-02 -3.33333333E-01  0.00000000E+00
                      -1.66666667E-01 -2.50000000E-01  0.00000000E+00
                      -8.33333333E-02 -2.50000000E-01  8.33333333E-02
                      -8.33333333E-02  5.00000000E-01  0.00000000E+00
                      -1.66666667E-01 -4.16666667E-01  0.00000000E+00
                      -8.33333333E-02 -4.16666667E-01  8.33333333E-02
                      -2.50000000E-01 -3.33333333E-01  0.00000000E+00
                      -1.66666667E-01 -3.33333333E-01  8.33333333E-02
                      -8.33333333E-02 -3.33333333E-01  1.66666667E-01
                      -8.33333333E-02  3.33333333E-01  0.00000000E+00
                      -1.66666667E-01  4.16666667E-01  0.00000000E+00
                      -2.50000000E-01  5.00000000E-01  0.00000000E+00
                      -1.66666667E-01  5.00000000E-01  8.33333333E-02
                      -3.33333333E-01 -4.16666667E-01  0.00000000E+00
                      -2.50000000E-01 -4.16666667E-01  8.33333333E-02
                      -1.66666667E-01 -4.16666667E-01  1.66666667E-01
                      -8.33333333E-02 -4.16666667E-01  2.50000000E-01
                      -8.33333333E-02  1.66666667E-01  0.00000000E+00
                      -1.66666667E-01  2.50000000E-01  0.00000000E+00
                      -2.50000000E-01  3.33333333E-01  0.00000000E+00
                      -3.33333333E-01  4.16666667E-01  0.00000000E+00
                      -4.16666667E-01  5.00000000E-01  0.00000000E+00
                      -3.33333333E-01  5.00000000E-01  8.33333333E-02
                      -2.50000000E-01  5.00000000E-01  1.66666667E-01
                      -8.33333333E-02  0.00000000E+00  0.00000000E+00
                      -2.50000000E-01  0.00000000E+00  0.00000000E+00
                      -4.16666667E-01  0.00000000E+00  0.00000000E+00
              kpt2    -8.33333333E-02  0.00000000E+00  0.00000000E+00
                      -2.50000000E-01  0.00000000E+00  0.00000000E+00
                      -1.66666667E-01  0.00000000E+00  8.33333333E-02
                      -8.33333333E-02  0.00000000E+00  1.66666667E-01
                      -8.33333333E-02  8.33333333E-02  8.33333333E-02
                      -4.16666667E-01  0.00000000E+00  0.00000000E+00
                      -3.33333333E-01  0.00000000E+00  8.33333333E-02
                      -2.50000000E-01  0.00000000E+00  1.66666667E-01
                      -1.66666667E-01  0.00000000E+00  2.50000000E-01
                      -8.33333333E-02  0.00000000E+00  3.33333333E-01
                      -2.50000000E-01  8.33333333E-02  8.33333333E-02
                      -1.66666667E-01  8.33333333E-02  1.66666667E-01
                      -8.33333333E-02  8.33333333E-02  2.50000000E-01
                      -8.33333333E-02  1.66666667E-01  1.66666667E-01
                       5.00000000E-01  0.00000000E+00  8.33333333E-02
                      -4.16666667E-01  0.00000000E+00  1.66666667E-01
                      -3.33333333E-01  0.00000000E+00  2.50000000E-01
                      -2.50000000E-01  0.00000000E+00  3.33333333E-01
                      -1.66666667E-01  0.00000000E+00  4.16666667E-01
                      -8.33333333E-02  0.00000000E+00  5.00000000E-01
                      -4.16666667E-01  8.33333333E-02  8.33333333E-02
                      -3.33333333E-01  8.33333333E-02  1.66666667E-01
                      -2.50000000E-01  8.33333333E-02  2.50000000E-01
                      -1.66666667E-01  8.33333333E-02  3.33333333E-01
                      -8.33333333E-02  8.33333333E-02  4.16666667E-01
                      -2.50000000E-01  1.66666667E-01  1.66666667E-01
                      -1.66666667E-01  1.66666667E-01  2.50000000E-01
                      -8.33333333E-02  1.66666667E-01  3.33333333E-01
                      -8.33333333E-02  2.50000000E-01  2.50000000E-01
                       3.33333333E-01  0.00000000E+00  8.33333333E-02
                       4.16666667E-01  0.00000000E+00  1.66666667E-01
                       5.00000000E-01  0.00000000E+00  2.50000000E-01
                      -4.16666667E-01  0.00000000E+00  3.33333333E-01
                      -3.33333333E-01  0.00000000E+00  4.16666667E-01
                      -2.50000000E-01  0.00000000E+00  5.00000000E-01
                      -1.66666667E-01  0.00000000E+00 -4.16666667E-01
                      -8.33333333E-02  0.00000000E+00 -3.33333333E-01
                       4.16666667E-01  8.33333333E-02  8.33333333E-02
                       5.00000000E-01  8.33333333E-02  1.66666667E-01
                      -4.16666667E-01  8.33333333E-02  2.50000000E-01
                      -3.33333333E-01  8.33333333E-02  3.33333333E-01
                      -2.50000000E-01  8.33333333E-02  4.16666667E-01
                      -1.66666667E-01  8.33333333E-02  5.00000000E-01
                      -8.33333333E-02  8.33333333E-02 -4.16666667E-01
                      -4.16666667E-01  1.66666667E-01  1.66666667E-01
                      -3.33333333E-01  1.66666667E-01  2.50000000E-01
                      -2.50000000E-01  1.66666667E-01  3.33333333E-01
                      -1.66666667E-01  1.66666667E-01  4.16666667E-01
                      -8.33333333E-02  1.66666667E-01  5.00000000E-01
                      -2.50000000E-01  2.50000000E-01  2.50000000E-01
              kpt3    -8.33333333E-02  0.00000000E+00  0.00000000E+00
                      -2.50000000E-01  0.00000000E+00  0.00000000E+00
                      -1.66666667E-01  0.00000000E+00  8.33333333E-02
                      -8.33333333E-02  0.00000000E+00  1.66666667E-01
                      -8.33333333E-02  8.33333333E-02  8.33333333E-02
                      -4.16666667E-01  0.00000000E+00  0.00000000E+00
                      -3.33333333E-01  0.00000000E+00  8.33333333E-02
                      -2.50000000E-01  0.00000000E+00  1.66666667E-01
                      -1.66666667E-01  0.00000000E+00  2.50000000E-01
                      -8.33333333E-02  0.00000000E+00  3.33333333E-01
                      -2.50000000E-01  8.33333333E-02  8.33333333E-02
                      -1.66666667E-01  8.33333333E-02  1.66666667E-01
                      -8.33333333E-02  8.33333333E-02  2.50000000E-01
                      -8.33333333E-02  1.66666667E-01  1.66666667E-01
                       5.00000000E-01  0.00000000E+00  8.33333333E-02
                      -4.16666667E-01  0.00000000E+00  1.66666667E-01
                      -3.33333333E-01  0.00000000E+00  2.50000000E-01
                      -2.50000000E-01  0.00000000E+00  3.33333333E-01
                      -1.66666667E-01  0.00000000E+00  4.16666667E-01
                      -8.33333333E-02  0.00000000E+00  5.00000000E-01
                      -4.16666667E-01  8.33333333E-02  8.33333333E-02
                      -3.33333333E-01  8.33333333E-02  1.66666667E-01
                      -2.50000000E-01  8.33333333E-02  2.50000000E-01
                      -1.66666667E-01  8.33333333E-02  3.33333333E-01
                      -8.33333333E-02  8.33333333E-02  4.16666667E-01
                      -2.50000000E-01  1.66666667E-01  1.66666667E-01
                      -1.66666667E-01  1.66666667E-01  2.50000000E-01
                      -8.33333333E-02  1.66666667E-01  3.33333333E-01
                      -8.33333333E-02  2.50000000E-01  2.50000000E-01
                       3.33333333E-01  0.00000000E+00  8.33333333E-02
                       4.16666667E-01  0.00000000E+00  1.66666667E-01
                       5.00000000E-01  0.00000000E+00  2.50000000E-01
                      -4.16666667E-01  0.00000000E+00  3.33333333E-01
                      -3.33333333E-01  0.00000000E+00  4.16666667E-01
                      -2.50000000E-01  0.00000000E+00  5.00000000E-01
                      -1.66666667E-01  0.00000000E+00 -4.16666667E-01
                      -8.33333333E-02  0.00000000E+00 -3.33333333E-01
                       4.16666667E-01  8.33333333E-02  8.33333333E-02
                       5.00000000E-01  8.33333333E-02  1.66666667E-01
                      -4.16666667E-01  8.33333333E-02  2.50000000E-01
                      -3.33333333E-01  8.33333333E-02  3.33333333E-01
                      -2.50000000E-01  8.33333333E-02  4.16666667E-01
                      -1.66666667E-01  8.33333333E-02  5.00000000E-01
                      -8.33333333E-02  8.33333333E-02 -4.16666667E-01
                      -4.16666667E-01  1.66666667E-01  1.66666667E-01
                      -3.33333333E-01  1.66666667E-01  2.50000000E-01
                      -2.50000000E-01  1.66666667E-01  3.33333333E-01
                      -1.66666667E-01  1.66666667E-01  4.16666667E-01
                      -8.33333333E-02  1.66666667E-01  5.00000000E-01
                      -2.50000000E-01  2.50000000E-01  2.50000000E-01
                       outvar_i_n : Printing only first  50 k-points.
         kptrlatt1       6   -6    6     -6    6    6     -6   -6    6
         kptrlatt2       6   -6    6      6    6   -6     -6    6    6
         kptrlatt3       6   -6    6      6    6   -6     -6    6    6
          kptrlen1     6.32031274E+01
          kptrlen2     6.32027324E+01
          kptrlen3     6.32027324E+01
P           mkmem1         28
P           mkmem2        234
P           mkmem3        234
            natom           2
            nband1          5
            nband2          5
            nband3          5
           ndtset           3
            ngfft          12      12      12
             nkpt1         28
             nkpt2        234
             nkpt3        234
            nstep          13
             nsym1         24
             nsym2          2
             nsym3          2
            ntime          13
           ntypat           2
              occ1     2.000000  2.000000  2.000000  2.000000  0.000000
              occ2     2.000000  2.000000  2.000000  2.000000  0.000000
              occ3     2.000000  2.000000  2.000000  2.000000  0.000000
        optforces           1
            rfdir           1       1       1
            rprim1     0.0000000000E+00  7.0710678119E-01  7.0710678119E-01
                       7.0710678119E-01  0.0000000000E+00  7.0710678119E-01
                       7.0710678119E-01  7.0710678119E-01  0.0000000000E+00
            rprim2     0.0000000000E+00  7.0710678119E-01  7.0710678119E-01
                       7.0710236181E-01  3.5355118091E-03  7.0710236181E-01
                       7.0710236181E-01  7.0710236181E-01  3.5355118091E-03
            rprim3     0.0000000000E+00  7.0710678119E-01  7.0710678119E-01
                       7.0710236181E-01 -3.5355118091E-03  7.0710236181E-01
                       7.0710236181E-01  7.0710236181E-01 -3.5355118091E-03
           shiftk1     5.00000000E-01  5.00000000E-01  5.00000000E-01
           shiftk2     5.00000000E-01 -5.00000000E-01  5.00000000E-01
           shiftk3     5.00000000E-01 -5.00000000E-01  5.00000000E-01
          spgroup1        216
          spgroup2          8
          spgroup3          8
           symafm1       1    1    1    1    1    1    1    1    1    1
                         1    1    1    1    1    1    1    1    1    1
                         1    1    1    1
           symafm2       1    1
           symafm3       1    1
           symrel1     1  0  0   0  1  0   0  0  1       0 -1  1   0 -1  0   1 -1  0
                      -1  0  0  -1  0  1  -1  1  0       0  1 -1   1  0 -1   0  0 -1
                      -1  0  0  -1  1  0  -1  0  1       0 -1  1   1 -1  0   0 -1  0
                       1  0  0   0  0  1   0  1  0       0  1 -1   0  0 -1   1  0 -1
                      -1  0  1  -1  1  0  -1  0  0       0 -1  0   1 -1  0   0 -1  1
                       1  0 -1   0  0 -1   0  1 -1       0  1  0   0  0  1   1  0  0
                       1  0 -1   0  1 -1   0  0 -1       0 -1  0   0 -1  1   1 -1  0
                      -1  0  1  -1  0  0  -1  1  0       0  1  0   1  0  0   0  0  1
                       0  0 -1   0  1 -1   1  0 -1       1 -1  0   0 -1  1   0 -1  0
                       0  0  1   1  0  0   0  1  0      -1  1  0  -1  0  0  -1  0  1
                       0  0  1   0  1  0   1  0  0       1 -1  0   0 -1  0   0 -1  1
                       0  0 -1   1  0 -1   0  1 -1      -1  1  0  -1  0  1  -1  0  0
           symrel2     1  0  0   0  1  0   0  0  1       1  0  0   0  0  1   0  1  0
           symrel3     1  0  0   0  1  0   0  0  1       1  0  0   0  0  1   0  1  0
            tnons1     0.0000000  0.0000000  0.0000000     0.0000000  0.0000000  0.0000000
                       0.0000000  0.0000000  0.0000000     0.0000000  0.0000000  0.0000000
                       0.0000000  0.0000000  0.0000000     0.0000000  0.0000000  0.0000000
                       0.0000000  0.0000000  0.0000000     0.0000000  0.0000000  0.0000000
                       0.0000000  0.0000000  0.0000000     0.0000000  0.0000000  0.0000000
                       0.0000000  0.0000000  0.0000000     0.0000000  0.0000000  0.0000000
                       0.0000000  0.0000000  0.0000000     0.0000000  0.0000000  0.0000000
                       0.0000000  0.0000000  0.0000000     0.0000000  0.0000000  0.0000000
                       0.0000000  0.0000000  0.0000000     0.0000000  0.0000000  0.0000000
                       0.0000000  0.0000000  0.0000000     0.0000000  0.0000000  0.0000000
                       0.0000000  0.0000000  0.0000000     0.0000000  0.0000000  0.0000000
                       0.0000000  0.0000000  0.0000000     0.0000000  0.0000000  0.0000000
            tnons2     0.0000000  0.0000000  0.0000000     0.0000000  0.0000000  0.0000000
            tnons3     0.0000000  0.0000000  0.0000000     0.0000000  0.0000000  0.0000000
           toldfe      1.20000000E-13 Hartree
           tolmxf      1.00000000E-05
            typat      1  2
              wtk1       0.02778    0.02778    0.02778    0.05556    0.02778    0.02778
                         0.05556    0.02778    0.05556    0.05556    0.02778    0.02778
                         0.02778    0.05556    0.02778    0.05556    0.05556    0.05556
                         0.02778    0.02778    0.02778    0.02778    0.02778    0.05556
                         0.05556    0.00926    0.00926    0.00926
              wtk2       0.00231    0.00231    0.00463    0.00463    0.00231    0.00231
                         0.00463    0.00463    0.00463    0.00463    0.00231    0.00463
                         0.00463    0.00231    0.00463    0.00463    0.00463    0.00463
                         0.00463    0.00463    0.00231    0.00463    0.00463    0.00463
                         0.00463    0.00231    0.00463    0.00463    0.00231    0.00463
                         0.00463    0.00463    0.00463    0.00463    0.00463    0.00463
                         0.00463    0.00231    0.00463    0.00463    0.00463    0.00463
                         0.00463    0.00463    0.00231    0.00463    0.00463    0.00463
                         0.00463    0.00231
              wtk3       0.00231    0.00231    0.00463    0.00463    0.00231    0.00231
                         0.00463    0.00463    0.00463    0.00463    0.00231    0.00463
                         0.00463    0.00231    0.00463    0.00463    0.00463    0.00463
                         0.00463    0.00463    0.00231    0.00463    0.00463    0.00463
                         0.00463    0.00231    0.00463    0.00463    0.00231    0.00463
                         0.00463    0.00463    0.00463    0.00463    0.00463    0.00463
                         0.00463    0.00231    0.00463    0.00463    0.00463    0.00463
                         0.00463    0.00463    0.00231    0.00463    0.00463    0.00463
                         0.00463    0.00231
                       outvars : Printing only first  50 k-points.
           xangst1     0.0000000000E+00  0.0000000000E+00  0.0000000000E+00
                       1.3935689396E+00  1.3935689396E+00  1.3935689396E+00
           xangst2     0.0000000000E+00  0.0000000000E+00  0.0000000000E+00
                       1.3935602298E+00  1.4005324076E+00  1.4005324076E+00
           xangst3     0.0000000000E+00  0.0000000000E+00  0.0000000000E+00
                       1.3935602298E+00  1.3865967618E+00  1.3865967618E+00
            xcart1     0.0000000000E+00  0.0000000000E+00  0.0000000000E+00
                       2.6334636431E+00  2.6334636431E+00  2.6334636431E+00
            xcart2     0.0000000000E+00  0.0000000000E+00  0.0000000000E+00
                       2.6334471840E+00  2.6466226906E+00  2.6466226906E+00
            xcart3     0.0000000000E+00  0.0000000000E+00  0.0000000000E+00
                       2.6334471840E+00  2.6202881365E+00  2.6202881365E+00
             xred      0.0000000000E+00  0.0000000000E+00  0.0000000000E+00
                       2.5000000000E-01  2.5000000000E-01  2.5000000000E-01
            znucl       13.00000   33.00000

================================================================================

 chkinp: Checking input parameters for consistency, jdtset=   1.

 chkinp: Checking input parameters for consistency, jdtset=   2.

 chkinp: Checking input parameters for consistency, jdtset=   3.

================================================================================
== DATASET  1 ==================================================================
-   nproc =    1

 Exchange-correlation functional for the present dataset will be:
  LDA: old Teter (4/91) fit to Ceperley-Alder data - ixc=3

 Real(R)+Recip(G) space primitive vectors, cartesian coordinates (Bohr,Bohr^-1):
 R(1)=  0.0000000  5.2669273  5.2669273  G(1)= -0.0949320  0.0949320  0.0949320
 R(2)=  5.2669273  0.0000000  5.2669273  G(2)=  0.0949320 -0.0949320  0.0949320
 R(3)=  5.2669273  5.2669273  0.0000000  G(3)=  0.0949320  0.0949320 -0.0949320
 Unit cell volume ucvol=  2.9221464E+02 bohr^3
 Angles (23,13,12)=  6.00000000E+01  6.00000000E+01  6.00000000E+01 degrees

 getcut: wavevector=  0.0000  0.0000  0.0000  ngfft=  12  12  12
         ecut(hartree)=      3.087   => boxcut(ratio)=   2.03693

--- Pseudopotential description ------------------------------------------------
- pspini: atom type   1  psp file is /data/ABINIT/testf_gcc47/trunk_7.10.4-training/tests/Psps_for_tests/13al.pspnc
- pspatm: opening atomic psp file    /data/ABINIT/testf_gcc47/trunk_7.10.4-training/tests/Psps_for_tests/13al.pspnc
-  Troullier-Martins psp for element  Al        Thu Oct 27 17:31:05 EDT 1994
- 13.00000   3.00000    940714                znucl, zion, pspdat
    1    1    2    2      2001   0.00000      pspcod,pspxc,lmax,lloc,mmax,r2well
    0   4.657  11.889    1   2.2761078        l,e99.0,e99.9,nproj,rcpsp
   0.00000000   0.00000000   0.00000000   0.00000000     rms, ekb1, ekb2, epsatm
    1   1.829   2.761    1   2.2761078        l,e99.0,e99.9,nproj,rcpsp
   0.00000000   0.00000000   0.00000000   0.00000000     rms, ekb1, ekb2, epsatm
    2   0.000   0.000    0   2.2761078        l,e99.0,e99.9,nproj,rcpsp
   0.00000000   0.00000000   0.00000000   0.00000000     rms, ekb1, ekb2, epsatm
    2.09673076353074    0.12648111154518    1.01742091001718   rchrg,fchrg,qchrg
 pspatm: epsatm=    0.22155260
         --- l  ekb(1:nproj) -->
             0    2.540658
             1    1.353815
 pspatm: atomic psp has been read  and splines computed

- pspini: atom type   2  psp file is /data/ABINIT/testf_gcc47/trunk_7.10.4-training/tests/Psps_for_tests/33as.pspnc
- pspatm: opening atomic psp file    /data/ABINIT/testf_gcc47/trunk_7.10.4-training/tests/Psps_for_tests/33as.pspnc
-  Troullier-Martins psp for element  As        Thu Oct 27 17:37:14 EDT 1994
- 33.00000   5.00000    940714                znucl, zion, pspdat
    1    1    1    1      2001   0.00000      pspcod,pspxc,lmax,lloc,mmax,r2well
    0   4.772  10.829    1   2.5306160        l,e99.0,e99.9,nproj,rcpsp
   0.00000000   0.00000000   0.00000000   0.00000000     rms, ekb1, ekb2, epsatm
    1   2.745   5.580    0   2.5306160        l,e99.0,e99.9,nproj,rcpsp
   0.00000000   0.00000000   0.00000000   0.00000000     rms, ekb1, ekb2, epsatm
    2.05731715564010    0.36322996461007    2.76014815959125   rchrg,fchrg,qchrg
 pspatm: epsatm=   27.20579911
         --- l  ekb(1:nproj) -->
             0    0.838751
 pspatm: atomic psp has been read  and splines computed

   2.19418814E+02                                ecore*ucvol(ha*bohr**3)
--------------------------------------------------------------------------------

P newkpt: treating      5 bands with npw=      68 for ikpt=   1 by node    0
P newkpt: treating      5 bands with npw=      74 for ikpt=   2 by node    0
P newkpt: treating      5 bands with npw=      74 for ikpt=   3 by node    0
P newkpt: treating      5 bands with npw=      73 for ikpt=   4 by node    0
P newkpt: treating      5 bands with npw=      74 for ikpt=   5 by node    0
P newkpt: treating      5 bands with npw=      75 for ikpt=   6 by node    0
P newkpt: treating      5 bands with npw=      76 for ikpt=   7 by node    0
P newkpt: treating      5 bands with npw=      77 for ikpt=   8 by node    0
P newkpt: treating      5 bands with npw=      77 for ikpt=   9 by node    0
P newkpt: treating      5 bands with npw=      75 for ikpt=  10 by node    0
P newkpt: treating      5 bands with npw=      74 for ikpt=  11 by node    0
P newkpt: treating      5 bands with npw=      79 for ikpt=  12 by node    0
P newkpt: treating      5 bands with npw=      77 for ikpt=  13 by node    0
P newkpt: treating      5 bands with npw=      78 for ikpt=  14 by node    0
P newkpt: treating      5 bands with npw=      79 for ikpt=  15 by node    0
P newkpt: treating      5 bands with npw=      80 for ikpt=  16 by node    0
P newkpt: treating      5 bands with npw=      77 for ikpt=  17 by node    0
P newkpt: treating      5 bands with npw=      77 for ikpt=  18 by node    0
P newkpt: treating      5 bands with npw=      69 for ikpt=  19 by node    0
P newkpt: treating      5 bands with npw=      75 for ikpt=  20 by node    0
P newkpt: treating      5 bands with npw=      75 for ikpt=  21 by node    0
P newkpt: treating      5 bands with npw=      74 for ikpt=  22 by node    0
P newkpt: treating      5 bands with npw=      75 for ikpt=  23 by node    0
P newkpt: treating      5 bands with npw=      77 for ikpt=  24 by node    0
P newkpt: treating      5 bands with npw=      76 for ikpt=  25 by node    0
P newkpt: treating      5 bands with npw=      65 for ikpt=  26 by node    0
P newkpt: treating      5 bands with npw=      74 for ikpt=  27 by node    0
P newkpt: treating      5 bands with npw=      73 for ikpt=  28 by node    0

_setup2: Arith. and geom. avg. npw (full set) are      75.602      75.552
  initberry: for direction 1, nkstr =   6, nstr =    144
  initberry: for direction 2, nkstr =   6, nstr =    144
  initberry: for direction 3, nkstr =   6, nstr =    144

================================================================================

=== [ionmov= 2] Broyden-Fletcher-Goldfard-Shanno method (forces)            
================================================================================

--- Iteration: ( 1/13) Internal Cycle: (1/1)
--------------------------------------------------------------------------------

---SELF-CONSISTENT-FIELD CONVERGENCE--------------------------------------------

     iter   Etot(hartree)      deltaE(h)  residm     vres2    diffor    maxfor
 ETOT  1  -10.081665077715    -1.008E+01 8.646E-03 9.285E-01 1.997E-31 1.997E-31
 ETOT  2  -10.085672415162    -4.007E-03 2.792E-05 2.460E-02 1.997E-31 0.000E+00
 ETOT  3  -10.085763952230    -9.154E-05 7.835E-06 1.965E-03 1.001E-29 1.001E-29
 ETOT  4  -10.085769493831    -5.542E-06 3.835E-07 1.248E-04 1.001E-29 0.000E+00
 ETOT  5  -10.085768956073     5.378E-07 5.276E-08 3.152E-04 1.488E-28 1.488E-28
 ETOT  6  -10.085769655964    -6.999E-07 9.445E-08 4.460E-05 1.504E-28 7.988E-30
 ETOT  7  -10.085769739511    -8.355E-08 4.487E-09 2.740E-06 1.118E-29 9.586E-30
 ETOT  8  -10.085769744894    -5.383E-09 6.843E-10 2.217E-07 9.286E-30 4.993E-31
 ETOT  9  -10.085769745273    -3.795E-10 1.936E-10 3.315E-09 4.993E-31 7.988E-31
 ETOT 10  -10.085769745279    -5.173E-12 1.562E-11 4.855E-10 7.988E-31 0.000E+00
 ETOT 11  -10.085769745279    -3.553E-14 3.457E-12 3.914E-10 0.000E+00 0.000E+00
 ETOT 12  -10.085769745279    -7.372E-13 2.813E-13 4.108E-11 0.000E+00 0.000E+00
 ETOT 13  -10.085769745279    -9.059E-14 9.073E-14 5.971E-14 0.000E+00 0.000E+00

 Computing the polarization (Berry phase) for reciprocal vector:
  0.16667  0.00000  0.00000 (in reduced coordinates)
 -0.01582  0.01582  0.01582 (in cartesian coordinates - atomic units)
 Number of strings:   144
 Number of k points in string:    6

 Summary of the results
 Electronic Berry phase     2.032008778E-03
            Ionic phase    -7.500000000E-01
            Total phase    -7.479679912E-01
    Remapping in [-1,1]    -7.479679912E-01

           Polarization    -1.556710090E-02 (a.u. of charge)/bohr^2
           Polarization    -8.906679648E-01 C/m^2


 Computing the polarization (Berry phase) for reciprocal vector:
  0.00000  0.16667  0.00000 (in reduced coordinates)
  0.01582 -0.01582  0.01582 (in cartesian coordinates - atomic units)
 Number of strings:   144
 Number of k points in string:    6

 Summary of the results
 Electronic Berry phase     2.032008778E-03
            Ionic phase    -7.500000000E-01
            Total phase    -7.479679912E-01
    Remapping in [-1,1]    -7.479679912E-01

           Polarization    -1.556710090E-02 (a.u. of charge)/bohr^2
           Polarization    -8.906679648E-01 C/m^2


 Computing the polarization (Berry phase) for reciprocal vector:
  0.00000  0.00000  0.16667 (in reduced coordinates)
  0.01582  0.01582 -0.01582 (in cartesian coordinates - atomic units)
 Number of strings:   144
 Number of k points in string:    6

 Summary of the results
 Electronic Berry phase     2.032008778E-03
            Ionic phase    -7.500000000E-01
            Total phase    -7.479679912E-01
    Remapping in [-1,1]    -7.479679912E-01

           Polarization    -1.556710090E-02 (a.u. of charge)/bohr^2
           Polarization    -8.906679648E-01 C/m^2


 Polarization in cartesian coordinates (a.u.):
 (the sum of the electronic and ionic Berry phase has been folded into [-1, 1])
     Electronic berry phase:        0.732505575E-04   0.732505575E-04   0.732505575E-04
     Ionic:                        -0.270362602E-01  -0.270362602E-01  -0.270362602E-01  
     Total:                        -0.269630097E-01  -0.269630097E-01  -0.269630097E-01

 Polarization in cartesian coordinates (C/m^2):
 (the sum of the electronic and ionic Berry phase has been folded into [-1, 1])
     Electronic berry phase:        0.419101318E-02   0.419101318E-02   0.419101318E-02
     Ionic:                        -0.154687318E+01  -0.154687318E+01  -0.154687318E+01  
     Total:                        -0.154268217E+01  -0.154268217E+01  -0.154268217E+01

 Cartesian components of stress tensor (hartree/bohr^3)
  sigma(1 1)= -1.39963044E-09  sigma(3 2)=  0.00000000E+00
  sigma(2 2)= -1.39963044E-09  sigma(3 1)=  0.00000000E+00
  sigma(3 3)= -1.39963044E-09  sigma(2 1)=  0.00000000E+00


---OUTPUT-----------------------------------------------------------------------

 Cartesian coordinates (xcart) [bohr]
  0.00000000000000E+00  0.00000000000000E+00  0.00000000000000E+00
  2.63346364305029E+00  2.63346364305029E+00  2.63346364305029E+00
 Reduced coordinates (xred)
  0.00000000000000E+00  0.00000000000000E+00  0.00000000000000E+00
  2.50000000000000E-01  2.50000000000000E-01  2.50000000000000E-01
 Cartesian forces (fcart) [Ha/bohr]; max,rms= 0.00000E+00 0.00000E+00 (free atoms)
 -0.00000000000000E+00 -0.00000000000000E+00 -0.00000000000000E+00
 -0.00000000000000E+00 -0.00000000000000E+00 -0.00000000000000E+00
 Reduced forces (fred)
  0.00000000000000E+00  0.00000000000000E+00  0.00000000000000E+00
  0.00000000000000E+00  0.00000000000000E+00  0.00000000000000E+00
 Total energy (etotal) [Ha]= -1.00857697452795E+01

 At Broyd/MD step   1, gradients are converged : 
  max grad (force/stress) = 0.0000E+00 < tolmxf= 1.0000E-05 ha/bohr (free atoms)

================================================================================

 ----iterations are completed or convergence reached----

 Mean square residual over all n,k,spin=   1.1271E-15; max=  9.0728E-14
  -0.0833 -0.1667  0.0000    1  9.07275E-14 kpt; spin; max resid(k); each band:
  2.49E-16 3.19E-16 1.91E-18 3.92E-17 9.07E-14
  -0.0833 -0.3333  0.0000    1  9.47652E-16 kpt; spin; max resid(k); each band:
  3.72E-16 3.79E-16 9.36E-18 1.55E-16 9.48E-16
  -0.1667 -0.2500  0.0000    1  1.22970E-15 kpt; spin; max resid(k); each band:
  2.36E-16 2.12E-16 6.64E-17 1.48E-17 1.23E-15
  -0.0833 -0.2500  0.0833    1  1.39451E-15 kpt; spin; max resid(k); each band:
  2.45E-16 3.02E-16 1.55E-16 3.34E-17 1.39E-15
  -0.0833  0.5000  0.0000    1  1.31925E-15 kpt; spin; max resid(k); each band:
  5.55E-16 1.44E-16 1.75E-16 5.26E-18 1.32E-15
  -0.1667 -0.4167  0.0000    1  1.06300E-15 kpt; spin; max resid(k); each band:
  2.43E-16 5.22E-16 3.86E-16 7.16E-18 1.06E-15
  -0.0833 -0.4167  0.0833    1  3.15940E-15 kpt; spin; max resid(k); each band:
  4.07E-16 1.75E-16 2.04E-16 6.87E-17 3.16E-15
  -0.2500 -0.3333  0.0000    1  9.42947E-16 kpt; spin; max resid(k); each band:
  2.47E-16 2.26E-16 1.31E-16 8.66E-18 9.43E-16
  -0.1667 -0.3333  0.0833    1  1.12151E-15 kpt; spin; max resid(k); each band:
  2.24E-16 3.51E-16 2.11E-16 1.45E-16 1.12E-15
  -0.0833 -0.3333  0.1667    1  6.49086E-15 kpt; spin; max resid(k); each band:
  3.84E-16 2.06E-16 3.50E-16 8.40E-17 6.49E-15
  -0.0833  0.3333  0.0000    1  1.09678E-15 kpt; spin; max resid(k); each band:
  4.95E-16 2.30E-16 1.51E-16 5.96E-18 1.10E-15
  -0.1667  0.4167  0.0000    1  1.36369E-15 kpt; spin; max resid(k); each band:
  3.91E-16 3.01E-16 4.52E-16 5.16E-18 1.36E-15
  -0.2500  0.5000  0.0000    1  1.32951E-15 kpt; spin; max resid(k); each band:
  1.92E-16 4.85E-16 8.21E-16 5.34E-18 1.33E-15
  -0.1667  0.5000  0.0833    1  1.56169E-15 kpt; spin; max resid(k); each band:
  2.22E-16 4.71E-16 6.03E-16 1.23E-16 1.56E-15
  -0.3333 -0.4167  0.0000    1  7.91847E-16 kpt; spin; max resid(k); each band:
  1.52E-16 1.93E-16 2.39E-16 5.58E-18 7.92E-16
  -0.2500 -0.4167  0.0833    1  1.27304E-15 kpt; spin; max resid(k); each band:
  1.74E-16 3.11E-16 5.21E-16 2.11E-16 1.27E-15
  -0.1667 -0.4167  0.1667    1  1.69855E-15 kpt; spin; max resid(k); each band:
  1.03E-16 3.87E-16 5.03E-16 3.49E-16 1.70E-15
  -0.0833 -0.4167  0.2500    1  1.39086E-15 kpt; spin; max resid(k); each band:
  2.03E-16 2.42E-16 1.15E-15 1.34E-16 1.39E-15
  -0.0833  0.1667  0.0000    1  8.74584E-16 kpt; spin; max resid(k); each band:
  3.01E-16 3.28E-16 6.09E-17 1.82E-18 8.75E-16
  -0.1667  0.2500  0.0000    1  1.25577E-15 kpt; spin; max resid(k); each band:
  4.60E-16 1.02E-16 2.01E-16 8.03E-18 1.26E-15
  -0.2500  0.3333  0.0000    1  1.31518E-15 kpt; spin; max resid(k); each band:
  3.63E-16 3.00E-16 8.16E-16 5.17E-18 1.32E-15
  -0.3333  0.4167  0.0000    1  1.51438E-15 kpt; spin; max resid(k); each band:
  1.23E-16 1.89E-16 1.33E-15 4.10E-18 1.51E-15
  -0.4167  0.5000  0.0000    1  7.15707E-16 kpt; spin; max resid(k); each band:
  4.68E-17 9.75E-17 3.34E-16 4.44E-18 7.16E-16
  -0.3333  0.5000  0.0833    1  1.43270E-15 kpt; spin; max resid(k); each band:
  7.09E-17 1.62E-16 8.90E-16 1.82E-16 1.43E-15
  -0.2500  0.5000  0.1667    1  1.36285E-15 kpt; spin; max resid(k); each band:
  7.16E-17 1.11E-16 9.86E-16 4.18E-16 1.36E-15
  -0.0833  0.0000  0.0000    1  7.12784E-16 kpt; spin; max resid(k); each band:
  2.60E-16 2.16E-16 2.44E-18 2.44E-18 7.13E-16
  -0.2500  0.0000  0.0000    1  7.31755E-16 kpt; spin; max resid(k); each band:
  3.65E-16 3.96E-16 1.14E-17 1.14E-17 7.32E-16
  -0.4167  0.0000  0.0000    1  8.73170E-16 kpt; spin; max resid(k); each band:
  5.66E-16 2.10E-16 5.52E-18 5.52E-18 8.73E-16
 reduced coordinates (array xred) for    2 atoms
       0.000000000000      0.000000000000      0.000000000000
       0.250000000000      0.250000000000      0.250000000000
 rms dE/dt=  0.0000E+00; max dE/dt=  0.0000E+00; dE/dt below (all hartree)
    1       0.000000000000      0.000000000000      0.000000000000
    2       0.000000000000      0.000000000000      0.000000000000

 cartesian coordinates (angstrom) at end:
    1      0.00000000000000     0.00000000000000     0.00000000000000
    2      1.39356893955261     1.39356893955261     1.39356893955261

 cartesian forces (hartree/bohr) at end:
    1     -0.00000000000000    -0.00000000000000    -0.00000000000000
    2     -0.00000000000000    -0.00000000000000    -0.00000000000000
 frms,max,avg= 0.0000000E+00 0.0000000E+00   0.000E+00  0.000E+00  0.000E+00 h/b

 cartesian forces (eV/Angstrom) at end:
    1     -0.00000000000000    -0.00000000000000    -0.00000000000000
    2     -0.00000000000000    -0.00000000000000    -0.00000000000000
 frms,max,avg= 0.0000000E+00 0.0000000E+00   0.000E+00  0.000E+00  0.000E+00 e/A
 length scales=  7.448560000000  7.448560000000  7.448560000000 bohr
              =  3.941608188815  3.941608188815  3.941608188815 angstroms
 prteigrs : about to open file tffield_5o_DS1_EIG
 Fermi (or HOMO) energy (hartree) =   0.09055   Average Vxc (hartree)=  -0.34847
 Eigenvalues (hartree) for nkpt=  28  k points:
 kpt#   1, nband=  5, wtk=  0.02778, kpt= -0.0833 -0.1667  0.0000 (reduced coord)
  -0.34045   0.02813   0.07395   0.07828   0.22106
 kpt#   2, nband=  5, wtk=  0.02778, kpt= -0.0833 -0.3333  0.0000 (reduced coord)
  -0.31627  -0.06164   0.05874   0.05993   0.20434
 kpt#   3, nband=  5, wtk=  0.02778, kpt= -0.1667 -0.2500  0.0000 (reduced coord)
  -0.32707  -0.01117   0.05196   0.05242   0.20295
 kpt#   4, nband=  5, wtk=  0.05556, kpt= -0.0833 -0.2500  0.0833 (reduced coord)
  -0.32137  -0.03551   0.03392   0.06843   0.22599
 kpt#   5, nband=  5, wtk=  0.02778, kpt= -0.0833  0.5000  0.0000 (reduced coord)
  -0.29352  -0.11372   0.04513   0.05727   0.19454
 kpt#   6, nband=  5, wtk=  0.02778, kpt= -0.1667 -0.4167  0.0000 (reduced coord)
  -0.30065  -0.08223   0.02462   0.04308   0.20234
 kpt#   7, nband=  5, wtk=  0.05556, kpt= -0.0833 -0.4167  0.0833 (reduced coord)
  -0.29479  -0.10011   0.02001   0.05191   0.21628
 kpt#   8, nband=  5, wtk=  0.02778, kpt= -0.2500 -0.3333  0.0000 (reduced coord)
  -0.30841  -0.04767   0.02721   0.03330   0.17929
 kpt#   9, nband=  5, wtk=  0.05556, kpt= -0.1667 -0.3333  0.0833 (reduced coord)
  -0.30407  -0.06283   0.01120   0.04082   0.20716
 kpt#  10, nband=  5, wtk=  0.05556, kpt= -0.0833 -0.3333  0.1667 (reduced coord)
  -0.29601  -0.08032  -0.01071   0.04905   0.23412
 kpt#  11, nband=  5, wtk=  0.02778, kpt= -0.0833  0.3333  0.0000 (reduced coord)
  -0.30673  -0.08559   0.04275   0.06828   0.20055
 kpt#  12, nband=  5, wtk=  0.02778, kpt= -0.1667  0.4167  0.0000 (reduced coord)
  -0.28850  -0.10766   0.00578   0.05036   0.20624
 kpt#  13, nband=  5, wtk=  0.02778, kpt= -0.2500  0.5000  0.0000 (reduced coord)
  -0.28482  -0.09393  -0.01202   0.03086   0.18353
 kpt#  14, nband=  5, wtk=  0.05556, kpt= -0.1667  0.5000  0.0833 (reduced coord)
  -0.28385  -0.10246  -0.01036   0.03345   0.21218
 kpt#  15, nband=  5, wtk=  0.02778, kpt= -0.3333 -0.4167  0.0000 (reduced coord)
  -0.28847  -0.08099   0.00881   0.01915   0.15967
 kpt#  16, nband=  5, wtk=  0.05556, kpt= -0.2500 -0.4167  0.0833 (reduced coord)
  -0.28590  -0.08498  -0.00820   0.01784   0.18769
 kpt#  17, nband=  5, wtk=  0.05556, kpt= -0.1667 -0.4167  0.1667 (reduced coord)
  -0.28176  -0.09102  -0.02577   0.01816   0.23611
 kpt#  18, nband=  5, wtk=  0.05556, kpt= -0.0833 -0.4167  0.2500 (reduced coord)
  -0.27749  -0.09520  -0.03787   0.02437   0.20336
 kpt#  19, nband=  5, wtk=  0.02778, kpt= -0.0833  0.1667  0.0000 (reduced coord)
  -0.33404  -0.00371   0.05766   0.08548   0.21760
 kpt#  20, nband=  5, wtk=  0.02778, kpt= -0.1667  0.2500  0.0000 (reduced coord)
  -0.31040  -0.06091   0.01028   0.07038   0.22852
 kpt#  21, nband=  5, wtk=  0.02778, kpt= -0.2500  0.3333  0.0000 (reduced coord)
  -0.28621  -0.09193  -0.02895   0.04630   0.20249
 kpt#  22, nband=  5, wtk=  0.02778, kpt= -0.3333  0.4167  0.0000 (reduced coord)
  -0.27437  -0.09717  -0.03677   0.02437   0.17210
 kpt#  23, nband=  5, wtk=  0.02778, kpt= -0.4167  0.5000  0.0000 (reduced coord)
  -0.27410  -0.10320  -0.00107   0.01142   0.14810
 kpt#  24, nband=  5, wtk=  0.05556, kpt= -0.3333  0.5000  0.0833 (reduced coord)
  -0.27321  -0.09885  -0.02044   0.00611   0.17658
 kpt#  25, nband=  5, wtk=  0.05556, kpt= -0.2500  0.5000  0.1667 (reduced coord)
  -0.27269  -0.09411  -0.03345  -0.00423   0.22818
 kpt#  26, nband=  5, wtk=  0.00926, kpt= -0.0833  0.0000  0.0000 (reduced coord)
  -0.34717   0.06505   0.09055   0.09055   0.20066
 kpt#  27, nband=  5, wtk=  0.00926, kpt= -0.2500  0.0000  0.0000 (reduced coord)
  -0.32800  -0.03344   0.07464   0.07464   0.19452
 kpt#  28, nband=  5, wtk=  0.00926, kpt= -0.4167  0.0000  0.0000 (reduced coord)
  -0.30036  -0.10572   0.06395   0.06395   0.17951
 Total charge density [el/Bohr^3]
,     Maximum=    9.1388E-02  at reduced coord.    0.1667    0.1667    0.5000
,Next maximum=    9.1388E-02  at reduced coord.    0.1667    0.5000    0.1667
,     Minimum=    3.1485E-03  at reduced coord.    0.7500    0.7500    0.7500
,Next minimum=    3.4934E-03  at reduced coord.    0.5000    0.5000    0.5000
,  Integrated=    8.0000E+00

--------------------------------------------------------------------------------
 Components of total free energy (in Hartree) :

    Kinetic energy  =  2.91759370601406E+00
    Hartree energy  =  7.61530857137550E-01
    XC energy       = -4.34890938643734E+00
    Ewald energy    = -8.54119393747757E+00
    PspCore energy  =  7.50882355150384E-01
    Loc. psp. energy= -2.29452113080465E+00
    NL   psp  energy=  6.68847791138116E-01
    >>>>>>>>> Etotal= -1.00857697452795E+01

 Other information on the energy :
    Total energy(eV)= -2.74447752062374E+02 ; Band energy (Ha)=  -6.5056946054E-01
--------------------------------------------------------------------------------

 Cartesian components of stress tensor (hartree/bohr^3)
  sigma(1 1)= -1.39963044E-09  sigma(3 2)=  0.00000000E+00
  sigma(2 2)= -1.39963044E-09  sigma(3 1)=  0.00000000E+00
  sigma(3 3)= -1.39963044E-09  sigma(2 1)=  0.00000000E+00

-Cartesian components of stress tensor (GPa)         [Pressure=  4.1179E-05 GPa]
- sigma(1 1)= -4.11785423E-05  sigma(3 2)=  0.00000000E+00
- sigma(2 2)= -4.11785423E-05  sigma(3 1)=  0.00000000E+00
- sigma(3 3)= -4.11785423E-05  sigma(2 1)=  0.00000000E+00

================================================================================
== DATASET  2 ==================================================================
-   nproc =    1

 Exchange-correlation functional for the present dataset will be:
  LDA: old Teter (4/91) fit to Ceperley-Alder data - ixc=3

 Real(R)+Recip(G) space primitive vectors, cartesian coordinates (Bohr,Bohr^-1):
 R(1)=  0.0000000  5.2932619  5.2932619  G(1)= -0.0949320  0.0944597  0.0944597
 R(2)=  5.2668944  0.0263345  5.2668944  G(2)=  0.0949326 -0.0954097  0.0954097
 R(3)=  5.2668944  5.2668944  0.0263345  G(3)=  0.0949326  0.0954097 -0.0954097
 Unit cell volume ucvol=  2.9220368E+02 bohr^3
 Angles (23,13,12)=  5.96690667E+01  5.98346712E+01  5.98346712E+01 degrees

 getcut: wavevector=  0.0000  0.0000  0.0000  ngfft=  12  12  12
         ecut(hartree)=      3.087   => boxcut(ratio)=   2.02679
--------------------------------------------------------------------------------

P newkpt: treating      5 bands with npw=      65 for ikpt=   1 by node    0
P newkpt: treating      5 bands with npw=      74 for ikpt=   2 by node    0
P newkpt: treating      5 bands with npw=      69 for ikpt=   3 by node    0
P newkpt: treating      5 bands with npw=      69 for ikpt=   4 by node    0
P newkpt: treating      5 bands with npw=      68 for ikpt=   5 by node    0
P newkpt: treating      5 bands with npw=      73 for ikpt=   6 by node    0
P newkpt: treating      5 bands with npw=      74 for ikpt=   7 by node    0
P newkpt: treating      5 bands with npw=      76 for ikpt=   8 by node    0
P newkpt: treating      5 bands with npw=      76 for ikpt=   9 by node    0
P newkpt: treating      5 bands with npw=      74 for ikpt=  10 by node    0
P newkpt: treating      5 bands with npw=      74 for ikpt=  11 by node    0
P newkpt: treating      5 bands with npw=      73 for ikpt=  12 by node    0
P newkpt: treating      5 bands with npw=      74 for ikpt=  13 by node    0
P newkpt: treating      5 bands with npw=      77 for ikpt=  14 by node    0
P newkpt: treating      5 bands with npw=      76 for ikpt=  15 by node    0
P newkpt: treating      5 bands with npw=      79 for ikpt=  16 by node    0
P newkpt: treating      5 bands with npw=      78 for ikpt=  17 by node    0
P newkpt: treating      5 bands with npw=      75 for ikpt=  18 by node    0
P newkpt: treating      5 bands with npw=      79 for ikpt=  19 by node    0
P newkpt: treating      5 bands with npw=      74 for ikpt=  20 by node    0
P newkpt: treating      5 bands with npw=      76 for ikpt=  21 by node    0
P newkpt: treating      5 bands with npw=      76 for ikpt=  22 by node    0
P newkpt: treating      5 bands with npw=      76 for ikpt=  23 by node    0
P newkpt: treating      5 bands with npw=      75 for ikpt=  24 by node    0
P newkpt: treating      5 bands with npw=      77 for ikpt=  25 by node    0
P newkpt: treating      5 bands with npw=      77 for ikpt=  26 by node    0
P newkpt: treating      5 bands with npw=      76 for ikpt=  27 by node    0
P newkpt: treating      5 bands with npw=      77 for ikpt=  28 by node    0
P newkpt: treating      5 bands with npw=      77 for ikpt=  29 by node    0
P newkpt: treating      5 bands with npw=      74 for ikpt=  30 by node    0
P newkpt: treating      5 bands with npw=      75 for ikpt=  31 by node    0
P newkpt: treating      5 bands with npw=      77 for ikpt=  32 by node    0
P newkpt: treating      5 bands with npw=      74 for ikpt=  33 by node    0
P newkpt: treating      5 bands with npw=      74 for ikpt=  34 by node    0
P newkpt: treating      5 bands with npw=      77 for ikpt=  35 by node    0
P newkpt: treating      5 bands with npw=      75 for ikpt=  36 by node    0
P newkpt: treating      5 bands with npw=      74 for ikpt=  37 by node    0
P newkpt: treating      5 bands with npw=      74 for ikpt=  38 by node    0
P newkpt: treating      5 bands with npw=      76 for ikpt=  39 by node    0
P newkpt: treating      5 bands with npw=      76 for ikpt=  40 by node    0
P newkpt: treating      5 bands with npw=      78 for ikpt=  41 by node    0
P newkpt: treating      5 bands with npw=      77 for ikpt=  42 by node    0
P newkpt: treating      5 bands with npw=      78 for ikpt=  43 by node    0
P newkpt: treating      5 bands with npw=      76 for ikpt=  44 by node    0
P newkpt: treating      5 bands with npw=      79 for ikpt=  45 by node    0
P newkpt: treating      5 bands with npw=      78 for ikpt=  46 by node    0
P newkpt: treating      5 bands with npw=      77 for ikpt=  47 by node    0
P newkpt: treating      5 bands with npw=      78 for ikpt=  48 by node    0
P newkpt: treating      5 bands with npw=      77 for ikpt=  49 by node    0
P newkpt: treating      5 bands with npw=      77 for ikpt=  50 by node    0
 newkpt: prtvol=0 or 1, do not print more k-points.

_setup2: Arith. and geom. avg. npw (full set) are      75.810      75.758
  initberry: for direction 1, nkstr =   6, nstr =    144
  initberry: for direction 2, nkstr =   6, nstr =    144
  initberry: for direction 3, nkstr =   6, nstr =    144

================================================================================

=== [ionmov= 2] Broyden-Fletcher-Goldfard-Shanno method (forces)            
================================================================================

--- Iteration: ( 1/13) Internal Cycle: (1/1)
--------------------------------------------------------------------------------

---SELF-CONSISTENT-FIELD CONVERGENCE--------------------------------------------

     iter   Etot(hartree)      deltaE(h)  residm     vres2    diffor    maxfor
 ETOT  1  -10.081563200487    -1.008E+01 1.834E-02 9.316E-01 8.858E-04 8.858E-04
 ETOT  2  -10.085628410986    -4.065E-03 4.346E-03 2.472E-02 8.128E-04 1.699E-03
 ETOT  3  -10.085720486350    -9.208E-05 8.417E-04 1.974E-03 5.230E-05 1.751E-03
 ETOT  4  -10.085726083732    -5.597E-06 8.217E-06 1.251E-04 1.993E-06 1.749E-03
 ETOT  5  -10.085725541887     5.418E-07 1.933E-06 3.177E-04 2.341E-06 1.747E-03
 ETOT  6  -10.085726245678    -7.038E-07 1.936E-07 4.510E-05 4.303E-06 1.751E-03
 ETOT  7  -10.085726330021    -8.434E-08 1.575E-08 2.753E-06 7.710E-07 1.752E-03
 ETOT  8  -10.085726335467    -5.446E-09 4.380E-09 2.216E-07 5.703E-07 1.751E-03
 ETOT  9  -10.085726335847    -3.800E-10 4.526E-10 3.373E-09 1.000E-07 1.751E-03
 ETOT 10  -10.085726335852    -5.308E-12 2.233E-10 4.955E-10 1.075E-08 1.751E-03
 ETOT 11  -10.085726335852    -4.441E-14 1.379E-11 4.048E-10 7.659E-10 1.751E-03
 ETOT 12  -10.085726335853    -7.461E-13 1.059E-11 4.292E-11 3.429E-09 1.751E-03
 ETOT 13  -10.085726335853    -6.573E-14 8.759E-13 5.779E-14 5.637E-10 1.751E-03

 Computing the polarization (Berry phase) for reciprocal vector:
  0.16667  0.00000  0.00000 (in reduced coordinates)
 -0.01582  0.01574  0.01574 (in cartesian coordinates - atomic units)
 Number of strings:   144
 Number of k points in string:    6

 Summary of the results
 Electronic Berry phase     5.184592246E-03
            Ionic phase    -7.500000000E-01
            Total phase    -7.448154078E-01
    Remapping in [-1,1]    -7.448154078E-01

           Polarization    -1.555361353E-02 (a.u. of charge)/bohr^2
           Polarization    -8.898962880E-01 C/m^2


 Computing the polarization (Berry phase) for reciprocal vector:
  0.00000  0.16667  0.00000 (in reduced coordinates)
  0.01582 -0.01590  0.01590 (in cartesian coordinates - atomic units)
 Number of strings:   144
 Number of k points in string:    6

 Summary of the results
 Electronic Berry phase    -1.116140620E-03
            Ionic phase    -7.500000000E-01
            Total phase    -7.511161406E-01
    Remapping in [-1,1]    -7.511161406E-01

           Polarization    -1.558086957E-02 (a.u. of charge)/bohr^2
           Polarization    -8.914557362E-01 C/m^2


 Computing the polarization (Berry phase) for reciprocal vector:
  0.00000  0.00000  0.16667 (in reduced coordinates)
  0.01582  0.01590 -0.01590 (in cartesian coordinates - atomic units)
 Number of strings:   144
 Number of k points in string:    6

 Summary of the results
 Electronic Berry phase    -1.116140620E-03
            Ionic phase    -7.500000000E-01
            Total phase    -7.511161406E-01
    Remapping in [-1,1]    -7.511161406E-01

           Polarization    -1.558086957E-02 (a.u. of charge)/bohr^2
           Polarization    -8.914557362E-01 C/m^2


 Polarization in cartesian coordinates (a.u.):
 (the sum of the electronic and ionic Berry phase has been folded into [-1, 1])
     Electronic berry phase:       -0.402362817E-04   0.737000204E-04   0.737000204E-04
     Ionic:                        -0.270371051E-01  -0.271723756E-01  -0.271723756E-01  
     Total:                        -0.270773414E-01  -0.270986756E-01  -0.270986756E-01

 Polarization in cartesian coordinates (C/m^2):
 (the sum of the electronic and ionic Berry phase has been folded into [-1, 1])
     Electronic berry phase:       -0.230210926E-02   0.421672909E-02   0.421672909E-02
     Ionic:                        -0.154692152E+01  -0.155466099E+01  -0.155466099E+01  
     Total:                        -0.154922363E+01  -0.155044426E+01  -0.155044426E+01

 Cartesian components of stress tensor (hartree/bohr^3)
  sigma(1 1)= -3.81182112E-07  sigma(3 2)=  2.97306539E-05
  sigma(2 2)= -5.19386582E-07  sigma(3 1)= -9.05952257E-09
  sigma(3 3)= -5.19386582E-07  sigma(2 1)= -9.05952257E-09


---OUTPUT-----------------------------------------------------------------------

 Cartesian coordinates (xcart) [bohr]
  0.00000000000000E+00  0.00000000000000E+00  0.00000000000000E+00
  2.63344718404397E+00  2.64662269060840E+00  2.64662269060840E+00
 Reduced coordinates (xred)
  0.00000000000000E+00  0.00000000000000E+00  0.00000000000000E+00
  2.50000000000000E-01  2.50000000000000E-01  2.50000000000000E-01
 Cartesian forces (fcart) [Ha/bohr]; max,rms= 1.75099E-03 1.01093E-03 (free atoms)
  1.75098969736318E-03 -5.21870322974026E-07 -5.21870322974026E-07
 -1.75098969736318E-03  5.21870322974026E-07  5.21870322974026E-07
 Reduced forces (fred)
  5.52481527318515E-06 -9.21955308976648E-03 -9.21955308976648E-03
 -5.52476996314995E-06  9.21947770338924E-03  9.21947770338924E-03
 Total energy (etotal) [Ha]= -1.00857263358530E+01

--- Iteration: ( 2/13) Internal Cycle: (1/1)
--------------------------------------------------------------------------------

---SELF-CONSISTENT-FIELD CONVERGENCE--------------------------------------------

     iter   Etot(hartree)      deltaE(h)  residm     vres2    diffor    maxfor
 ETOT  1  -10.085731502886    -1.009E+01 6.394E-09 7.486E-05 1.834E-04 1.568E-03
 ETOT  2  -10.085731832038    -3.292E-07 3.687E-10 1.936E-06 1.811E-04 1.386E-03
 ETOT  3  -10.085731837152    -5.114E-09 2.853E-10 1.127E-06 1.997E-05 1.406E-03
 ETOT  4  -10.085731840919    -3.767E-09 2.307E-10 6.893E-08 1.203E-05 1.394E-03
 ETOT  5  -10.085731841113    -1.934E-10 1.308E-11 4.423E-09 1.005E-06 1.393E-03
 ETOT  6  -10.085731841123    -1.045E-11 8.284E-12 4.267E-10 2.093E-07 1.393E-03
 ETOT  7  -10.085731841124    -9.628E-13 1.171E-12 3.193E-11 4.401E-08 1.393E-03
 ETOT  8  -10.085731841124    -7.105E-15 4.457E-13 2.456E-11 3.466E-09 1.393E-03
 ETOT  9  -10.085731841124    -5.684E-14 1.115E-13 2.508E-12 6.559E-09 1.393E-03

 At SCF step    9, etot is converged : 
  for the second time, diff in etot=  5.684E-14 < toldfe=  1.200E-13

 Computing the polarization (Berry phase) for reciprocal vector:
  0.16667  0.00000  0.00000 (in reduced coordinates)
 -0.01582  0.01574  0.01574 (in cartesian coordinates - atomic units)
 Number of strings:   144
 Number of k points in string:    6

 Summary of the results
 Electronic Berry phase     4.164710808E-03
            Ionic phase    -7.496673529E-01
            Total phase    -7.455026421E-01
    Remapping in [-1,1]    -7.455026421E-01

           Polarization    -1.556796470E-02 (a.u. of charge)/bohr^2
           Polarization    -8.907173871E-01 C/m^2


 Computing the polarization (Berry phase) for reciprocal vector:
  0.00000  0.16667  0.00000 (in reduced coordinates)
  0.01582 -0.01590  0.01590 (in cartesian coordinates - atomic units)
 Number of strings:   144
 Number of k points in string:    6

 Summary of the results
 Electronic Berry phase    -9.770132421E-05
            Ionic phase    -7.503324520E-01
            Total phase    -7.504301533E-01
    Remapping in [-1,1]    -7.504301533E-01

           Polarization    -1.556663971E-02 (a.u. of charge)/bohr^2
           Polarization    -8.906415781E-01 C/m^2


 Computing the polarization (Berry phase) for reciprocal vector:
  0.00000  0.00000  0.16667 (in reduced coordinates)
  0.01582  0.01590 -0.01590 (in cartesian coordinates - atomic units)
 Number of strings:   144
 Number of k points in string:    6

 Summary of the results
 Electronic Berry phase    -9.770132395E-05
            Ionic phase    -7.503324520E-01
            Total phase    -7.504301533E-01
    Remapping in [-1,1]    -7.504301533E-01

           Polarization    -1.556663971E-02 (a.u. of charge)/bohr^2
           Polarization    -8.906415781E-01 C/m^2


 Polarization in cartesian coordinates (a.u.):
 (the sum of the electronic and ionic Berry phase has been folded into [-1, 1])
     Electronic berry phase:       -0.352208130E-05   0.736737808E-04   0.736737808E-04
     Ionic:                        -0.270490899E-01  -0.271723720E-01  -0.271723720E-01  
     Total:                        -0.270526119E-01  -0.270986982E-01  -0.270986982E-01

 Polarization in cartesian coordinates (C/m^2):
 (the sum of the electronic and ionic Berry phase has been folded into [-1, 1])
     Electronic berry phase:       -0.201515041E-03   0.421522779E-02   0.421522779E-02
     Ionic:                        -0.154760722E+01  -0.155466078E+01  -0.155466078E+01  
     Total:                        -0.154780874E+01  -0.155044556E+01  -0.155044556E+01

 Cartesian components of stress tensor (hartree/bohr^3)
  sigma(1 1)= -2.85169025E-07  sigma(3 2)=  2.76331117E-05
  sigma(2 2)= -4.17064002E-07  sigma(3 1)= -8.60950760E-09
  sigma(3 3)= -4.17064002E-07  sigma(2 1)= -8.60950760E-09


---OUTPUT-----------------------------------------------------------------------

 Cartesian coordinates (xcart) [bohr]
  1.75098969736318E-03 -5.21870322973809E-07 -5.21870322973717E-07
  2.63169619434661E+00  2.64662321247873E+00  2.64662321247873E+00
 Reduced coordinates (xred)
 -1.66323564965644E-04  1.66226012427020E-04  1.66226012427020E-04
  2.50166323564966E-01  2.49833773987573E-01  2.49833773987573E-01
 Cartesian forces (fcart) [Ha/bohr]; max,rms= 1.39311E-03 8.04311E-04 (free atoms)
  1.39310752315515E-03 -4.22014201331602E-07 -4.22014201331602E-07
 -1.39310752315515E-03  4.22014201331602E-07  4.22014201331602E-07
 Reduced forces (fred)
  4.46760308753799E-06 -7.33515494207081E-03 -7.33515494207081E-03
 -4.46772372312197E-06  7.33507775814007E-03  7.33507775814007E-03
 Total energy (etotal) [Ha]= -1.00857318411241E+01

 Difference of energy with previous step (new-old):
           Absolute (Ha)=-5.50527E-06
           Relative     =-5.45848E-07

--- Iteration: ( 3/13) Internal Cycle: (1/1)
--------------------------------------------------------------------------------

---SELF-CONSISTENT-FIELD CONVERGENCE--------------------------------------------

     iter   Etot(hartree)      deltaE(h)  residm     vres2    diffor    maxfor
 ETOT  1  -10.085736214353    -1.009E+01 9.867E-08 1.133E-03 7.139E-04 6.792E-04
 ETOT  2  -10.085741135231    -4.921E-06 6.049E-09 4.172E-05 7.323E-04 5.310E-05
 ETOT  3  -10.085741278055    -1.428E-07 7.955E-09 1.703E-05 1.055E-04 5.237E-05
 ETOT  4  -10.085741334875    -5.682E-08 4.078E-09 9.987E-07 4.892E-05 3.454E-06
 ETOT  5  -10.085741337898    -3.023E-09 2.078E-10 6.161E-08 2.325E-06 1.129E-06
 ETOT  6  -10.085741338083    -1.848E-10 1.441E-10 6.031E-09 6.490E-07 4.805E-07
 ETOT  7  -10.085741338101    -1.874E-11 1.662E-11 3.805E-10 1.144E-07 3.661E-07
 ETOT  8  -10.085741338103    -1.183E-12 6.751E-12 4.120E-11 1.731E-08 3.488E-07
 ETOT  9  -10.085741338103    -4.619E-14 1.188E-12 4.028E-11 2.966E-09 3.518E-07
 ETOT 10  -10.085741338103    -7.461E-14 4.877E-13 4.692E-12 8.045E-09 3.437E-07

 At SCF step   10, etot is converged : 
  for the second time, diff in etot=  7.461E-14 < toldfe=  1.200E-13

 Computing the polarization (Berry phase) for reciprocal vector:
  0.16667  0.00000  0.00000 (in reduced coordinates)
 -0.01582  0.01574  0.01574 (in cartesian coordinates - atomic units)
 Number of strings:   144
 Number of k points in string:    6

 Summary of the results
 Electronic Berry phase     1.955785241E-04
            Ionic phase    -7.483724638E-01
            Total phase    -7.481768852E-01
    Remapping in [-1,1]    -7.481768852E-01

           Polarization    -1.562380961E-02 (a.u. of charge)/bohr^2
           Polarization    -8.939125400E-01 C/m^2


 Computing the polarization (Berry phase) for reciprocal vector:
  0.00000  0.16667  0.00000 (in reduced coordinates)
  0.01582 -0.01590  0.01590 (in cartesian coordinates - atomic units)
 Number of strings:   144
 Number of k points in string:    6

 Summary of the results
 Electronic Berry phase     3.867110367E-03
            Ionic phase    -7.516265691E-01
            Total phase    -7.477594587E-01
    Remapping in [-1,1]    -7.477594587E-01

           Polarization    -1.551123983E-02 (a.u. of charge)/bohr^2
           Polarization    -8.874718871E-01 C/m^2


 Computing the polarization (Berry phase) for reciprocal vector:
  0.00000  0.00000  0.16667 (in reduced coordinates)
  0.01582  0.01590 -0.01590 (in cartesian coordinates - atomic units)
 Number of strings:   144
 Number of k points in string:    6

 Summary of the results
 Electronic Berry phase     3.867110367E-03
            Ionic phase    -7.516265691E-01
            Total phase    -7.477594587E-01
    Remapping in [-1,1]    -7.477594587E-01

           Polarization    -1.551123983E-02 (a.u. of charge)/bohr^2
           Polarization    -8.874718871E-01 C/m^2


 Polarization in cartesian coordinates (a.u.):
 (the sum of the electronic and ionic Berry phase has been folded into [-1, 1])
     Electronic berry phase:        0.139407293E-03   0.735950644E-04   0.735950644E-04
     Ionic:                        -0.270957421E-01  -0.271723579E-01  -0.271723579E-01  
     Total:                        -0.269563348E-01  -0.270987628E-01  -0.270987628E-01

 Polarization in cartesian coordinates (C/m^2):
 (the sum of the electronic and ionic Berry phase has been folded into [-1, 1])
     Electronic berry phase:        0.797615501E-02   0.421072406E-02   0.421072406E-02
     Ionic:                        -0.155027642E+01  -0.155465997E+01  -0.155465997E+01  
     Total:                        -0.154230027E+01  -0.155044925E+01  -0.155044925E+01

 Cartesian components of stress tensor (hartree/bohr^3)
  sigma(1 1)=  7.23219392E-08  sigma(3 2)=  1.94717262E-05
  sigma(2 2)= -1.45813585E-07  sigma(3 1)= -6.41177460E-09
  sigma(3 3)= -1.45813585E-07  sigma(2 1)= -6.41177460E-09


---OUTPUT-----------------------------------------------------------------------

 Cartesian coordinates (xcart) [bohr]
  8.56696748076747E-03 -2.58663515464476E-06 -2.58663515464314E-06
  2.62488021656320E+00  2.64662527724356E+00  2.64662527724356E+00
 Reduced coordinates (xred)
 -8.13768118280006E-04  8.13284535634001E-04  8.13284535634001E-04
  2.50813768118280E-01  2.49186715464366E-01  2.49186715464366E-01
 Cartesian forces (fcart) [Ha/bohr]; max,rms= 3.43744E-07 1.98856E-07 (free atoms)
  3.43744252499652E-07 -1.53379611952718E-08 -1.53379611952718E-08
 -3.43744252499652E-07  1.53379611952718E-08  1.53379611952718E-08
 Reduced forces (fred)
  1.61736751317136E-07 -1.77393790966729E-06 -1.77393790966729E-06
 -1.63014632538045E-07  1.68461674834971E-06  1.68461674834971E-06
 Total energy (etotal) [Ha]= -1.00857413381026E+01

 Difference of energy with previous step (new-old):
           Absolute (Ha)=-9.49698E-06
           Relative     =-9.41625E-07

 At Broyd/MD step   3, gradients are converged : 
  max grad (force/stress) = 3.4374E-07 < tolmxf= 1.0000E-05 ha/bohr (free atoms)

================================================================================

 ----iterations are completed or convergence reached----

 Mean square residual over all n,k,spin=   1.1593E-15; max=  4.8772E-13
  -0.0833  0.0000  0.0000    1  1.40294E-15 kpt; spin; max resid(k); each band:
  9.51E-16 2.83E-16 2.18E-17 3.56E-18 1.40E-15
  -0.2500  0.0000  0.0000    1  5.85795E-16 kpt; spin; max resid(k); each band:
  5.86E-16 2.17E-16 5.49E-17 6.09E-19 5.44E-16
  -0.1667  0.0000  0.0833    1  1.05533E-15 kpt; spin; max resid(k); each band:
  6.63E-16 1.91E-16 5.72E-17 3.83E-17 1.06E-15
  -0.0833  0.0000  0.1667    1  1.07961E-15 kpt; spin; max resid(k); each band:
  7.39E-16 3.19E-16 1.03E-16 3.74E-17 1.08E-15
  -0.0833  0.0833  0.0833    1  2.87523E-13 kpt; spin; max resid(k); each band:
  6.27E-16 2.50E-16 1.28E-18 6.82E-17 2.88E-13
  -0.4167  0.0000  0.0000    1  4.62358E-16 kpt; spin; max resid(k); each band:
  4.04E-16 2.42E-16 6.90E-17 2.63E-19 4.62E-16
  -0.3333  0.0000  0.0833    1  5.09313E-16 kpt; spin; max resid(k); each band:
  4.35E-16 2.31E-16 9.54E-17 6.73E-17 5.09E-16
  -0.2500  0.0000  0.1667    1  5.43303E-16 kpt; spin; max resid(k); each band:
  3.44E-16 2.41E-16 7.55E-17 7.48E-17 5.43E-16
  -0.1667  0.0000  0.2500    1  6.85821E-16 kpt; spin; max resid(k); each band:
  4.48E-16 4.32E-16 1.22E-16 7.61E-17 6.86E-16
  -0.0833  0.0000  0.3333    1  8.53474E-16 kpt; spin; max resid(k); each band:
  5.15E-16 4.41E-16 1.64E-16 6.56E-17 8.53E-16
  -0.2500  0.0833  0.0833    1  4.99545E-16 kpt; spin; max resid(k); each band:
  4.40E-16 2.56E-16 9.54E-17 6.26E-19 5.00E-16
  -0.1667  0.0833  0.1667    1  2.16907E-15 kpt; spin; max resid(k); each band:
  3.82E-16 3.02E-16 8.41E-17 5.77E-17 2.17E-15
  -0.0833  0.0833  0.2500    1  1.24689E-15 kpt; spin; max resid(k); each band:
  6.76E-16 3.97E-16 2.13E-16 1.40E-16 1.25E-15
  -0.0833  0.1667  0.1667    1  8.97661E-16 kpt; spin; max resid(k); each band:
  5.20E-16 3.85E-16 7.60E-17 1.23E-17 8.98E-16
   0.5000  0.0000  0.0833    1  5.46073E-16 kpt; spin; max resid(k); each band:
  3.70E-16 2.40E-16 1.20E-16 8.54E-17 5.46E-16
  -0.4167  0.0000  0.1667    1  6.14997E-16 kpt; spin; max resid(k); each band:
  2.97E-16 3.23E-16 1.04E-16 1.08E-16 6.15E-16
  -0.3333  0.0000  0.2500    1  6.10430E-16 kpt; spin; max resid(k); each band:
  2.54E-16 4.73E-16 1.30E-16 1.19E-16 6.10E-16
  -0.2500  0.0000  0.3333    1  7.12245E-16 kpt; spin; max resid(k); each band:
  2.43E-16 6.21E-16 1.41E-16 1.19E-16 7.12E-16
  -0.1667  0.0000  0.4167    1  1.00486E-15 kpt; spin; max resid(k); each band:
  2.93E-16 6.23E-16 1.89E-16 1.09E-16 1.00E-15
  -0.0833  0.0000  0.5000    1  9.90629E-16 kpt; spin; max resid(k); each band:
  3.72E-16 4.81E-16 2.28E-16 9.17E-17 9.91E-16
  -0.4167  0.0833  0.0833    1  3.92690E-16 kpt; spin; max resid(k); each band:
  3.11E-16 2.75E-16 1.53E-16 3.41E-19 3.93E-16
  -0.3333  0.0833  0.1667    1  3.63339E-16 kpt; spin; max resid(k); each band:
  2.67E-16 3.15E-16 1.27E-16 9.05E-17 3.63E-16
  -0.2500  0.0833  0.2500    1  1.98846E-15 kpt; spin; max resid(k); each band:
  2.00E-16 4.39E-16 7.77E-17 3.30E-16 1.99E-15
  -0.1667  0.0833  0.3333    1  1.34325E-15 kpt; spin; max resid(k); each band:
  2.95E-16 6.12E-16 1.79E-16 3.36E-16 1.34E-15
  -0.0833  0.0833  0.4167    1  9.23409E-16 kpt; spin; max resid(k); each band:
  4.58E-16 4.20E-16 3.06E-16 1.05E-16 9.23E-16
  -0.2500  0.1667  0.1667    1  6.49962E-16 kpt; spin; max resid(k); each band:
  3.24E-16 4.27E-16 1.04E-16 1.15E-17 6.50E-16
  -0.1667  0.1667  0.2500    1  1.08459E-15 kpt; spin; max resid(k); each band:
  4.33E-16 5.12E-16 6.39E-17 1.91E-16 1.08E-15
  -0.0833  0.1667  0.3333    1  1.02013E-15 kpt; spin; max resid(k); each band:
  5.35E-16 4.61E-16 2.41E-16 1.60E-16 1.02E-15
  -0.0833  0.2500  0.2500    1  9.74093E-16 kpt; spin; max resid(k); each band:
  5.49E-16 5.02E-16 9.37E-17 9.62E-18 9.74E-16
   0.3333  0.0000  0.0833    1  7.33423E-16 kpt; spin; max resid(k); each band:
  5.54E-16 2.40E-16 1.05E-16 8.64E-17 7.33E-16
   0.4167  0.0000  0.1667    1  7.00108E-16 kpt; spin; max resid(k); each band:
  5.14E-16 3.37E-16 9.46E-17 1.17E-16 7.00E-16
   0.5000  0.0000  0.2500    1  6.80934E-16 kpt; spin; max resid(k); each band:
  4.17E-16 3.89E-16 1.37E-16 1.36E-16 6.81E-16
  -0.4167  0.0000  0.3333    1  7.66425E-16 kpt; spin; max resid(k); each band:
  3.10E-16 3.85E-16 2.41E-16 1.43E-16 7.66E-16
  -0.3333  0.0000  0.4167    1  8.22546E-16 kpt; spin; max resid(k); each band:
  2.76E-16 4.52E-16 3.00E-16 1.43E-16 8.23E-16
  -0.2500  0.0000  0.5000    1  8.64583E-16 kpt; spin; max resid(k); each band:
  3.61E-16 5.38E-16 2.86E-16 1.36E-16 8.65E-16
  -0.1667  0.0000 -0.4167    1  9.96902E-16 kpt; spin; max resid(k); each band:
  5.00E-16 5.57E-16 3.30E-16 1.20E-16 9.97E-16
  -0.0833  0.0000 -0.3333    1  1.07458E-15 kpt; spin; max resid(k); each band:
  6.06E-16 4.28E-16 1.66E-16 2.13E-16 1.07E-15
   0.4167  0.0833  0.0833    1  4.25000E-16 kpt; spin; max resid(k); each band:
  4.15E-16 2.56E-16 1.96E-16 1.81E-19 4.25E-16
   0.5000  0.0833  0.1667    1  1.13381E-15 kpt; spin; max resid(k); each band:
  3.43E-16 2.87E-16 2.05E-16 6.29E-17 1.13E-15
  -0.4167  0.0833  0.2500    1  9.24307E-16 kpt; spin; max resid(k); each band:
  3.13E-16 3.93E-16 1.01E-16 4.35E-16 9.24E-16
  -0.3333  0.0833  0.3333    1  9.85508E-16 kpt; spin; max resid(k); each band:
  2.43E-16 4.59E-16 1.36E-16 5.49E-16 9.86E-16
  -0.2500  0.0833  0.4167    1  1.08779E-15 kpt; spin; max resid(k); each band:
  2.13E-16 5.50E-16 2.39E-16 4.94E-16 1.09E-15
  -0.1667  0.0833  0.5000    1  1.21398E-15 kpt; spin; max resid(k); each band:
  2.66E-16 5.97E-16 3.24E-16 3.14E-16 1.21E-15
  -0.0833  0.0833 -0.4167    1  1.52815E-15 kpt; spin; max resid(k); each band:
  4.20E-16 4.90E-16 4.59E-16 9.91E-17 1.53E-15
  -0.4167  0.1667  0.1667    1  5.05045E-16 kpt; spin; max resid(k); each band:
  1.92E-16 4.12E-16 1.88E-16 9.50E-18 5.05E-16
  -0.3333  0.1667  0.2500    1  8.22254E-16 kpt; spin; max resid(k); each band:
  1.90E-16 5.02E-16 1.41E-16 2.20E-16 8.22E-16
  -0.2500  0.1667  0.3333    1  2.46470E-15 kpt; spin; max resid(k); each band:
  1.72E-16 6.70E-16 8.99E-17 8.25E-16 2.46E-15
  -0.1667  0.1667  0.4167    1  1.67978E-15 kpt; spin; max resid(k); each band:
  2.15E-16 5.48E-16 4.23E-16 5.74E-16 1.68E-15
  -0.0833  0.1667  0.5000    1  7.74028E-16 kpt; spin; max resid(k); each band:
  2.56E-16 3.51E-16 4.16E-16 2.66E-16 7.74E-16
  -0.2500  0.2500  0.2500    1  6.45030E-16 kpt; spin; max resid(k); each band:
  2.55E-16 5.04E-16 1.59E-16 9.07E-18 6.45E-16
 outwf : prtvol=0 or 1, do not print more k-points.

 reduced coordinates (array xred) for    2 atoms
      -0.000813768118      0.000813284536      0.000813284536
       0.250813768118      0.249186715464      0.249186715464
 rms dE/dt=  1.4155E-06; max dE/dt=  1.6846E-06; dE/dt below (all hartree)
    1       0.000000161737     -0.000001773938     -0.000001773938
    2      -0.000000163015      0.000001684617      0.000001684617

 cartesian coordinates (angstrom) at end:
    1      0.00453344393755    -0.00000136878837    -0.00000136878837
    2      1.38902678588403     1.40053377639548     1.40053377639548

 cartesian forces (hartree/bohr) at end:
    1      0.00000034374425    -0.00000001533796    -0.00000001533796
    2     -0.00000034374425     0.00000001533796     0.00000001533796
 frms,max,avg= 1.9885557E-07 3.4374425E-07   8.419E-09  6.035E-11  6.035E-11 h/b

 cartesian forces (eV/Angstrom) at end:
    1      0.00001767603867    -0.00000078870961    -0.00000078870961
    2     -0.00001767603867     0.00000078870961     0.00000078870961
 frms,max,avg= 1.0225564E-05 1.7676039E-05   4.329E-07  3.104E-09  3.104E-09 e/A
 length scales=  7.485802800000  7.448560000000  7.448560000000 bohr
              =  3.961316229759  3.941608188815  3.941608188815 angstroms
 prteigrs : about to open file tffield_5o_DS2_EIG
 Fermi (or HOMO) energy (hartree) =   0.09220   Average Vxc (hartree)=  -0.34848
 Eigenvalues (hartree) for nkpt= 234  k points:
 kpt#   1, nband=  5, wtk=  0.00231, kpt= -0.0833  0.0000  0.0000 (reduced coord)
  -0.34719   0.06390   0.09012   0.09220   0.20134
 kpt#   2, nband=  5, wtk=  0.00231, kpt= -0.2500  0.0000  0.0000 (reduced coord)
  -0.32820  -0.03446   0.07462   0.07630   0.19591
 kpt#   3, nband=  5, wtk=  0.00463, kpt= -0.1667  0.0000  0.0833 (reduced coord)
  -0.33410  -0.00457   0.05871   0.08567   0.21845
 kpt#   4, nband=  5, wtk=  0.00463, kpt= -0.0833  0.0000  0.1667 (reduced coord)
  -0.33396  -0.00284   0.05669   0.08534   0.21657
 kpt#   5, nband=  5, wtk=  0.00231, kpt= -0.0833  0.0833  0.0833 (reduced coord)
  -0.34047   0.02729   0.07580   0.07756   0.22286
 kpt#   6, nband=  5, wtk=  0.00231, kpt= -0.4167  0.0000  0.0000 (reduced coord)
  -0.30087  -0.10627   0.06417   0.06562   0.18101
 kpt#   7, nband=  5, wtk=  0.00463, kpt= -0.3333  0.0000  0.0833 (reduced coord)
  -0.30707  -0.08633   0.04409   0.06876   0.20188
 kpt#   8, nband=  5, wtk=  0.00463, kpt= -0.2500  0.0000  0.1667 (reduced coord)
  -0.31052  -0.06148   0.01110   0.07056   0.22913
 kpt#   9, nband=  5, wtk=  0.00463, kpt= -0.1667  0.0000  0.2500 (reduced coord)
  -0.31027  -0.06032   0.00952   0.07022   0.22783
 kpt#  10, nband=  5, wtk=  0.00463, kpt= -0.0833  0.0000  0.3333 (reduced coord)
  -0.30636  -0.08483   0.04145   0.06785   0.19920
 kpt#  11, nband=  5, wtk=  0.00231, kpt= -0.2500  0.0833  0.0833 (reduced coord)
  -0.31649  -0.06261   0.06031   0.06060   0.20588
 kpt#  12, nband=  5, wtk=  0.00463, kpt= -0.1667  0.0833  0.1667 (reduced coord)
  -0.32144  -0.03626   0.03483   0.06888   0.22791
 kpt#  13, nband=  5, wtk=  0.00463, kpt= -0.0833  0.0833  0.2500 (reduced coord)
  -0.32128  -0.03477   0.03306   0.06804   0.22407
 kpt#  14, nband=  5, wtk=  0.00231, kpt= -0.0833  0.1667  0.1667 (reduced coord)
  -0.32709  -0.01169   0.05085   0.05448   0.20328
 kpt#  15, nband=  5, wtk=  0.00463, kpt=  0.5000  0.0000  0.0833 (reduced coord)
  -0.29408  -0.11414   0.04620   0.05781   0.19599
 kpt#  16, nband=  5, wtk=  0.00463, kpt= -0.4167  0.0000  0.1667 (reduced coord)
  -0.28893  -0.10805   0.00668   0.05071   0.20697
 kpt#  17, nband=  5, wtk=  0.00463, kpt= -0.3333  0.0000  0.2500 (reduced coord)
  -0.28637  -0.09225  -0.02845   0.04644   0.20267
 kpt#  18, nband=  5, wtk=  0.00463, kpt= -0.2500  0.0000  0.3333 (reduced coord)
  -0.28601  -0.09159  -0.02940   0.04620   0.20233
 kpt#  19, nband=  5, wtk=  0.00463, kpt= -0.1667  0.0000  0.4167 (reduced coord)
  -0.28804  -0.10724   0.00494   0.05005   0.20552
 kpt#  20, nband=  5, wtk=  0.00463, kpt= -0.0833  0.0000  0.5000 (reduced coord)
  -0.29292  -0.11329   0.04407   0.05679   0.19309
 kpt#  21, nband=  5, wtk=  0.00231, kpt= -0.4167  0.0833  0.0833 (reduced coord)
  -0.29405  -0.11418   0.04546   0.05903   0.19629
 kpt#  22, nband=  5, wtk=  0.00463, kpt= -0.3333  0.0833  0.1667 (reduced coord)
  -0.29516  -0.10075   0.02098   0.05285   0.21833
 kpt#  23, nband=  5, wtk=  0.00463, kpt= -0.2500  0.0833  0.2500 (reduced coord)
  -0.29615  -0.08084  -0.01000   0.04932   0.23463
 kpt#  24, nband=  5, wtk=  0.00463, kpt= -0.1667  0.0833  0.3333 (reduced coord)
  -0.29585  -0.07979  -0.01136   0.04881   0.23359
 kpt#  25, nband=  5, wtk=  0.00463, kpt= -0.0833  0.0833  0.4167 (reduced coord)
  -0.29439  -0.09945   0.01905   0.05104   0.21426
 kpt#  26, nband=  5, wtk=  0.00231, kpt= -0.2500  0.1667  0.1667 (reduced coord)
  -0.30089  -0.08307   0.02479   0.04511   0.20437
 kpt#  27, nband=  5, wtk=  0.00463, kpt= -0.1667  0.1667  0.2500 (reduced coord)
  -0.30415  -0.06339   0.01154   0.04165   0.20868
 kpt#  28, nband=  5, wtk=  0.00463, kpt= -0.0833  0.1667  0.3333 (reduced coord)
  -0.30397  -0.06227   0.01086   0.04011   0.20550
 kpt#  29, nband=  5, wtk=  0.00231, kpt= -0.0833  0.2500  0.2500 (reduced coord)
  -0.30844  -0.04794   0.02568   0.03547   0.17972
 kpt#  30, nband=  5, wtk=  0.00463, kpt=  0.3333  0.0000  0.0833 (reduced coord)
  -0.31660  -0.06239   0.05889   0.06100   0.20578
 kpt#  31, nband=  5, wtk=  0.00463, kpt=  0.4167  0.0000  0.1667 (reduced coord)
  -0.30104  -0.08262   0.02511   0.04340   0.20296
 kpt#  32, nband=  5, wtk=  0.00463, kpt=  0.5000  0.0000  0.2500 (reduced coord)
  -0.28516  -0.09399  -0.01174   0.03105   0.18384
 kpt#  33, nband=  5, wtk=  0.00463, kpt= -0.4167  0.0000  0.3333 (reduced coord)
  -0.27449  -0.09710  -0.03667   0.02444   0.17223
 kpt#  34, nband=  5, wtk=  0.00463, kpt= -0.3333  0.0000  0.4167 (reduced coord)
  -0.27421  -0.09719  -0.03684   0.02434   0.17198
 kpt#  35, nband=  5, wtk=  0.00463, kpt= -0.2500  0.0000  0.5000 (reduced coord)
  -0.28445  -0.09384  -0.01226   0.03071   0.18324
 kpt#  36, nband=  5, wtk=  0.00463, kpt= -0.1667  0.0000 -0.4167 (reduced coord)
  -0.30022  -0.08183   0.02418   0.04279   0.20174
 kpt#  37, nband=  5, wtk=  0.00463, kpt= -0.0833  0.0000 -0.3333 (reduced coord)
  -0.31591  -0.06086   0.05796   0.05959   0.20288
 kpt#  38, nband=  5, wtk=  0.00231, kpt=  0.4167  0.0833  0.0833 (reduced coord)
  -0.30726  -0.08620   0.04253   0.06983   0.20249
 kpt#  39, nband=  5, wtk=  0.00463, kpt=  0.5000  0.0833  0.1667 (reduced coord)
  -0.29536  -0.10047   0.02013   0.05309   0.21804
 kpt#  40, nband=  5, wtk=  0.00463, kpt= -0.4167  0.0833  0.2500 (reduced coord)
  -0.28431  -0.10271  -0.00978   0.03388   0.21295
 kpt#  41, nband=  5, wtk=  0.00463, kpt= -0.3333  0.0833  0.3333 (reduced coord)
  -0.27767  -0.09537  -0.03748   0.02448   0.20361
 kpt#  42, nband=  5, wtk=  0.00463, kpt= -0.2500  0.0833  0.4167 (reduced coord)
  -0.27729  -0.09500  -0.03822   0.02430   0.20315
 kpt#  43, nband=  5, wtk=  0.00463, kpt= -0.1667  0.0833  0.5000 (reduced coord)
  -0.28336  -0.10219  -0.01090   0.03306   0.21145
 kpt#  44, nband=  5, wtk=  0.00463, kpt= -0.0833  0.0833 -0.4167 (reduced coord)
  -0.29418  -0.09974   0.01988   0.05081   0.21454
 kpt#  45, nband=  5, wtk=  0.00231, kpt= -0.4167  0.1667  0.1667 (reduced coord)
  -0.28908  -0.10804   0.00586   0.05214   0.20841
 kpt#  46, nband=  5, wtk=  0.00463, kpt= -0.3333  0.1667  0.2500 (reduced coord)
  -0.28428  -0.10296  -0.01009   0.03487   0.21471
 kpt#  47, nband=  5, wtk=  0.00463, kpt= -0.2500  0.1667  0.3333 (reduced coord)
  -0.28192  -0.09139  -0.02541   0.01860   0.23810
 kpt#  48, nband=  5, wtk=  0.00463, kpt= -0.1667  0.1667  0.4167 (reduced coord)
  -0.28158  -0.09065  -0.02608   0.01776   0.23393
 kpt#  49, nband=  5, wtk=  0.00463, kpt= -0.0833  0.1667  0.5000 (reduced coord)
  -0.28340  -0.10195  -0.01062   0.03211   0.20969
 kpt#  50, nband=  5, wtk=  0.00231, kpt= -0.2500  0.2500  0.2500 (reduced coord)
  -0.28512  -0.09456  -0.01226   0.03297   0.18576
 prteigrs : prtvol=0 or 1, do not print more k-points.

 Total charge density [el/Bohr^3]
,     Maximum=    9.1573E-02  at reduced coord.    0.1667    0.1667    0.5000
,Next maximum=    9.1573E-02  at reduced coord.    0.1667    0.5000    0.1667
,     Minimum=    3.1496E-03  at reduced coord.    0.7500    0.7500    0.7500
,Next minimum=    3.4946E-03  at reduced coord.    0.5000    0.5000    0.5000
,  Integrated=    8.0000E+00

--------------------------------------------------------------------------------
 Components of total free energy (in Hartree) :

    Kinetic energy  =  2.91761001348137E+00
    Hartree energy  =  7.61516143310954E-01
    XC energy       = -4.34891020557471E+00
    Ewald energy    = -8.54134919017488E+00
    PspCore energy  =  7.50910513953671E-01
    Loc. psp. energy= -2.29436941515578E+00
    NL   psp  energy=  6.68850802056746E-01
    >>>>>>>>> Etotal= -1.00857413381026E+01

 Other information on the energy :
    Total energy(eV)= -2.74446979063781E+02 ; Band energy (Ha)=  -6.5042967988E-01
[...]
              kpt2    -8.33333333E-02  0.00000000E+00  0.00000000E+00
                      -2.50000000E-01  0.00000000E+00  0.00000000E+00
                      -1.66666667E-01  0.00000000E+00  8.33333333E-02
                      -8.33333333E-02  0.00000000E+00  1.66666667E-01
                      -8.33333333E-02  8.33333333E-02  8.33333333E-02
                      -4.16666667E-01  0.00000000E+00  0.00000000E+00
                      -3.33333333E-01  0.00000000E+00  8.33333333E-02
                      -2.50000000E-01  0.00000000E+00  1.66666667E-01
                      -1.66666667E-01  0.00000000E+00  2.50000000E-01
                      -8.33333333E-02  0.00000000E+00  3.33333333E-01
                      -2.50000000E-01  8.33333333E-02  8.33333333E-02
                      -1.66666667E-01  8.33333333E-02  1.66666667E-01
                      -8.33333333E-02  8.33333333E-02  2.50000000E-01
                      -8.33333333E-02  1.66666667E-01  1.66666667E-01
                       5.00000000E-01  0.00000000E+00  8.33333333E-02
                      -4.16666667E-01  0.00000000E+00  1.66666667E-01
                      -3.33333333E-01  0.00000000E+00  2.50000000E-01
                      -2.50000000E-01  0.00000000E+00  3.33333333E-01
                      -1.66666667E-01  0.00000000E+00  4.16666667E-01
                      -8.33333333E-02  0.00000000E+00  5.00000000E-01
                      -4.16666667E-01  8.33333333E-02  8.33333333E-02
                      -3.33333333E-01  8.33333333E-02  1.66666667E-01
                      -2.50000000E-01  8.33333333E-02  2.50000000E-01
                      -1.66666667E-01  8.33333333E-02  3.33333333E-01
                      -8.33333333E-02  8.33333333E-02  4.16666667E-01
                      -2.50000000E-01  1.66666667E-01  1.66666667E-01
                      -1.66666667E-01  1.66666667E-01  2.50000000E-01
                      -8.33333333E-02  1.66666667E-01  3.33333333E-01
                      -8.33333333E-02  2.50000000E-01  2.50000000E-01
                       3.33333333E-01  0.00000000E+00  8.33333333E-02
                       4.16666667E-01  0.00000000E+00  1.66666667E-01
                       5.00000000E-01  0.00000000E+00  2.50000000E-01
                      -4.16666667E-01  0.00000000E+00  3.33333333E-01
                      -3.33333333E-01  0.00000000E+00  4.16666667E-01
                      -2.50000000E-01  0.00000000E+00  5.00000000E-01
                      -1.66666667E-01  0.00000000E+00 -4.16666667E-01
                      -8.33333333E-02  0.00000000E+00 -3.33333333E-01
                       4.16666667E-01  8.33333333E-02  8.33333333E-02
                       5.00000000E-01  8.33333333E-02  1.66666667E-01
                      -4.16666667E-01  8.33333333E-02  2.50000000E-01
                      -3.33333333E-01  8.33333333E-02  3.33333333E-01
                      -2.50000000E-01  8.33333333E-02  4.16666667E-01
                      -1.66666667E-01  8.33333333E-02  5.00000000E-01
                      -8.33333333E-02  8.33333333E-02 -4.16666667E-01
                      -4.16666667E-01  1.66666667E-01  1.66666667E-01
                      -3.33333333E-01  1.66666667E-01  2.50000000E-01
                      -2.50000000E-01  1.66666667E-01  3.33333333E-01
                      -1.66666667E-01  1.66666667E-01  4.16666667E-01
                      -8.33333333E-02  1.66666667E-01  5.00000000E-01
                      -2.50000000E-01  2.50000000E-01  2.50000000E-01
              kpt3    -8.33333333E-02  0.00000000E+00  0.00000000E+00
                      -2.50000000E-01  0.00000000E+00  0.00000000E+00
                      -1.66666667E-01  0.00000000E+00  8.33333333E-02
                      -8.33333333E-02  0.00000000E+00  1.66666667E-01
                      -8.33333333E-02  8.33333333E-02  8.33333333E-02
                      -4.16666667E-01  0.00000000E+00  0.00000000E+00
                      -3.33333333E-01  0.00000000E+00  8.33333333E-02
                      -2.50000000E-01  0.00000000E+00  1.66666667E-01
                      -1.66666667E-01  0.00000000E+00  2.50000000E-01
                      -8.33333333E-02  0.00000000E+00  3.33333333E-01
                      -2.50000000E-01  8.33333333E-02  8.33333333E-02
                      -1.66666667E-01  8.33333333E-02  1.66666667E-01
                      -8.33333333E-02  8.33333333E-02  2.50000000E-01
                      -8.33333333E-02  1.66666667E-01  1.66666667E-01
                       5.00000000E-01  0.00000000E+00  8.33333333E-02
                      -4.16666667E-01  0.00000000E+00  1.66666667E-01
                      -3.33333333E-01  0.00000000E+00  2.50000000E-01
                      -2.50000000E-01  0.00000000E+00  3.33333333E-01
                      -1.66666667E-01  0.00000000E+00  4.16666667E-01
                      -8.33333333E-02  0.00000000E+00  5.00000000E-01
                      -4.16666667E-01  8.33333333E-02  8.33333333E-02
                      -3.33333333E-01  8.33333333E-02  1.66666667E-01
                      -2.50000000E-01  8.33333333E-02  2.50000000E-01
                      -1.66666667E-01  8.33333333E-02  3.33333333E-01
                      -8.33333333E-02  8.33333333E-02  4.16666667E-01
                      -2.50000000E-01  1.66666667E-01  1.66666667E-01
                      -1.66666667E-01  1.66666667E-01  2.50000000E-01
                      -8.33333333E-02  1.66666667E-01  3.33333333E-01
                      -8.33333333E-02  2.50000000E-01  2.50000000E-01
                       3.33333333E-01  0.00000000E+00  8.33333333E-02
                       4.16666667E-01  0.00000000E+00  1.66666667E-01
                       5.00000000E-01  0.00000000E+00  2.50000000E-01
                      -4.16666667E-01  0.00000000E+00  3.33333333E-01
                      -3.33333333E-01  0.00000000E+00  4.16666667E-01
                      -2.50000000E-01  0.00000000E+00  5.00000000E-01
                      -1.66666667E-01  0.00000000E+00 -4.16666667E-01
                      -8.33333333E-02  0.00000000E+00 -3.33333333E-01
                       4.16666667E-01  8.33333333E-02  8.33333333E-02
                       5.00000000E-01  8.33333333E-02  1.66666667E-01
                      -4.16666667E-01  8.33333333E-02  2.50000000E-01
                      -3.33333333E-01  8.33333333E-02  3.33333333E-01
                      -2.50000000E-01  8.33333333E-02  4.16666667E-01
                      -1.66666667E-01  8.33333333E-02  5.00000000E-01
                      -8.33333333E-02  8.33333333E-02 -4.16666667E-01
                      -4.16666667E-01  1.66666667E-01  1.66666667E-01
                      -3.33333333E-01  1.66666667E-01  2.50000000E-01
                      -2.50000000E-01  1.66666667E-01  3.33333333E-01
                      -1.66666667E-01  1.66666667E-01  4.16666667E-01
                      -8.33333333E-02  1.66666667E-01  5.00000000E-01
                      -2.50000000E-01  2.50000000E-01  2.50000000E-01
                       outvar_i_n : Printing only first  50 k-points.
         kptrlatt1       6   -6    6     -6    6    6     -6   -6    6
         kptrlatt2       6   -6    6      6    6   -6     -6    6    6
         kptrlatt3       6   -6    6      6    6   -6     -6    6    6
          kptrlen1     6.32031274E+01
          kptrlen2     6.32027324E+01
          kptrlen3     6.32027324E+01
P           mkmem1         28
P           mkmem2        234
P           mkmem3        234
            natom           2
            nband1          5
            nband2          5
            nband3          5
           ndtset           3
            ngfft          12      12      12
             nkpt1         28
             nkpt2        234
             nkpt3        234
            nstep          13
             nsym1         24
             nsym2          2
             nsym3          2
            ntime          13
           ntypat           2
              occ1     2.000000  2.000000  2.000000  2.000000  0.000000
              occ2     2.000000  2.000000  2.000000  2.000000  0.000000
              occ3     2.000000  2.000000  2.000000  2.000000  0.000000
        optforces           1
            rfdir           1       1       1
            rprim1     0.0000000000E+00  7.0710678119E-01  7.0710678119E-01
                       7.0710678119E-01  0.0000000000E+00  7.0710678119E-01
                       7.0710678119E-01  7.0710678119E-01  0.0000000000E+00
            rprim2     0.0000000000E+00  7.0710678119E-01  7.0710678119E-01
                       7.0710236181E-01  3.5355118091E-03  7.0710236181E-01
                       7.0710236181E-01  7.0710236181E-01  3.5355118091E-03
            rprim3     0.0000000000E+00  7.0710678119E-01  7.0710678119E-01
                       7.0710236181E-01 -3.5355118091E-03  7.0710236181E-01
                       7.0710236181E-01  7.0710236181E-01 -3.5355118091E-03
           shiftk1     5.00000000E-01  5.00000000E-01  5.00000000E-01
           shiftk2     5.00000000E-01 -5.00000000E-01  5.00000000E-01
           shiftk3     5.00000000E-01 -5.00000000E-01  5.00000000E-01
          spgroup1        216
          spgroup2          8
          spgroup3          8
           strten1    -1.3996304393E-09 -1.3996304402E-09 -1.3996304402E-09
                       0.0000000000E+00  0.0000000000E+00  0.0000000000E+00
           strten2     7.2321939163E-08 -1.4581358478E-07 -1.4581358478E-07
                       1.9471726176E-05 -6.4117745978E-09 -6.4117745976E-09
           strten3     7.2106509551E-08 -1.4567975277E-07 -1.4567975277E-07
                      -1.9447327338E-05 -5.9021160121E-09 -5.9021160121E-09
           symafm1       1    1    1    1    1    1    1    1    1    1
                         1    1    1    1    1    1    1    1    1    1
                         1    1    1    1
           symafm2       1    1
           symafm3       1    1
           symrel1     1  0  0   0  1  0   0  0  1       0 -1  1   0 -1  0   1 -1  0
                      -1  0  0  -1  0  1  -1  1  0       0  1 -1   1  0 -1   0  0 -1
                      -1  0  0  -1  1  0  -1  0  1       0 -1  1   1 -1  0   0 -1  0
                       1  0  0   0  0  1   0  1  0       0  1 -1   0  0 -1   1  0 -1
                      -1  0  1  -1  1  0  -1  0  0       0 -1  0   1 -1  0   0 -1  1
                       1  0 -1   0  0 -1   0  1 -1       0  1  0   0  0  1   1  0  0
                       1  0 -1   0  1 -1   0  0 -1       0 -1  0   0 -1  1   1 -1  0
                      -1  0  1  -1  0  0  -1  1  0       0  1  0   1  0  0   0  0  1
                       0  0 -1   0  1 -1   1  0 -1       1 -1  0   0 -1  1   0 -1  0
                       0  0  1   1  0  0   0  1  0      -1  1  0  -1  0  0  -1  0  1
                       0  0  1   0  1  0   1  0  0       1 -1  0   0 -1  0   0 -1  1
                       0  0 -1   1  0 -1   0  1 -1      -1  1  0  -1  0  1  -1  0  0
           symrel2     1  0  0   0  1  0   0  0  1       1  0  0   0  0  1   0  1  0
           symrel3     1  0  0   0  1  0   0  0  1       1  0  0   0  0  1   0  1  0
            tnons1     0.0000000  0.0000000  0.0000000     0.0000000  0.0000000  0.0000000
                       0.0000000  0.0000000  0.0000000     0.0000000  0.0000000  0.0000000
                       0.0000000  0.0000000  0.0000000     0.0000000  0.0000000  0.0000000
                       0.0000000  0.0000000  0.0000000     0.0000000  0.0000000  0.0000000
                       0.0000000  0.0000000  0.0000000     0.0000000  0.0000000  0.0000000
                       0.0000000  0.0000000  0.0000000     0.0000000  0.0000000  0.0000000
                       0.0000000  0.0000000  0.0000000     0.0000000  0.0000000  0.0000000
                       0.0000000  0.0000000  0.0000000     0.0000000  0.0000000  0.0000000
                       0.0000000  0.0000000  0.0000000     0.0000000  0.0000000  0.0000000
                       0.0000000  0.0000000  0.0000000     0.0000000  0.0000000  0.0000000
                       0.0000000  0.0000000  0.0000000     0.0000000  0.0000000  0.0000000
                       0.0000000  0.0000000  0.0000000     0.0000000  0.0000000  0.0000000
            tnons2     0.0000000  0.0000000  0.0000000     0.0000000  0.0000000  0.0000000
            tnons3     0.0000000  0.0000000  0.0000000     0.0000000  0.0000000  0.0000000
           toldfe      1.20000000E-13 Hartree
           tolmxf      1.00000000E-05
            typat      1  2
              wtk1       0.02778    0.02778    0.02778    0.05556    0.02778    0.02778
                         0.05556    0.02778    0.05556    0.05556    0.02778    0.02778
                         0.02778    0.05556    0.02778    0.05556    0.05556    0.05556
                         0.02778    0.02778    0.02778    0.02778    0.02778    0.05556
                         0.05556    0.00926    0.00926    0.00926
              wtk2       0.00231    0.00231    0.00463    0.00463    0.00231    0.00231
                         0.00463    0.00463    0.00463    0.00463    0.00231    0.00463
                         0.00463    0.00231    0.00463    0.00463    0.00463    0.00463
                         0.00463    0.00463    0.00231    0.00463    0.00463    0.00463
                         0.00463    0.00231    0.00463    0.00463    0.00231    0.00463
                         0.00463    0.00463    0.00463    0.00463    0.00463    0.00463
                         0.00463    0.00231    0.00463    0.00463    0.00463    0.00463
                         0.00463    0.00463    0.00231    0.00463    0.00463    0.00463
                         0.00463    0.00231
              wtk3       0.00231    0.00231    0.00463    0.00463    0.00231    0.00231
                         0.00463    0.00463    0.00463    0.00463    0.00231    0.00463
                         0.00463    0.00231    0.00463    0.00463    0.00463    0.00463
                         0.00463    0.00463    0.00231    0.00463    0.00463    0.00463
                         0.00463    0.00231    0.00463    0.00463    0.00231    0.00463
                         0.00463    0.00463    0.00463    0.00463    0.00463    0.00463
                         0.00463    0.00231    0.00463    0.00463    0.00463    0.00463
                         0.00463    0.00463    0.00231    0.00463    0.00463    0.00463
                         0.00463    0.00231
                       outvars : Printing only first  50 k-points.
           xangst1     0.0000000000E+00  0.0000000000E+00  0.0000000000E+00
                       1.3935689396E+00  1.3935689396E+00  1.3935689396E+00
           xangst2     4.5334439376E-03 -1.3687883708E-06 -1.3687883708E-06
                       1.3890267859E+00  1.4005337764E+00  1.4005337764E+00
           xangst3    -4.5277779239E-03 -1.4601040648E-06 -1.4601040648E-06
                       1.3980880077E+00  1.3865982219E+00  1.3865982219E+00
            xcart1     0.0000000000E+00  0.0000000000E+00  0.0000000000E+00
                       2.6334636431E+00  2.6334636431E+00  2.6334636431E+00
            xcart2     8.5669674808E-03 -2.5866351546E-06 -2.5866351546E-06
                       2.6248802166E+00  2.6466252772E+00  2.6466252772E+00
            xcart3    -8.5562602668E-03 -2.7591968079E-06 -2.7591968079E-06
                       2.6420034443E+00  2.6202908957E+00  2.6202908957E+00
             xred1     0.0000000000E+00  0.0000000000E+00  0.0000000000E+00
                       2.5000000000E-01  2.5000000000E-01  2.5000000000E-01
             xred2    -8.1376811828E-04  8.1328453563E-04  8.1328453563E-04
                       2.5081376812E-01  2.4918671546E-01  2.4918671546E-01
             xred3     8.1173649057E-04 -8.1226807192E-04 -8.1226807192E-04
                       2.4918826351E-01  2.5081226807E-01  2.5081226807E-01
            znucl       13.00000   33.00000

================================================================================


- Timing analysis has been suppressed with timopt=0



================================================================================

 Suggested references for the acknowledgment of ABINIT usage.

 The users of ABINIT have little formal obligations with respect to the ABINIT group
 (those specified in the GNU General Public License, http://www.gnu.org/copyleft/gpl.txt).
 However, it is common practice in the scientific literature,
 to acknowledge the efforts of people that have made the research possible.
 In this spirit, please find below suggested citations of work written by ABINIT developers,
 corresponding to implementations inside of ABINIT that you have used in the present run.
 Note also that it will be of great value to readers of publications presenting these results,
 to read papers enabling them to understand the theoretical formalism and details
 of the ABINIT implementation.
 For information on why they are suggested, see also http://www.abinit.org/about/?text=acknowledgments.

 [1] ABINIT : First-principles approach of materials and nanosystem properties.
 X. Gonze, B. Amadon, P.-M. Anglade, J.-M. Beuken, F. Bottin, P. Boulanger, F. Bruneval,
 D. Caliste, R. Caracas, M. Cote, T. Deutsch, L. Genovese, Ph. Ghosez, M. Giantomassi
 S. Goedecker, D.R. Hamann, P. Hermet, F. Jollet, G. Jomard, S. Leroux, M. Mancini, S. Mazevet,
 M.J.T. Oliveira, G. Onida, Y. Pouillon, T. Rangel, G.-M. Rignanese, D. Sangalli, R. Shaltaf,
 M. Torrent, M.J. Verstraete, G. Zerah, J.W. Zwanziger
 Computer Phys. Comm. 180, 2582-2615 (2009).
 Comment : the third generic paper describing the ABINIT project.
 Note that a version of this paper, that is not formatted for Computer Phys. Comm. 
 is available at http://www.abinit.org/about/ABINIT_CPC_v10.pdf .
 The licence allows the authors to put it on the Web.

 [2] A brief introduction to the ABINIT software package.
 X. Gonze, G.-M. Rignanese, M. Verstraete, J.-M. Beuken, Y. Pouillon, R. Caracas, F. Jollet,
 M. Torrent, G. Zerah, M. Mikami, Ph. Ghosez, M. Veithen, J.-Y. Raty, V. Olevano, F. Bruneval,
 L. Reining, R. Godby, G. Onida, D.R. Hamann, and D.C. Allan.
 Z. Kristallogr. 220, 558-562 (2005).
 Comment : the second generic paper describing the ABINIT project. Note that this paper
 should be cited especially if you are using the GW part of ABINIT, as several authors
 of this part are not in the list of authors of the first or third paper.
 The .pdf of the latter paper is available at http://www.abinit.org/about/zfk_0505-06_558-562.pdf.
 Note that it should not redistributed (Copyright by Oldenburg Wissenshaftverlag,
 the licence allows the authors to put it on the Web).


 And optionally :

 [3] First-principles computation of material properties : the ABINIT software project. 
 X. Gonze, J.-M. Beuken, R. Caracas, F. Detraux, M. Fuchs, G.-M. Rignanese, L. Sindic,
 M. Verstraete, G. Zerah, F. Jollet, M. Torrent, A. Roy, M. Mikami, Ph. Ghosez, J.-Y. Raty, D.C. Allan.
 Computational Materials Science 25, 478-492 (2002). http://dx.doi.org/10.1016/S0927-0256(02)00325-7
 Comment : the original paper describing the ABINIT project.

 [4] Fast radix 2, 3, 4 and 5 kernels for Fast Fourier Transformations
 on computers with overlapping multiply-add instructions.
 S. Goedecker, SIAM J. on Scientific Computing 18, 1605 (1997).

 [5] Towards a potential-based conjugate gradient algorithm for order-N self-consistent
 total energy calculations.
 X. Gonze, Phys. Rev. B 54, 4383 (1996).
 Comment : The potential-based conjugate-gradient algorithm, used when iscf=5, is not published.
 However, many elements of this algorithm have been explained in the paper above.
-
- Proc.   0 individual time (sec): cpu=         27.6  wall=         27.6

================================================================================

 Calculation completed.
.Delivered    2 WARNINGs and   0 COMMENTs to log file.
+Overall time at end (sec) : cpu=         27.6  wall=         27.6
