
.Version 7.10.4 of ABINIT 
.(MPI version, prepared for a x86_64_linux_gnu4.7 computer) 

.Copyright (C) 1998-2014 ABINIT group . 
 ABINIT comes with ABSOLUTELY NO WARRANTY.
 It is free software, and you are welcome to redistribute it
 under certain conditions (GNU General Public License,
 see ~abinit/COPYING or http://www.gnu.org/copyleft/gpl.txt).

 ABINIT is a project of the Universite Catholique de Louvain,
 Corning Inc. and other collaborators, see ~abinit/doc/developers/contributors.txt .
 Please read ~abinit/doc/users/acknowledgments.html for suggested
 acknowledgments of the ABINIT effort.
 For more information, see http://www.abinit.org .

.Starting date : Sun  1 Feb 2015.
- ( at 15h02 )
  
- input  file    -> tffield_6.in
- output file    -> tffield_6.out
- root for input  files -> tffield_6i
- root for output files -> tffield_6o


 DATASET   11 : space group F-4 3 m (#216); Bravais cF (face-center cubic)
================================================================================
 Values of the parameters that define the memory need for DATASET 11.
   intxc =         0  ionmov =         0    iscf =         5 xclevel =         1
  lmnmax =         2   lnmax =         2   mband =         4  mffmem =         1
P  mgfft =        12   mkmem =        28 mpssoang=         3     mpw =        80
  mqgrid =      3001   natom =         2    nfft =      1728    nkpt =        28
  nloalg =         4  nspden =         1 nspinor =         1  nsppol =         1
    nsym =        24  n1xccc =      2501  ntypat =         2  occopt =         1
================================================================================
P This job should need less than                       1.408 Mbytes of memory.
  Rough estimation (10% accuracy) of disk space for files :
_ WF disk file :      0.139 Mbytes ; DEN or POT disk file :      0.015 Mbytes.
================================================================================


 DATASET   21 : space group R3 m (#160); Bravais hR (rhombohedral)
================================================================================
 Values of the parameters that define the memory need for DATASET 21.
   intxc =         0  ionmov =         0    iscf =         5 xclevel =         1
  lmnmax =         2   lnmax =         2   mband =         4  mffmem =         1
P  mgfft =        12   mkmem =        91 mpssoang=         3     mpw =        80
  mqgrid =      3001   natom =         2    nfft =      1728    nkpt =        91
  nloalg =         4  nspden =         1 nspinor =         1  nsppol =         1
    nsym =         6  n1xccc =      2501  ntypat =         2  occopt =         1
================================================================================
P This job should need less than                       1.811 Mbytes of memory.
  Rough estimation (10% accuracy) of disk space for files :
_ WF disk file :      0.446 Mbytes ; DEN or POT disk file :      0.015 Mbytes.
================================================================================


 DATASET   31 : space group R3 m (#160); Bravais hR (rhombohedral)
================================================================================
 Values of the parameters that define the memory need for DATASET 31.
   intxc =         0  ionmov =         0    iscf =         5 xclevel =         1
  lmnmax =         2   lnmax =         2   mband =         4  mffmem =         1
P  mgfft =        12   mkmem =        91 mpssoang=         3     mpw =        80
  mqgrid =      3001   natom =         2    nfft =      1728    nkpt =        91
  nloalg =         4  nspden =         1 nspinor =         1  nsppol =         1
    nsym =         6  n1xccc =      2501  ntypat =         2  occopt =         1
================================================================================
P This job should need less than                       1.811 Mbytes of memory.
  Rough estimation (10% accuracy) of disk space for files :
_ WF disk file :      0.446 Mbytes ; DEN or POT disk file :      0.015 Mbytes.
================================================================================

--------------------------------------------------------------------------------
------------- Echo of variables that govern the present computation ------------
--------------------------------------------------------------------------------
-
- outvars: echo of selected default values                                      
-   accesswff0 =  0 , fftalg0 =112 , wfoptalg0 =  0
-
- outvars: echo of global parameters not present in the input file              
-  max_nthreads =    0
-
 -outvars: echo values of preprocessed input variables --------
            acell      1.0530000000E+01  1.0530000000E+01  1.0530000000E+01 Bohr
              amu      2.69815390E+01  7.49215900E+01
         berryopt11        -1
         berryopt21         4
         berryopt31         4
          dilatmx      1.05000000E+00
             ecut      2.80000000E+00 Hartree
           ecutsm      5.00000000E-01 Hartree
           efield11    0.00000000E+00  0.00000000E+00  0.00000000E+00
           efield21    1.00000000E-04  1.00000000E-04  1.00000000E-04
           efield31   -1.00000000E-04 -1.00000000E-04 -1.00000000E-04
-          fftalg         112
           getwfk11         0
           getwfk21        11
           getwfk31        11
             iscf           5
              ixc           3
           jdtset       11   21   31
              kpt11   -8.33333333E-02 -1.66666667E-01  0.00000000E+00
                      -8.33333333E-02 -3.33333333E-01  0.00000000E+00
                      -1.66666667E-01 -2.50000000E-01  0.00000000E+00
                      -8.33333333E-02 -2.50000000E-01  8.33333333E-02
                      -8.33333333E-02  5.00000000E-01  0.00000000E+00
                      -1.66666667E-01 -4.16666667E-01  0.00000000E+00
                      -8.33333333E-02 -4.16666667E-01  8.33333333E-02
                      -2.50000000E-01 -3.33333333E-01  0.00000000E+00
                      -1.66666667E-01 -3.33333333E-01  8.33333333E-02
                      -8.33333333E-02 -3.33333333E-01  1.66666667E-01
                      -8.33333333E-02  3.33333333E-01  0.00000000E+00
                      -1.66666667E-01  4.16666667E-01  0.00000000E+00
                      -2.50000000E-01  5.00000000E-01  0.00000000E+00
                      -1.66666667E-01  5.00000000E-01  8.33333333E-02
                      -3.33333333E-01 -4.16666667E-01  0.00000000E+00
                      -2.50000000E-01 -4.16666667E-01  8.33333333E-02
                      -1.66666667E-01 -4.16666667E-01  1.66666667E-01
                      -8.33333333E-02 -4.16666667E-01  2.50000000E-01
                      -8.33333333E-02  1.66666667E-01  0.00000000E+00
                      -1.66666667E-01  2.50000000E-01  0.00000000E+00
                      -2.50000000E-01  3.33333333E-01  0.00000000E+00
                      -3.33333333E-01  4.16666667E-01  0.00000000E+00
                      -4.16666667E-01  5.00000000E-01  0.00000000E+00
                      -3.33333333E-01  5.00000000E-01  8.33333333E-02
                      -2.50000000E-01  5.00000000E-01  1.66666667E-01
                      -8.33333333E-02  0.00000000E+00  0.00000000E+00
                      -2.50000000E-01  0.00000000E+00  0.00000000E+00
                      -4.16666667E-01  0.00000000E+00  0.00000000E+00
              kpt21   -8.33333333E-02 -1.66666667E-01  0.00000000E+00
                      -8.33333333E-02 -8.33333333E-02  8.33333333E-02
                      -8.33333333E-02 -3.33333333E-01  0.00000000E+00
                      -1.66666667E-01 -2.50000000E-01  0.00000000E+00
                      -8.33333333E-02 -2.50000000E-01  8.33333333E-02
                      -1.66666667E-01 -1.66666667E-01  8.33333333E-02
                      -8.33333333E-02 -1.66666667E-01  1.66666667E-01
                      -8.33333333E-02 -8.33333333E-02  2.50000000E-01
                      -8.33333333E-02  5.00000000E-01  0.00000000E+00
                      -1.66666667E-01 -4.16666667E-01  0.00000000E+00
                      -8.33333333E-02 -4.16666667E-01  8.33333333E-02
                      -2.50000000E-01 -3.33333333E-01  0.00000000E+00
                      -1.66666667E-01 -3.33333333E-01  8.33333333E-02
                      -8.33333333E-02 -3.33333333E-01  1.66666667E-01
                      -2.50000000E-01 -2.50000000E-01  8.33333333E-02
                      -1.66666667E-01 -2.50000000E-01  1.66666667E-01
                      -8.33333333E-02 -2.50000000E-01  2.50000000E-01
                      -1.66666667E-01 -1.66666667E-01  2.50000000E-01
                      -8.33333333E-02 -1.66666667E-01  3.33333333E-01
                      -8.33333333E-02 -8.33333333E-02  4.16666667E-01
                      -8.33333333E-02  3.33333333E-01  0.00000000E+00
                      -1.66666667E-01  4.16666667E-01  0.00000000E+00
                      -2.50000000E-01  5.00000000E-01  0.00000000E+00
                      -1.66666667E-01  5.00000000E-01  8.33333333E-02
                      -3.33333333E-01 -4.16666667E-01  0.00000000E+00
                      -2.50000000E-01 -4.16666667E-01  8.33333333E-02
                      -1.66666667E-01 -4.16666667E-01  1.66666667E-01
                      -8.33333333E-02 -4.16666667E-01  2.50000000E-01
                      -3.33333333E-01 -3.33333333E-01  8.33333333E-02
                      -2.50000000E-01 -3.33333333E-01  1.66666667E-01
                      -1.66666667E-01 -3.33333333E-01  2.50000000E-01
                      -8.33333333E-02 -3.33333333E-01  3.33333333E-01
                      -2.50000000E-01 -2.50000000E-01  2.50000000E-01
                      -1.66666667E-01 -2.50000000E-01  3.33333333E-01
                      -8.33333333E-02 -2.50000000E-01  4.16666667E-01
                      -1.66666667E-01 -1.66666667E-01  4.16666667E-01
                      -8.33333333E-02 -1.66666667E-01  5.00000000E-01
                      -8.33333333E-02 -8.33333333E-02 -4.16666667E-01
                      -8.33333333E-02  1.66666667E-01  0.00000000E+00
                      -1.66666667E-01  2.50000000E-01  0.00000000E+00
                      -2.50000000E-01  3.33333333E-01  0.00000000E+00
                      -3.33333333E-01  4.16666667E-01  0.00000000E+00
                      -4.16666667E-01  5.00000000E-01  0.00000000E+00
                      -3.33333333E-01  5.00000000E-01  8.33333333E-02
                      -2.50000000E-01  5.00000000E-01  1.66666667E-01
                      -4.16666667E-01 -4.16666667E-01  8.33333333E-02
                      -3.33333333E-01 -4.16666667E-01  1.66666667E-01
                      -2.50000000E-01 -4.16666667E-01  2.50000000E-01
                      -1.66666667E-01 -4.16666667E-01  3.33333333E-01
                      -8.33333333E-02 -4.16666667E-01  4.16666667E-01
              kpt31   -8.33333333E-02 -1.66666667E-01  0.00000000E+00
                      -8.33333333E-02 -8.33333333E-02  8.33333333E-02
                      -8.33333333E-02 -3.33333333E-01  0.00000000E+00
                      -1.66666667E-01 -2.50000000E-01  0.00000000E+00
                      -8.33333333E-02 -2.50000000E-01  8.33333333E-02
                      -1.66666667E-01 -1.66666667E-01  8.33333333E-02
                      -8.33333333E-02 -1.66666667E-01  1.66666667E-01
                      -8.33333333E-02 -8.33333333E-02  2.50000000E-01
                      -8.33333333E-02  5.00000000E-01  0.00000000E+00
                      -1.66666667E-01 -4.16666667E-01  0.00000000E+00
                      -8.33333333E-02 -4.16666667E-01  8.33333333E-02
                      -2.50000000E-01 -3.33333333E-01  0.00000000E+00
                      -1.66666667E-01 -3.33333333E-01  8.33333333E-02
                      -8.33333333E-02 -3.33333333E-01  1.66666667E-01
                      -2.50000000E-01 -2.50000000E-01  8.33333333E-02
                      -1.66666667E-01 -2.50000000E-01  1.66666667E-01
                      -8.33333333E-02 -2.50000000E-01  2.50000000E-01
                      -1.66666667E-01 -1.66666667E-01  2.50000000E-01
                      -8.33333333E-02 -1.66666667E-01  3.33333333E-01
                      -8.33333333E-02 -8.33333333E-02  4.16666667E-01
                      -8.33333333E-02  3.33333333E-01  0.00000000E+00
                      -1.66666667E-01  4.16666667E-01  0.00000000E+00
                      -2.50000000E-01  5.00000000E-01  0.00000000E+00
                      -1.66666667E-01  5.00000000E-01  8.33333333E-02
                      -3.33333333E-01 -4.16666667E-01  0.00000000E+00
                      -2.50000000E-01 -4.16666667E-01  8.33333333E-02
                      -1.66666667E-01 -4.16666667E-01  1.66666667E-01
                      -8.33333333E-02 -4.16666667E-01  2.50000000E-01
                      -3.33333333E-01 -3.33333333E-01  8.33333333E-02
                      -2.50000000E-01 -3.33333333E-01  1.66666667E-01
                      -1.66666667E-01 -3.33333333E-01  2.50000000E-01
                      -8.33333333E-02 -3.33333333E-01  3.33333333E-01
                      -2.50000000E-01 -2.50000000E-01  2.50000000E-01
                      -1.66666667E-01 -2.50000000E-01  3.33333333E-01
                      -8.33333333E-02 -2.50000000E-01  4.16666667E-01
                      -1.66666667E-01 -1.66666667E-01  4.16666667E-01
                      -8.33333333E-02 -1.66666667E-01  5.00000000E-01
                      -8.33333333E-02 -8.33333333E-02 -4.16666667E-01
                      -8.33333333E-02  1.66666667E-01  0.00000000E+00
                      -1.66666667E-01  2.50000000E-01  0.00000000E+00
                      -2.50000000E-01  3.33333333E-01  0.00000000E+00
                      -3.33333333E-01  4.16666667E-01  0.00000000E+00
                      -4.16666667E-01  5.00000000E-01  0.00000000E+00
                      -3.33333333E-01  5.00000000E-01  8.33333333E-02
                      -2.50000000E-01  5.00000000E-01  1.66666667E-01
                      -4.16666667E-01 -4.16666667E-01  8.33333333E-02
                      -3.33333333E-01 -4.16666667E-01  1.66666667E-01
                      -2.50000000E-01 -4.16666667E-01  2.50000000E-01
                      -1.66666667E-01 -4.16666667E-01  3.33333333E-01
                      -8.33333333E-02 -4.16666667E-01  4.16666667E-01
                       outvar_i_n : Printing only first  50 k-points.
         kptrlatt        6   -6    6     -6    6    6     -6   -6    6
          kptrlen      6.31800000E+01
P           mkmem11        28
P           mkmem21        91
P           mkmem31        91
            natom           2
            nband11         4
            nband21         4
            nband31         4
           ndtset           3
            ngfft          12      12      12
             nkpt11        28
             nkpt21        91
             nkpt31        91
            nstep         100
             nsym11        24
             nsym21         6
             nsym31         6
           ntypat           2
              occ11    2.000000  2.000000  2.000000  2.000000
              occ21    2.000000  2.000000  2.000000  2.000000
              occ31    2.000000  2.000000  2.000000  2.000000
        optforces           1
            rfdir11         1       1       1
            rfdir21         0       0       0
            rfdir31         0       0       0
            rprim      0.0000000000E+00  5.0000000000E-01  5.0000000000E-01
                       5.0000000000E-01  0.0000000000E+00  5.0000000000E-01
                       5.0000000000E-01  5.0000000000E-01  0.0000000000E+00
           shiftk      5.00000000E-01  5.00000000E-01  5.00000000E-01
          spgroup11       216
          spgroup21       160
          spgroup31       160
           symafm11      1    1    1    1    1    1    1    1    1    1
                         1    1    1    1    1    1    1    1    1    1
                         1    1    1    1
           symafm21      1    1    1    1    1    1
           symafm31      1    1    1    1    1    1
           symrel11    1  0  0   0  1  0   0  0  1       0 -1  1   0 -1  0   1 -1  0
                      -1  0  0  -1  0  1  -1  1  0       0  1 -1   1  0 -1   0  0 -1
                      -1  0  0  -1  1  0  -1  0  1       0 -1  1   1 -1  0   0 -1  0
                       1  0  0   0  0  1   0  1  0       0  1 -1   0  0 -1   1  0 -1
                      -1  0  1  -1  1  0  -1  0  0       0 -1  0   1 -1  0   0 -1  1
                       1  0 -1   0  0 -1   0  1 -1       0  1  0   0  0  1   1  0  0
                       1  0 -1   0  1 -1   0  0 -1       0 -1  0   0 -1  1   1 -1  0
                      -1  0  1  -1  0  0  -1  1  0       0  1  0   1  0  0   0  0  1
                       0  0 -1   0  1 -1   1  0 -1       1 -1  0   0 -1  1   0 -1  0
                       0  0  1   1  0  0   0  1  0      -1  1  0  -1  0  0  -1  0  1
                       0  0  1   0  1  0   1  0  0       1 -1  0   0 -1  0   0 -1  1
                       0  0 -1   1  0 -1   0  1 -1      -1  1  0  -1  0  1  -1  0  0
           symrel21    1  0  0   0  1  0   0  0  1       1  0  0   0  0  1   0  1  0
                       0  1  0   0  0  1   1  0  0       0  1  0   1  0  0   0  0  1
                       0  0  1   1  0  0   0  1  0       0  0  1   0  1  0   1  0  0
           symrel31    1  0  0   0  1  0   0  0  1       1  0  0   0  0  1   0  1  0
                       0  1  0   0  0  1   1  0  0       0  1  0   1  0  0   0  0  1
                       0  0  1   1  0  0   0  1  0       0  0  1   0  1  0   1  0  0
            tnons11    0.0000000  0.0000000  0.0000000     0.0000000  0.0000000  0.0000000
                       0.0000000  0.0000000  0.0000000     0.0000000  0.0000000  0.0000000
                       0.0000000  0.0000000  0.0000000     0.0000000  0.0000000  0.0000000
                       0.0000000  0.0000000  0.0000000     0.0000000  0.0000000  0.0000000
                       0.0000000  0.0000000  0.0000000     0.0000000  0.0000000  0.0000000
                       0.0000000  0.0000000  0.0000000     0.0000000  0.0000000  0.0000000
                       0.0000000  0.0000000  0.0000000     0.0000000  0.0000000  0.0000000
                       0.0000000  0.0000000  0.0000000     0.0000000  0.0000000  0.0000000
                       0.0000000  0.0000000  0.0000000     0.0000000  0.0000000  0.0000000
                       0.0000000  0.0000000  0.0000000     0.0000000  0.0000000  0.0000000
                       0.0000000  0.0000000  0.0000000     0.0000000  0.0000000  0.0000000
                       0.0000000  0.0000000  0.0000000     0.0000000  0.0000000  0.0000000
            tnons21    0.0000000  0.0000000  0.0000000     0.0000000  0.0000000  0.0000000
                       0.0000000  0.0000000  0.0000000     0.0000000  0.0000000  0.0000000
                       0.0000000  0.0000000  0.0000000     0.0000000  0.0000000  0.0000000
            tnons31    0.0000000  0.0000000  0.0000000     0.0000000  0.0000000  0.0000000
                       0.0000000  0.0000000  0.0000000     0.0000000  0.0000000  0.0000000
                       0.0000000  0.0000000  0.0000000     0.0000000  0.0000000  0.0000000
           toldfe      1.00000000E-12 Hartree
            typat      1  2
              wtk11      0.02778    0.02778    0.02778    0.05556    0.02778    0.02778
                         0.05556    0.02778    0.05556    0.05556    0.02778    0.02778
                         0.02778    0.05556    0.02778    0.05556    0.05556    0.05556
                         0.02778    0.02778    0.02778    0.02778    0.02778    0.05556
                         0.05556    0.00926    0.00926    0.00926
              wtk21      0.01389    0.00694    0.01389    0.01389    0.01389    0.00694
                         0.01389    0.00694    0.01389    0.01389    0.01389    0.01389
                         0.01389    0.01389    0.00694    0.01389    0.01389    0.00694
                         0.01389    0.00694    0.01389    0.01389    0.01389    0.01389
                         0.01389    0.01389    0.01389    0.01389    0.00694    0.01389
                         0.01389    0.01389    0.00694    0.01389    0.01389    0.00694
                         0.01389    0.00694    0.01389    0.01389    0.01389    0.01389
                         0.01389    0.01389    0.01389    0.00694    0.01389    0.01389
                         0.01389    0.01389
              wtk31      0.01389    0.00694    0.01389    0.01389    0.01389    0.00694
                         0.01389    0.00694    0.01389    0.01389    0.01389    0.01389
                         0.01389    0.01389    0.00694    0.01389    0.01389    0.00694
                         0.01389    0.00694    0.01389    0.01389    0.01389    0.01389
                         0.01389    0.01389    0.01389    0.01389    0.00694    0.01389
                         0.01389    0.01389    0.00694    0.01389    0.01389    0.00694
                         0.01389    0.00694    0.01389    0.01389    0.01389    0.01389
                         0.01389    0.01389    0.01389    0.00694    0.01389    0.01389
                         0.01389    0.01389
                       outvars : Printing only first  50 k-points.
           xangst      0.0000000000E+00  0.0000000000E+00  0.0000000000E+00
                       1.3930590016E+00  1.3930590016E+00  1.3930590016E+00
            xcart      0.0000000000E+00  0.0000000000E+00  0.0000000000E+00
                       2.6325000000E+00  2.6325000000E+00  2.6325000000E+00
             xred      0.0000000000E+00  0.0000000000E+00  0.0000000000E+00
                       2.5000000000E-01  2.5000000000E-01  2.5000000000E-01
            znucl       13.00000   33.00000

================================================================================

 chkinp: Checking input parameters for consistency, jdtset=  11.

 chkinp: Checking input parameters for consistency, jdtset=  21.

 chkinp: Checking input parameters for consistency, jdtset=  31.

================================================================================
== DATASET 11 ==================================================================
-   nproc =    1

 Exchange-correlation functional for the present dataset will be:
  LDA: old Teter (4/91) fit to Ceperley-Alder data - ixc=3

 Real(R)+Recip(G) space primitive vectors, cartesian coordinates (Bohr,Bohr^-1):
 R(1)=  0.0000000  5.2650000  5.2650000  G(1)= -0.0949668  0.0949668  0.0949668
 R(2)=  5.2650000  0.0000000  5.2650000  G(2)=  0.0949668 -0.0949668  0.0949668
 R(3)=  5.2650000  5.2650000  0.0000000  G(3)=  0.0949668  0.0949668 -0.0949668
 Unit cell volume ucvol=  2.9189397E+02 bohr^3
 Angles (23,13,12)=  6.00000000E+01  6.00000000E+01  6.00000000E+01 degrees

 getcut: wavevector=  0.0000  0.0000  0.0000  ngfft=  12  12  12
         ecut(hartree)=      3.087   => boxcut(ratio)=   2.03767

--- Pseudopotential description ------------------------------------------------
- pspini: atom type   1  psp file is /data/ABINIT/testf_gcc47/trunk_7.10.4-training/tests/Psps_for_tests/13al.pspnc
- pspatm: opening atomic psp file    /data/ABINIT/testf_gcc47/trunk_7.10.4-training/tests/Psps_for_tests/13al.pspnc
-  Troullier-Martins psp for element  Al        Thu Oct 27 17:31:05 EDT 1994
- 13.00000   3.00000    940714                znucl, zion, pspdat
    1    1    2    2      2001   0.00000      pspcod,pspxc,lmax,lloc,mmax,r2well
    0   4.657  11.889    1   2.2761078        l,e99.0,e99.9,nproj,rcpsp
   0.00000000   0.00000000   0.00000000   0.00000000     rms, ekb1, ekb2, epsatm
    1   1.829   2.761    1   2.2761078        l,e99.0,e99.9,nproj,rcpsp
   0.00000000   0.00000000   0.00000000   0.00000000     rms, ekb1, ekb2, epsatm
    2   0.000   0.000    0   2.2761078        l,e99.0,e99.9,nproj,rcpsp
   0.00000000   0.00000000   0.00000000   0.00000000     rms, ekb1, ekb2, epsatm
    2.09673076353074    0.12648111154518    1.01742091001718   rchrg,fchrg,qchrg
 pspatm: epsatm=    0.22155260
         --- l  ekb(1:nproj) -->
             0    2.540658
             1    1.353815
 pspatm: atomic psp has been read  and splines computed

- pspini: atom type   2  psp file is /data/ABINIT/testf_gcc47/trunk_7.10.4-training/tests/Psps_for_tests/33as.pspnc
- pspatm: opening atomic psp file    /data/ABINIT/testf_gcc47/trunk_7.10.4-training/tests/Psps_for_tests/33as.pspnc
-  Troullier-Martins psp for element  As        Thu Oct 27 17:37:14 EDT 1994
- 33.00000   5.00000    940714                znucl, zion, pspdat
    1    1    1    1      2001   0.00000      pspcod,pspxc,lmax,lloc,mmax,r2well
    0   4.772  10.829    1   2.5306160        l,e99.0,e99.9,nproj,rcpsp
   0.00000000   0.00000000   0.00000000   0.00000000     rms, ekb1, ekb2, epsatm
    1   2.745   5.580    0   2.5306160        l,e99.0,e99.9,nproj,rcpsp
   0.00000000   0.00000000   0.00000000   0.00000000     rms, ekb1, ekb2, epsatm
    2.05731715564010    0.36322996461007    2.76014815959125   rchrg,fchrg,qchrg
 pspatm: epsatm=   27.20579911
         --- l  ekb(1:nproj) -->
             0    0.838751
 pspatm: atomic psp has been read  and splines computed

   2.19418814E+02                                ecore*ucvol(ha*bohr**3)
--------------------------------------------------------------------------------

P newkpt: treating      4 bands with npw=      68 for ikpt=   1 by node    0
P newkpt: treating      4 bands with npw=      74 for ikpt=   2 by node    0
P newkpt: treating      4 bands with npw=      74 for ikpt=   3 by node    0
P newkpt: treating      4 bands with npw=      73 for ikpt=   4 by node    0
P newkpt: treating      4 bands with npw=      74 for ikpt=   5 by node    0
P newkpt: treating      4 bands with npw=      75 for ikpt=   6 by node    0
P newkpt: treating      4 bands with npw=      76 for ikpt=   7 by node    0
P newkpt: treating      4 bands with npw=      77 for ikpt=   8 by node    0
P newkpt: treating      4 bands with npw=      77 for ikpt=   9 by node    0
P newkpt: treating      4 bands with npw=      75 for ikpt=  10 by node    0
P newkpt: treating      4 bands with npw=      74 for ikpt=  11 by node    0
P newkpt: treating      4 bands with npw=      79 for ikpt=  12 by node    0
P newkpt: treating      4 bands with npw=      77 for ikpt=  13 by node    0
P newkpt: treating      4 bands with npw=      78 for ikpt=  14 by node    0
P newkpt: treating      4 bands with npw=      79 for ikpt=  15 by node    0
P newkpt: treating      4 bands with npw=      80 for ikpt=  16 by node    0
P newkpt: treating      4 bands with npw=      77 for ikpt=  17 by node    0
P newkpt: treating      4 bands with npw=      77 for ikpt=  18 by node    0
P newkpt: treating      4 bands with npw=      69 for ikpt=  19 by node    0
P newkpt: treating      4 bands with npw=      75 for ikpt=  20 by node    0
P newkpt: treating      4 bands with npw=      75 for ikpt=  21 by node    0
P newkpt: treating      4 bands with npw=      74 for ikpt=  22 by node    0
P newkpt: treating      4 bands with npw=      75 for ikpt=  23 by node    0
P newkpt: treating      4 bands with npw=      77 for ikpt=  24 by node    0
P newkpt: treating      4 bands with npw=      76 for ikpt=  25 by node    0
P newkpt: treating      4 bands with npw=      65 for ikpt=  26 by node    0
P newkpt: treating      4 bands with npw=      74 for ikpt=  27 by node    0
P newkpt: treating      4 bands with npw=      73 for ikpt=  28 by node    0

_setup2: Arith. and geom. avg. npw (full set) are      75.602      75.552
  initberry: for direction 1, nkstr =   6, nstr =    144
  initberry: for direction 2, nkstr =   6, nstr =    144
  initberry: for direction 3, nkstr =   6, nstr =    144

================================================================================

     iter   Etot(hartree)      deltaE(h)  residm     vres2    diffor    maxfor
 ETOT  1  -10.081672575147    -1.008E+01 1.461E-03 9.318E-01 1.498E-31 1.498E-31
 ETOT  2  -10.085668246841    -3.996E-03 6.019E-10 2.533E-02 1.498E-31 0.000E+00
 ETOT  3  -10.085763327576    -9.508E-05 1.433E-06 1.994E-03 5.722E-30 5.722E-30
 ETOT  4  -10.085768991589    -5.664E-06 5.154E-08 1.255E-04 3.129E-29 2.557E-29
 ETOT  5  -10.085768377301     6.143E-07 1.314E-09 3.430E-04 3.420E-29 8.631E-30
 ETOT  6  -10.085769147911    -7.706E-07 4.400E-09 4.902E-05 1.183E-29 6.393E-30
 ETOT  7  -10.085769240188    -9.228E-08 2.724E-10 2.873E-06 1.918E-29 1.279E-29
 ETOT  8  -10.085769245736    -5.548E-09 1.458E-11 2.400E-07 1.294E-29 2.997E-31
 ETOT  9  -10.085769246146    -4.106E-10 1.831E-12 3.496E-09 8.490E-31 6.992E-31
 ETOT 10  -10.085769246152    -5.478E-12 4.558E-14 5.191E-10 6.992E-31 0.000E+00
 ETOT 11  -10.085769246153    -8.331E-13 2.609E-15 6.411E-11 0.000E+00 0.000E+00
 ETOT 12  -10.085769246153    -5.684E-14 1.961E-16 2.237E-11 0.000E+00 0.000E+00

 At SCF step   12, etot is converged : 
  for the second time, diff in etot=  5.684E-14 < toldfe=  1.000E-12

 Computing the polarization (Berry phase) for reciprocal vector:
  0.16667  0.00000  0.00000 (in reduced coordinates)
 -0.01583  0.01583  0.01583 (in cartesian coordinates - atomic units)
 Number of strings:   144
 Number of k points in string:    6

 Summary of the results
 Electronic Berry phase     2.025853583E-03
            Ionic phase    -7.500000000E-01
            Total phase    -7.479741464E-01
    Remapping in [-1,1]    -7.479741464E-01

           Polarization    -1.557862805E-02 (a.u. of charge)/bohr^2
           Polarization    -8.913274881E-01 C/m^2


 Computing the polarization (Berry phase) for reciprocal vector:
  0.00000  0.16667  0.00000 (in reduced coordinates)
  0.01583 -0.01583  0.01583 (in cartesian coordinates - atomic units)
 Number of strings:   144
 Number of k points in string:    6

 Summary of the results
 Electronic Berry phase     2.025853583E-03
            Ionic phase    -7.500000000E-01
            Total phase    -7.479741464E-01
    Remapping in [-1,1]    -7.479741464E-01

           Polarization    -1.557862805E-02 (a.u. of charge)/bohr^2
           Polarization    -8.913274881E-01 C/m^2


 Computing the polarization (Berry phase) for reciprocal vector:
  0.00000  0.00000  0.16667 (in reduced coordinates)
  0.01583  0.01583 -0.01583 (in cartesian coordinates - atomic units)
 Number of strings:   144
 Number of k points in string:    6

 Summary of the results
 Electronic Berry phase     2.025853583E-03
            Ionic phase    -7.500000000E-01
            Total phase    -7.479741464E-01
    Remapping in [-1,1]    -7.479741464E-01

           Polarization    -1.557862805E-02 (a.u. of charge)/bohr^2
           Polarization    -8.913274881E-01 C/m^2


 Polarization in cartesian coordinates (a.u.):
 (the sum of the electronic and ionic Berry phase has been folded into [-1, 1])
     Electronic berry phase:        0.730821479E-04   0.730821479E-04   0.730821479E-04
     Ionic:                        -0.270560574E-01  -0.270560574E-01  -0.270560574E-01  
     Total:                        -0.269829753E-01  -0.269829753E-01  -0.269829753E-01

 Polarization in cartesian coordinates (C/m^2):
 (the sum of the electronic and ionic Berry phase has been folded into [-1, 1])
     Electronic berry phase:        0.418137766E-02   0.418137766E-02   0.418137766E-02
     Ionic:                        -0.154800587E+01  -0.154800587E+01  -0.154800587E+01  
     Total:                        -0.154382450E+01  -0.154382450E+01  -0.154382450E+01

 Cartesian components of stress tensor (hartree/bohr^3)
  sigma(1 1)= -3.11015798E-06  sigma(3 2)=  0.00000000E+00
  sigma(2 2)= -3.11015798E-06  sigma(3 1)=  0.00000000E+00
  sigma(3 3)= -3.11015798E-06  sigma(2 1)=  0.00000000E+00

================================================================================

 ----iterations are completed or convergence reached----

 Mean square residual over all n,k,spin=   7.7903E-17; max=  1.9609E-16
  -0.0833 -0.1667  0.0000    1  1.93721E-16 kpt; spin; max resid(k); each band:
  1.94E-16 1.74E-16 1.71E-18 2.06E-17
  -0.0833 -0.3333  0.0000    1  1.63059E-16 kpt; spin; max resid(k); each band:
  1.63E-16 1.57E-16 9.11E-19 3.23E-17
  -0.1667 -0.2500  0.0000    1  1.96093E-16 kpt; spin; max resid(k); each band:
  1.96E-16 1.93E-16 1.99E-17 7.45E-19
  -0.0833 -0.2500  0.0833    1  1.87536E-16 kpt; spin; max resid(k); each band:
  1.88E-16 1.84E-16 2.89E-17 1.36E-17
  -0.0833  0.5000  0.0000    1  8.52893E-17 kpt; spin; max resid(k); each band:
  8.02E-17 8.53E-17 3.43E-17 1.82E-17
  -0.1667 -0.4167  0.0000    1  1.46554E-16 kpt; spin; max resid(k); each band:
  1.33E-16 1.47E-16 4.88E-17 1.33E-17
  -0.0833 -0.4167  0.0833    1  1.17693E-16 kpt; spin; max resid(k); each band:
  1.07E-16 1.18E-16 5.35E-17 1.69E-17
  -0.2500 -0.3333  0.0000    1  1.67968E-16 kpt; spin; max resid(k); each band:
  1.57E-16 1.68E-16 1.92E-17 1.09E-17
  -0.1667 -0.3333  0.0833    1  1.71461E-16 kpt; spin; max resid(k); each band:
  1.52E-16 1.71E-16 4.60E-17 2.99E-17
  -0.0833 -0.3333  0.1667    1  1.41509E-16 kpt; spin; max resid(k); each band:
  1.29E-16 1.42E-16 9.47E-17 3.47E-17
  -0.0833  0.3333  0.0000    1  1.38017E-16 kpt; spin; max resid(k); each band:
  1.38E-16 1.33E-16 3.14E-17 8.95E-19
  -0.1667  0.4167  0.0000    1  9.21421E-17 kpt; spin; max resid(k); each band:
  7.84E-17 9.21E-17 5.38E-17 1.03E-17
  -0.2500  0.5000  0.0000    1  1.15185E-16 kpt; spin; max resid(k); each band:
  7.28E-17 1.15E-16 5.16E-17 8.86E-18
  -0.1667  0.5000  0.0833    1  1.13078E-16 kpt; spin; max resid(k); each band:
  6.43E-17 9.82E-17 1.13E-16 4.47E-17
  -0.3333 -0.4167  0.0000    1  1.08258E-16 kpt; spin; max resid(k); each band:
  8.87E-17 1.08E-16 2.70E-17 6.74E-18
  -0.2500 -0.4167  0.0833    1  1.32639E-16 kpt; spin; max resid(k); each band:
  8.65E-17 1.33E-16 7.45E-17 5.06E-17
  -0.1667 -0.4167  0.1667    1  1.36872E-16 kpt; spin; max resid(k); each band:
  6.65E-17 9.71E-17 1.35E-16 1.37E-16
  -0.0833 -0.4167  0.2500    1  1.10506E-16 kpt; spin; max resid(k); each band:
  4.41E-17 5.68E-17 1.11E-16 6.45E-17
  -0.0833  0.1667  0.0000    1  1.95432E-16 kpt; spin; max resid(k); each band:
  1.95E-16 1.79E-16 1.79E-17 1.53E-18
  -0.1667  0.2500  0.0000    1  1.70277E-16 kpt; spin; max resid(k); each band:
  1.70E-16 1.67E-16 3.27E-17 7.29E-19
  -0.2500  0.3333  0.0000    1  9.14295E-17 kpt; spin; max resid(k); each band:
  8.48E-17 9.14E-17 6.77E-17 8.26E-18
  -0.3333  0.4167  0.0000    1  9.12865E-17 kpt; spin; max resid(k); each band:
  2.01E-17 7.05E-17 9.13E-17 5.58E-18
  -0.4167  0.5000  0.0000    1  4.21969E-17 kpt; spin; max resid(k); each band:
  1.78E-17 4.22E-17 3.55E-17 3.78E-18
  -0.3333  0.5000  0.0833    1  1.43994E-16 kpt; spin; max resid(k); each band:
  1.99E-17 8.13E-17 1.44E-16 6.53E-17
  -0.2500  0.5000  0.1667    1  1.69991E-16 kpt; spin; max resid(k); each band:
  1.99E-17 3.72E-17 1.70E-16 1.67E-16
  -0.0833  0.0000  0.0000    1  1.18765E-16 kpt; spin; max resid(k); each band:
  1.11E-16 1.19E-16 3.29E-18 3.29E-18
  -0.2500  0.0000  0.0000    1  1.59940E-16 kpt; spin; max resid(k); each band:
  1.60E-16 1.60E-16 1.46E-18 1.46E-18
  -0.4167  0.0000  0.0000    1  9.31245E-17 kpt; spin; max resid(k); each band:
  9.26E-17 9.31E-17 9.58E-19 9.58E-19
 reduced coordinates (array xred) for    2 atoms
       0.000000000000      0.000000000000      0.000000000000
       0.250000000000      0.250000000000      0.250000000000
 rms dE/dt=  0.0000E+00; max dE/dt=  0.0000E+00; dE/dt below (all hartree)
    1       0.000000000000      0.000000000000      0.000000000000
    2       0.000000000000      0.000000000000      0.000000000000

 cartesian coordinates (angstrom) at end:
    1      0.00000000000000     0.00000000000000     0.00000000000000
    2      1.39305900161317     1.39305900161317     1.39305900161317

 cartesian forces (hartree/bohr) at end:
    1     -0.00000000000000    -0.00000000000000    -0.00000000000000
    2     -0.00000000000000    -0.00000000000000    -0.00000000000000
 frms,max,avg= 0.0000000E+00 0.0000000E+00   0.000E+00  0.000E+00  0.000E+00 h/b

 cartesian forces (eV/Angstrom) at end:
    1     -0.00000000000000    -0.00000000000000    -0.00000000000000
    2     -0.00000000000000    -0.00000000000000    -0.00000000000000
 frms,max,avg= 0.0000000E+00 0.0000000E+00   0.000E+00  0.000E+00  0.000E+00 e/A
 length scales= 10.530000000000 10.530000000000 10.530000000000 bohr
              =  5.572236006453  5.572236006453  5.572236006453 angstroms
 prteigrs : about to open file tffield_6o_DS11_EIG
 Fermi (or HOMO) energy (hartree) =   0.09082   Average Vxc (hartree)=  -0.34862
 Eigenvalues (hartree) for nkpt=  28  k points:
 kpt#   1, nband=  4, wtk=  0.02778, kpt= -0.0833 -0.1667  0.0000 (reduced coord)
  -0.34039   0.02841   0.07421   0.07855
 kpt#   2, nband=  4, wtk=  0.02778, kpt= -0.0833 -0.3333  0.0000 (reduced coord)
  -0.31616  -0.06145   0.05899   0.06020
 kpt#   3, nband=  4, wtk=  0.02778, kpt= -0.1667 -0.2500  0.0000 (reduced coord)
  -0.32699  -0.01090   0.05221   0.05265
 kpt#   4, nband=  4, wtk=  0.05556, kpt= -0.0833 -0.2500  0.0833 (reduced coord)
  -0.32127  -0.03528   0.03414   0.06869
 kpt#   5, nband=  4, wtk=  0.02778, kpt= -0.0833  0.5000  0.0000 (reduced coord)
  -0.29336  -0.11361   0.04538   0.05754
 kpt#   6, nband=  4, wtk=  0.02778, kpt= -0.1667 -0.4167  0.0000 (reduced coord)
  -0.30051  -0.08206   0.02485   0.04332
 kpt#   7, nband=  4, wtk=  0.05556, kpt= -0.0833 -0.4167  0.0833 (reduced coord)
  -0.29464  -0.09997   0.02023   0.05216
 kpt#   8, nband=  4, wtk=  0.02778, kpt= -0.2500 -0.3333  0.0000 (reduced coord)
  -0.30829  -0.04742   0.02742   0.03351
 kpt#   9, nband=  4, wtk=  0.05556, kpt= -0.1667 -0.3333  0.0833 (reduced coord)
  -0.30394  -0.06262   0.01140   0.04105
 kpt#  10, nband=  4, wtk=  0.05556, kpt= -0.0833 -0.3333  0.1667 (reduced coord)
  -0.29587  -0.08015  -0.01054   0.04929
 kpt#  11, nband=  4, wtk=  0.02778, kpt= -0.0833  0.3333  0.0000 (reduced coord)
  -0.30661  -0.08544   0.04299   0.06855
 kpt#  12, nband=  4, wtk=  0.02778, kpt= -0.1667  0.4167  0.0000 (reduced coord)
  -0.28834  -0.10754   0.00599   0.05061
 kpt#  13, nband=  4, wtk=  0.02778, kpt= -0.2500  0.5000  0.0000 (reduced coord)
  -0.28465  -0.09377  -0.01185   0.03109
 kpt#  14, nband=  4, wtk=  0.05556, kpt= -0.1667  0.5000  0.0833 (reduced coord)
  -0.28368  -0.10233  -0.01017   0.03367
 kpt#  15, nband=  4, wtk=  0.02778, kpt= -0.3333 -0.4167  0.0000 (reduced coord)
  -0.28832  -0.08081   0.00901   0.01936
 kpt#  16, nband=  4, wtk=  0.05556, kpt= -0.2500 -0.4167  0.0833 (reduced coord)
  -0.28574  -0.08480  -0.00803   0.01804
 kpt#  17, nband=  4, wtk=  0.05556, kpt= -0.1667 -0.4167  0.1667 (reduced coord)
  -0.28159  -0.09086  -0.02561   0.01836
 kpt#  18, nband=  4, wtk=  0.05556, kpt= -0.0833 -0.4167  0.2500 (reduced coord)
  -0.27731  -0.09504  -0.03773   0.02459
 kpt#  19, nband=  4, wtk=  0.02778, kpt= -0.0833  0.1667  0.0000 (reduced coord)
  -0.33396  -0.00346   0.05791   0.08576
 kpt#  20, nband=  4, wtk=  0.02778, kpt= -0.1667  0.2500  0.0000 (reduced coord)
  -0.31029  -0.06071   0.01047   0.07064
 kpt#  21, nband=  4, wtk=  0.02778, kpt= -0.2500  0.3333  0.0000 (reduced coord)
  -0.28604  -0.09178  -0.02879   0.04654
 kpt#  22, nband=  4, wtk=  0.02778, kpt= -0.3333  0.4167  0.0000 (reduced coord)
  -0.27418  -0.09701  -0.03664   0.02459
 kpt#  23, nband=  4, wtk=  0.02778, kpt= -0.4167  0.5000  0.0000 (reduced coord)
  -0.27391  -0.10305  -0.00088   0.01164
 kpt#  24, nband=  4, wtk=  0.05556, kpt= -0.3333  0.5000  0.0833 (reduced coord)
  -0.27301  -0.09870  -0.02029   0.00630
 kpt#  25, nband=  4, wtk=  0.05556, kpt= -0.2500  0.5000  0.1667 (reduced coord)
  -0.27249  -0.09395  -0.03332  -0.00406
 kpt#  26, nband=  4, wtk=  0.00926, kpt= -0.0833  0.0000  0.0000 (reduced coord)
  -0.34712   0.06533   0.09082   0.09082
 kpt#  27, nband=  4, wtk=  0.00926, kpt= -0.2500  0.0000  0.0000 (reduced coord)
  -0.32791  -0.03323   0.07491   0.07491
 kpt#  28, nband=  4, wtk=  0.00926, kpt= -0.4167  0.0000  0.0000 (reduced coord)
  -0.30022  -0.10559   0.06422   0.06422
 Total charge density [el/Bohr^3]
,     Maximum=    9.1432E-02  at reduced coord.    0.1667    0.1667    0.5000
,Next maximum=    9.1432E-02  at reduced coord.    0.1667    0.5000    0.1667
,     Minimum=    3.1553E-03  at reduced coord.    0.7500    0.7500    0.7500
,Next minimum=    3.4993E-03  at reduced coord.    0.5000    0.5000    0.5000
,  Integrated=    8.0000E+00

--------------------------------------------------------------------------------
 Components of total free energy (in Hartree) :

    Kinetic energy  =  2.91883499806982E+00
    Hartree energy  =  7.60835870925190E-01
    XC energy       = -4.34955586176691E+00
    Ewald energy    = -8.54432049481056E+00
    PspCore energy  =  7.51707252549085E-01
    Loc. psp. energy= -2.29227166742239E+00
    NL   psp  energy=  6.69000656302924E-01
    >>>>>>>>> Etotal= -1.00857692461528E+01

 Other information on the energy :
    Total energy(eV)= -2.74447738480448E+02 ; Band energy (Ha)=  -6.4906333818E-01
--------------------------------------------------------------------------------

 Cartesian components of stress tensor (hartree/bohr^3)
  sigma(1 1)= -3.11015798E-06  sigma(3 2)=  0.00000000E+00
  sigma(2 2)= -3.11015798E-06  sigma(3 1)=  0.00000000E+00
  sigma(3 3)= -3.11015798E-06  sigma(2 1)=  0.00000000E+00

-Cartesian components of stress tensor (GPa)         [Pressure=  9.1504E-02 GPa]
- sigma(1 1)= -9.15039916E-02  sigma(3 2)=  0.00000000E+00
- sigma(2 2)= -9.15039916E-02  sigma(3 1)=  0.00000000E+00
- sigma(3 3)= -9.15039916E-02  sigma(2 1)=  0.00000000E+00

================================================================================
== DATASET 21 ==================================================================
-   nproc =    1

 mkfilename : getwfk/=0, take file _WFK from output of DATASET  11.

 Exchange-correlation functional for the present dataset will be:
  LDA: old Teter (4/91) fit to Ceperley-Alder data - ixc=3

 Real(R)+Recip(G) space primitive vectors, cartesian coordinates (Bohr,Bohr^-1):
 R(1)=  0.0000000  5.2650000  5.2650000  G(1)= -0.0949668  0.0949668  0.0949668
 R(2)=  5.2650000  0.0000000  5.2650000  G(2)=  0.0949668 -0.0949668  0.0949668
 R(3)=  5.2650000  5.2650000  0.0000000  G(3)=  0.0949668  0.0949668 -0.0949668
 Unit cell volume ucvol=  2.9189397E+02 bohr^3
 Angles (23,13,12)=  6.00000000E+01  6.00000000E+01  6.00000000E+01 degrees

 getcut: wavevector=  0.0000  0.0000  0.0000  ngfft=  12  12  12
         ecut(hartree)=      3.087   => boxcut(ratio)=   2.03767
--------------------------------------------------------------------------------

-inwffil : will read wavefunctions from disk file tffield_6o_DS11_WFK
- newkpt: read input wf with ikpt,npw=   1      68, make ikpt,npw=   1      68
- newkpt: read input wf with ikpt,npw=   2      68, make ikpt,npw=   2      68
- newkpt: read input wf with ikpt,npw=   3      74, make ikpt,npw=   3      74
- newkpt: read input wf with ikpt,npw=   4      74, make ikpt,npw=   4      74
- newkpt: read input wf with ikpt,npw=   5      73, make ikpt,npw=   5      73
- newkpt: read input wf with ikpt,npw=   6      74, make ikpt,npw=   6      74
- newkpt: read input wf with ikpt,npw=   7      73, make ikpt,npw=   7      73
- newkpt: read input wf with ikpt,npw=   8      74, make ikpt,npw=   8      74
- newkpt: read input wf with ikpt,npw=   9      74, make ikpt,npw=   9      74
- newkpt: read input wf with ikpt,npw=  10      75, make ikpt,npw=  10      75
- newkpt: read input wf with ikpt,npw=  11      76, make ikpt,npw=  11      76
- newkpt: read input wf with ikpt,npw=  12      77, make ikpt,npw=  12      77
- newkpt: read input wf with ikpt,npw=  13      77, make ikpt,npw=  13      77
- newkpt: read input wf with ikpt,npw=  14      75, make ikpt,npw=  14      75
- newkpt: read input wf with ikpt,npw=  15      77, make ikpt,npw=  15      77
- newkpt: read input wf with ikpt,npw=  16      77, make ikpt,npw=  16      77
- newkpt: read input wf with ikpt,npw=  17      75, make ikpt,npw=  17      75
- newkpt: read input wf with ikpt,npw=  18      75, make ikpt,npw=  18      75
- newkpt: read input wf with ikpt,npw=  19      76, make ikpt,npw=  19      76
- newkpt: read input wf with ikpt,npw=  20      74, make ikpt,npw=  20      74
- newkpt: read input wf with ikpt,npw=  21      74, make ikpt,npw=  21      74
- newkpt: read input wf with ikpt,npw=  22      79, make ikpt,npw=  22      79
- newkpt: read input wf with ikpt,npw=  23      77, make ikpt,npw=  23      77
- newkpt: read input wf with ikpt,npw=  24      78, make ikpt,npw=  24      78
- newkpt: read input wf with ikpt,npw=  25      79, make ikpt,npw=  25      79
- newkpt: read input wf with ikpt,npw=  26      80, make ikpt,npw=  26      80
- newkpt: read input wf with ikpt,npw=  27      77, make ikpt,npw=  27      77
- newkpt: read input wf with ikpt,npw=  28      77, make ikpt,npw=  28      77
- newkpt: read input wf with ikpt,npw=  29      79, make ikpt,npw=  29      79
- newkpt: read input wf with ikpt,npw=  30      80, make ikpt,npw=  30      80
- newkpt: read input wf with ikpt,npw=  31      77, make ikpt,npw=  31      77
- newkpt: read input wf with ikpt,npw=  32      77, make ikpt,npw=  32      77
- newkpt: read input wf with ikpt,npw=  33      77, make ikpt,npw=  33      77
- newkpt: read input wf with ikpt,npw=  34      78, make ikpt,npw=  34      78
- newkpt: read input wf with ikpt,npw=  35      78, make ikpt,npw=  35      78
- newkpt: read input wf with ikpt,npw=  36      79, make ikpt,npw=  36      79
- newkpt: read input wf with ikpt,npw=  37      76, make ikpt,npw=  37      76
- newkpt: read input wf with ikpt,npw=  38      74, make ikpt,npw=  38      74
- newkpt: read input wf with ikpt,npw=  39      69, make ikpt,npw=  39      69
- newkpt: read input wf with ikpt,npw=  40      75, make ikpt,npw=  40      75
- newkpt: read input wf with ikpt,npw=  41      75, make ikpt,npw=  41      75
- newkpt: read input wf with ikpt,npw=  42      74, make ikpt,npw=  42      74
- newkpt: read input wf with ikpt,npw=  43      75, make ikpt,npw=  43      75
- newkpt: read input wf with ikpt,npw=  44      77, make ikpt,npw=  44      77
- newkpt: read input wf with ikpt,npw=  45      76, make ikpt,npw=  45      76
- newkpt: read input wf with ikpt,npw=  46      75, make ikpt,npw=  46      75
- newkpt: read input wf with ikpt,npw=  47      77, make ikpt,npw=  47      77
- newkpt: read input wf with ikpt,npw=  48      76, make ikpt,npw=  48      76
- newkpt: read input wf with ikpt,npw=  49      76, make ikpt,npw=  49      76
- newkpt: read input wf with ikpt,npw=  50      77, make ikpt,npw=  50      77
- newkpt : prtvol=0 or 1, do not print more k-points.

_setup2: Arith. and geom. avg. npw (full set) are      75.602      75.552
  initberry: for direction 1, nkstr =   6, nstr =    144
  initberry: for direction 2, nkstr =   6, nstr =    144
  initberry: for direction 3, nkstr =   6, nstr =    144

 initberry: COMMENT - 
  As a rough estimate,
  to be below the critical field, the bandgap of your system
  should be larger than    0.17 eV.


================================================================================

     iter   Etot(hartree)      deltaE(h)  residm     vres2    diffor    maxfor
 ETOT  1  -10.083331869216    -1.008E+01 1.103E-01 1.675E-02 2.749E-04 2.749E-04
 ETOT  2  -10.083406787652    -7.492E-05 5.631E-07 5.642E-04 6.650E-05 2.084E-04
 ETOT  3  -10.083409130136    -2.342E-06 5.529E-07 2.676E-05 5.594E-07 2.090E-04
 ETOT  4  -10.083409225836    -9.570E-08 5.499E-07 1.431E-06 2.388E-06 2.066E-04
 ETOT  5  -10.083409200037     2.580E-08 5.485E-07 9.472E-06 3.682E-07 2.070E-04
 ETOT  6  -10.083409203359    -3.323E-09 5.488E-07 9.266E-06 2.857E-07 2.073E-04
 ETOT  7  -10.083409224535    -2.118E-08 5.492E-07 2.089E-06 4.497E-07 2.068E-04
 ETOT  8  -10.083409230008    -5.473E-09 5.490E-07 8.186E-08 4.969E-07 2.063E-04
 ETOT  9  -10.083409230127    -1.189E-10 5.486E-07 1.266E-08 2.040E-07 2.061E-04
 ETOT 10  -10.083409230147    -2.020E-11 5.487E-07 1.191E-10 2.537E-08 2.061E-04
 ETOT 11  -10.083409230147    -1.741E-13 5.487E-07 2.204E-11 1.318E-08 2.061E-04
 ETOT 12  -10.083409230147    -8.882E-15 5.487E-07 3.659E-12 6.356E-09 2.061E-04

 At SCF step   12, etot is converged : 
  for the second time, diff in etot=  8.882E-15 < toldfe=  1.000E-12

 Computing the polarization (Berry phase) for reciprocal vector:
  0.16667  0.00000  0.00000 (in reduced coordinates)
 -0.01583  0.01583  0.01583 (in cartesian coordinates - atomic units)
 Number of strings:   144
 Number of k points in string:    6

 Summary of the results
 Electronic Berry phase     3.600019775E-03
            Ionic phase    -7.500000000E-01
            Total phase    -7.463999802E-01
    Remapping in [-1,1]    -7.463999802E-01

           Polarization    -1.554584169E-02 (a.u. of charge)/bohr^2
           Polarization    -8.894516244E-01 C/m^2


 Computing the polarization (Berry phase) for reciprocal vector:
  0.00000  0.16667  0.00000 (in reduced coordinates)
  0.01583 -0.01583  0.01583 (in cartesian coordinates - atomic units)
 Number of strings:   144
 Number of k points in string:    6

 Summary of the results
 Electronic Berry phase     3.600019775E-03
            Ionic phase    -7.500000000E-01
            Total phase    -7.463999802E-01
    Remapping in [-1,1]    -7.463999802E-01

           Polarization    -1.554584169E-02 (a.u. of charge)/bohr^2
           Polarization    -8.894516244E-01 C/m^2


 Computing the polarization (Berry phase) for reciprocal vector:
  0.00000  0.00000  0.16667 (in reduced coordinates)
  0.01583  0.01583 -0.01583 (in cartesian coordinates - atomic units)
 Number of strings:   144
 Number of k points in string:    6

 Summary of the results
 Electronic Berry phase     3.600019775E-03
            Ionic phase    -7.500000000E-01
            Total phase    -7.463999802E-01
    Remapping in [-1,1]    -7.463999802E-01

           Polarization    -1.554584169E-02 (a.u. of charge)/bohr^2
           Polarization    -8.894516244E-01 C/m^2


 Polarization in cartesian coordinates (a.u.):
 (the sum of the electronic and ionic Berry phase has been folded into [-1, 1])
     Electronic berry phase:        0.129869789E-03   0.129869789E-03   0.129869789E-03
     Ionic:                        -0.270560574E-01  -0.270560574E-01  -0.270560574E-01  
     Total:                        -0.269261877E-01  -0.269261877E-01  -0.269261877E-01

 Polarization in cartesian coordinates (C/m^2):
 (the sum of the electronic and ionic Berry phase has been folded into [-1, 1])
     Electronic berry phase:        0.743046901E-02   0.743046901E-02   0.743046901E-02
     Ionic:                        -0.154800587E+01  -0.154800587E+01  -0.154800587E+01  
     Total:                        -0.154057540E+01  -0.154057540E+01  -0.154057540E+01

 Stress tensor under a constant electric field:

 Cartesian components of Maxwell stress tensor (hartree/bohr^3)
 Maxstr(1 1)= -3.16628699E-11 Maxstr(3 2)=  6.33257398E-11
 Maxstr(2 2)= -3.16628699E-11 Maxstr(3 1)=  6.33257398E-11
 Maxstr(3 3)= -3.16628699E-11 Maxstr(2 1)=  6.33257398E-11


 Cartesian components of stress tensor (hartree/bohr^3)
  sigma(1 1)= -3.17792587E-06  sigma(3 2)=  1.13583154E-06
  sigma(2 2)= -3.17792587E-06  sigma(3 1)=  1.13583154E-06
  sigma(3 3)= -3.17792587E-06  sigma(2 1)=  1.13583154E-06

================================================================================

 ----iterations are completed or convergence reached----

 Mean square residual over all n,k,spin=   7.0037E-08; max=  5.4867E-07
  -0.0833 -0.1667  0.0000    1  3.22158E-07 kpt; spin; max resid(k); each band:
  1.65E-09 1.15E-07 3.22E-07 1.63E-07
  -0.0833 -0.0833  0.0833    1  5.48674E-07 kpt; spin; max resid(k); each band:
  1.59E-09 9.99E-08 1.19E-07 5.49E-07
  -0.0833 -0.3333  0.0000    1  2.94038E-07 kpt; spin; max resid(k); each band:
  1.64E-09 1.13E-08 2.94E-07 1.82E-07
  -0.1667 -0.2500  0.0000    1  2.68924E-07 kpt; spin; max resid(k); each band:
  1.38E-09 4.37E-08 8.42E-08 2.69E-07
  -0.0833 -0.2500  0.0833    1  3.20356E-07 kpt; spin; max resid(k); each band:
  1.36E-09 2.85E-08 1.23E-07 3.20E-07
  -0.1667 -0.1667  0.0833    1  2.88338E-07 kpt; spin; max resid(k); each band:
  1.14E-09 6.72E-08 2.88E-07 7.29E-08
  -0.0833 -0.1667  0.1667    1  2.68010E-07 kpt; spin; max resid(k); each band:
  1.16E-09 4.19E-08 1.25E-07 2.68E-07
  -0.0833 -0.0833  0.2500    1  3.54666E-07 kpt; spin; max resid(k); each band:
  1.41E-09 2.29E-08 1.08E-07 3.55E-07
  -0.0833  0.5000  0.0000    1  3.02440E-07 kpt; spin; max resid(k); each band:
  1.73E-09 6.52E-09 1.84E-07 3.02E-07
  -0.1667 -0.4167  0.0000    1  2.69211E-07 kpt; spin; max resid(k); each band:
  1.60E-09 9.85E-09 9.37E-08 2.69E-07
  -0.0833 -0.4167  0.0833    1  3.33021E-07 kpt; spin; max resid(k); each band:
  1.46E-09 7.48E-09 1.16E-07 3.33E-07
  -0.2500 -0.3333  0.0000    1  2.59436E-07 kpt; spin; max resid(k); each band:
  1.45E-09 2.77E-08 2.64E-08 2.59E-07
  -0.1667 -0.3333  0.0833    1  2.14698E-07 kpt; spin; max resid(k); each band:
  1.26E-09 2.45E-08 8.49E-08 2.15E-07
  -0.0833 -0.3333  0.1667    1  2.73621E-07 kpt; spin; max resid(k); each band:
  1.23E-09 1.29E-08 5.89E-08 2.74E-07
  -0.2500 -0.2500  0.0833    1  1.96407E-07 kpt; spin; max resid(k); each band:
  1.13E-09 4.52E-08 1.96E-07 3.07E-08
  -0.1667 -0.2500  0.1667    1  1.34765E-07 kpt; spin; max resid(k); each band:
  9.78E-10 3.41E-08 8.28E-08 1.35E-07
  -0.0833 -0.2500  0.2500    1  2.35860E-07 kpt; spin; max resid(k); each band:
  1.23E-09 1.77E-08 3.81E-08 2.36E-07
  -0.1667 -0.1667  0.2500    1  1.59639E-07 kpt; spin; max resid(k); each band:
  1.04E-09 1.99E-08 1.60E-07 8.24E-08
  -0.0833 -0.1667  0.3333    1  2.04652E-07 kpt; spin; max resid(k); each band:
  1.31E-09 1.11E-08 1.29E-07 2.05E-07
  -0.0833 -0.0833  0.4167    1  3.14914E-07 kpt; spin; max resid(k); each band:
  1.61E-09 7.79E-09 3.15E-07 1.40E-07
  -0.0833  0.3333  0.0000    1  3.07595E-07 kpt; spin; max resid(k); each band:
  1.53E-09 1.18E-08 1.75E-07 3.08E-07
  -0.1667  0.4167  0.0000    1  2.78824E-07 kpt; spin; max resid(k); each band:
  1.46E-09 7.54E-09 8.45E-08 2.79E-07
  -0.2500  0.5000  0.0000    1  2.66042E-07 kpt; spin; max resid(k); each band:
  1.60E-09 1.15E-08 3.43E-08 2.66E-07
  -0.1667  0.5000  0.0833    1  2.48921E-07 kpt; spin; max resid(k); each band:
  1.26E-09 7.47E-09 7.43E-08 2.49E-07
  -0.3333 -0.4167  0.0000    1  2.69179E-07 kpt; spin; max resid(k); each band:
  1.68E-09 2.33E-08 1.27E-08 2.69E-07
  -0.2500 -0.4167  0.0833    1  1.89118E-07 kpt; spin; max resid(k); each band:
  1.28E-09 2.25E-08 4.58E-08 1.89E-07
  -0.1667 -0.4167  0.1667    1  1.68459E-07 kpt; spin; max resid(k); each band:
  1.02E-09 1.27E-08 5.08E-08 1.68E-07
  -0.0833 -0.4167  0.2500    1  2.33993E-07 kpt; spin; max resid(k); each band:
  1.19E-09 1.00E-08 3.18E-08 2.34E-07
  -0.3333 -0.3333  0.0833    1  1.98654E-07 kpt; spin; max resid(k); each band:
  1.26E-09 2.87E-08 1.99E-07 1.59E-08
  -0.2500 -0.3333  0.1667    1  9.02834E-08 kpt; spin; max resid(k); each band:
  9.84E-10 2.55E-08 9.03E-08 4.99E-08
  -0.1667 -0.3333  0.2500    1  1.27148E-07 kpt; spin; max resid(k); each band:
  1.07E-09 1.73E-08 3.11E-08 1.27E-07
  -0.0833 -0.3333  0.3333    1  2.45556E-07 kpt; spin; max resid(k); each band:
  1.28E-09 1.17E-08 1.65E-08 2.46E-07
  -0.2500 -0.2500  0.2500    1  6.26712E-08 kpt; spin; max resid(k); each band:
  9.36E-10 1.76E-08 6.27E-08 4.20E-08
  -0.1667 -0.2500  0.3333    1  9.99611E-08 kpt; spin; max resid(k); each band:
  1.07E-09 1.09E-08 6.65E-08 1.00E-07
  -0.0833 -0.2500  0.4167    1  2.36738E-07 kpt; spin; max resid(k); each band:
  1.40E-09 8.18E-09 4.27E-08 2.37E-07
  -0.1667 -0.1667  0.4167    1  1.30974E-07 kpt; spin; max resid(k); each band:
  1.15E-09 7.17E-09 1.31E-07 1.12E-07
  -0.0833 -0.1667  0.5000    1  1.80142E-07 kpt; spin; max resid(k); each band:
  1.50E-09 6.44E-09 1.66E-07 1.80E-07
  -0.0833 -0.0833 -0.4167    1  2.89097E-07 kpt; spin; max resid(k); each band:
  1.66E-09 6.93E-09 2.89E-07 1.48E-07
  -0.0833  0.1667  0.0000    1  3.43664E-07 kpt; spin; max resid(k); each band:
  1.47E-09 5.39E-08 2.11E-07 3.44E-07
  -0.1667  0.2500  0.0000    1  2.91639E-07 kpt; spin; max resid(k); each band:
  1.31E-09 2.01E-08 7.67E-08 2.92E-07
  -0.2500  0.3333  0.0000    1  2.70391E-07 kpt; spin; max resid(k); each band:
  1.39E-09 1.01E-08 3.17E-08 2.70E-07
  -0.3333  0.4167  0.0000    1  2.72277E-07 kpt; spin; max resid(k); each band:
  1.54E-09 1.53E-08 1.77E-08 2.72E-07
  -0.4167  0.5000  0.0000    1  2.77967E-07 kpt; spin; max resid(k); each band:
  1.96E-09 2.11E-08 9.08E-09 2.78E-07
  -0.3333  0.5000  0.0833    1  2.25187E-07 kpt; spin; max resid(k); each band:
  1.41E-09 1.94E-08 1.77E-08 2.25E-07
  -0.2500  0.5000  0.1667    1  1.22074E-07 kpt; spin; max resid(k); each band:
  1.01E-09 1.38E-08 3.02E-08 1.22E-07
  -0.4167 -0.4167  0.0833    1  2.29290E-07 kpt; spin; max resid(k); each band:
  1.50E-09 1.72E-08 2.29E-07 1.02E-08
  -0.3333 -0.4167  0.1667    1  1.11864E-07 kpt; spin; max resid(k); each band:
  1.04E-09 1.60E-08 1.12E-07 1.85E-08
  -0.2500 -0.4167  0.2500    1  4.18084E-08 kpt; spin; max resid(k); each band:
  1.06E-09 1.57E-08 4.18E-08 4.12E-08
  -0.1667 -0.4167  0.3333    1  1.22901E-07 kpt; spin; max resid(k); each band:
  1.11E-09 1.32E-08 2.22E-08 1.23E-07
  -0.0833 -0.4167  0.4167    1  2.55820E-07 kpt; spin; max resid(k); each band:
  1.61E-09 1.56E-08 1.25E-08 2.56E-07
 outwf : prtvol=0 or 1, do not print more k-points.

 reduced coordinates (array xred) for    2 atoms
       0.000000000000      0.000000000000      0.000000000000
       0.250000000000      0.250000000000      0.250000000000
 rms dE/dt=  2.1707E-03; max dE/dt=  2.1707E-03; dE/dt below (all hartree)
    1      -0.002170751686     -0.002170751686     -0.002170751686
    2       0.002170748297      0.002170748297      0.002170748297

 cartesian coordinates (angstrom) at end:
    1      0.00000000000000     0.00000000000000     0.00000000000000
    2      1.39305900161317     1.39305900161317     1.39305900161317

 cartesian forces (hartree/bohr) at end:
    1      0.00020614909704     0.00020614909704     0.00020614909704
    2     -0.00020614909704    -0.00020614909704    -0.00020614909704
 frms,max,avg= 2.0614910E-04 2.0614910E-04   1.609E-10  1.609E-10  1.609E-10 h/b

 cartesian forces (eV/Angstrom) at end:
    1      0.01060061189479     0.01060061189479     0.01060061189479
    2     -0.01060061189479    -0.01060061189479    -0.01060061189479
 frms,max,avg= 1.0600612E-02 1.0600612E-02   8.275E-09  8.275E-09  8.275E-09 e/A
 length scales= 10.530000000000 10.530000000000 10.530000000000 bohr
              =  5.572236006453  5.572236006453  5.572236006453 angstroms
 prteigrs : about to open file tffield_6o_DS21_EIG
 Fermi (or HOMO) energy (hartree) =   0.09084   Average Vxc (hartree)=  -0.34862
 Eigenvalues (hartree) for nkpt=  91  k points:
 kpt#   1, nband=  4, wtk=  0.01389, kpt= -0.0833 -0.1667  0.0000 (reduced coord)
  -0.34039   0.02841   0.07422   0.07855
 kpt#   2, nband=  4, wtk=  0.00694, kpt= -0.0833 -0.0833  0.0833 (reduced coord)
  -0.34039   0.02840   0.07420   0.07858
 kpt#   3, nband=  4, wtk=  0.01389, kpt= -0.0833 -0.3333  0.0000 (reduced coord)
  -0.31616  -0.06145   0.05900   0.06019
 kpt#   4, nband=  4, wtk=  0.01389, kpt= -0.1667 -0.2500  0.0000 (reduced coord)
  -0.32699  -0.01090   0.05220   0.05266
 kpt#   5, nband=  4, wtk=  0.01389, kpt= -0.0833 -0.2500  0.0833 (reduced coord)
  -0.32127  -0.03529   0.03413   0.06871
 kpt#   6, nband=  4, wtk=  0.00694, kpt= -0.1667 -0.1667  0.0833 (reduced coord)
  -0.32699  -0.01091   0.05223   0.05264
 kpt#   7, nband=  4, wtk=  0.01389, kpt= -0.0833 -0.1667  0.1667 (reduced coord)
  -0.32127  -0.03529   0.03414   0.06870
 kpt#   8, nband=  4, wtk=  0.00694, kpt= -0.0833 -0.0833  0.2500 (reduced coord)
  -0.31616  -0.06146   0.05898   0.06022
 kpt#   9, nband=  4, wtk=  0.01389, kpt= -0.0833  0.5000  0.0000 (reduced coord)
  -0.29336  -0.11361   0.04537   0.05755
 kpt#  10, nband=  4, wtk=  0.01389, kpt= -0.1667 -0.4167  0.0000 (reduced coord)
  -0.30051  -0.08206   0.02485   0.04333
 kpt#  11, nband=  4, wtk=  0.01389, kpt= -0.0833 -0.4167  0.0833 (reduced coord)
  -0.29464  -0.09998   0.02022   0.05218
 kpt#  12, nband=  4, wtk=  0.01389, kpt= -0.2500 -0.3333  0.0000 (reduced coord)
  -0.30829  -0.04742   0.02741   0.03352
 kpt#  13, nband=  4, wtk=  0.01389, kpt= -0.1667 -0.3333  0.0833 (reduced coord)
  -0.30394  -0.06262   0.01139   0.04107
 kpt#  14, nband=  4, wtk=  0.01389, kpt= -0.0833 -0.3333  0.1667 (reduced coord)
  -0.29587  -0.08016  -0.01054   0.04930
 kpt#  15, nband=  4, wtk=  0.00694, kpt= -0.2500 -0.2500  0.0833 (reduced coord)
  -0.30829  -0.04743   0.02744   0.03350
 kpt#  16, nband=  4, wtk=  0.01389, kpt= -0.1667 -0.2500  0.1667 (reduced coord)
  -0.30394  -0.06263   0.01141   0.04105
 kpt#  17, nband=  4, wtk=  0.01389, kpt= -0.0833 -0.2500  0.2500 (reduced coord)
  -0.29587  -0.08016  -0.01054   0.04930
 kpt#  18, nband=  4, wtk=  0.00694, kpt= -0.1667 -0.1667  0.2500 (reduced coord)
  -0.30051  -0.08207   0.02487   0.04331
 kpt#  19, nband=  4, wtk=  0.01389, kpt= -0.0833 -0.1667  0.3333 (reduced coord)
  -0.29464  -0.09998   0.02024   0.05216
 kpt#  20, nband=  4, wtk=  0.00694, kpt= -0.0833 -0.0833  0.4167 (reduced coord)
  -0.29336  -0.11361   0.04540   0.05752
 kpt#  21, nband=  4, wtk=  0.01389, kpt= -0.0833  0.3333  0.0000 (reduced coord)
  -0.30660  -0.08544   0.04299   0.06856
 kpt#  22, nband=  4, wtk=  0.01389, kpt= -0.1667  0.4167  0.0000 (reduced coord)
  -0.28834  -0.10754   0.00598   0.05062
 kpt#  23, nband=  4, wtk=  0.01389, kpt= -0.2500  0.5000  0.0000 (reduced coord)
  -0.28465  -0.09377  -0.01186   0.03110
 kpt#  24, nband=  4, wtk=  0.01389, kpt= -0.1667  0.5000  0.0833 (reduced coord)
  -0.28368  -0.10234  -0.01019   0.03369
 kpt#  25, nband=  4, wtk=  0.01389, kpt= -0.3333 -0.4167  0.0000 (reduced coord)
  -0.28832  -0.08081   0.00900   0.01937
 kpt#  26, nband=  4, wtk=  0.01389, kpt= -0.2500 -0.4167  0.0833 (reduced coord)
  -0.28574  -0.08481  -0.00804   0.01806
 kpt#  27, nband=  4, wtk=  0.01389, kpt= -0.1667 -0.4167  0.1667 (reduced coord)
  -0.28159  -0.09087  -0.02562   0.01837
 kpt#  28, nband=  4, wtk=  0.01389, kpt= -0.0833 -0.4167  0.2500 (reduced coord)
  -0.27731  -0.09505  -0.03774   0.02460
 kpt#  29, nband=  4, wtk=  0.00694, kpt= -0.3333 -0.3333  0.0833 (reduced coord)
  -0.28832  -0.08081   0.00902   0.01935
 kpt#  30, nband=  4, wtk=  0.01389, kpt= -0.2500 -0.3333  0.1667 (reduced coord)
  -0.28574  -0.08481  -0.00802   0.01804
 kpt#  31, nband=  4, wtk=  0.01389, kpt= -0.1667 -0.3333  0.2500 (reduced coord)
  -0.28159  -0.09087  -0.02561   0.01836
 kpt#  32, nband=  4, wtk=  0.01389, kpt= -0.0833 -0.3333  0.3333 (reduced coord)
  -0.27731  -0.09505  -0.03773   0.02459
 kpt#  33, nband=  4, wtk=  0.00694, kpt= -0.2500 -0.2500  0.2500 (reduced coord)
  -0.28465  -0.09378  -0.01183   0.03108
 kpt#  34, nband=  4, wtk=  0.01389, kpt= -0.1667 -0.2500  0.3333 (reduced coord)
  -0.28368  -0.10234  -0.01016   0.03366
 kpt#  35, nband=  4, wtk=  0.01389, kpt= -0.0833 -0.2500  0.4167 (reduced coord)
  -0.28368  -0.10234  -0.01017   0.03367
 kpt#  36, nband=  4, wtk=  0.00694, kpt= -0.1667 -0.1667  0.4167 (reduced coord)
  -0.28834  -0.10754   0.00600   0.05060
 kpt#  37, nband=  4, wtk=  0.01389, kpt= -0.0833 -0.1667  0.5000 (reduced coord)
  -0.29464  -0.09998   0.02024   0.05215
 kpt#  38, nband=  4, wtk=  0.00694, kpt= -0.0833 -0.0833 -0.4167 (reduced coord)
  -0.30661  -0.08544   0.04301   0.06854
 kpt#  39, nband=  4, wtk=  0.01389, kpt= -0.0833  0.1667  0.0000 (reduced coord)
  -0.33396  -0.00347   0.05791   0.08578
 kpt#  40, nband=  4, wtk=  0.01389, kpt= -0.1667  0.2500  0.0000 (reduced coord)
  -0.31028  -0.06072   0.01047   0.07065
 kpt#  41, nband=  4, wtk=  0.01389, kpt= -0.2500  0.3333  0.0000 (reduced coord)
  -0.28604  -0.09178  -0.02880   0.04655
 kpt#  42, nband=  4, wtk=  0.01389, kpt= -0.3333  0.4167  0.0000 (reduced coord)
  -0.27418  -0.09701  -0.03664   0.02460
 kpt#  43, nband=  4, wtk=  0.01389, kpt= -0.4167  0.5000  0.0000 (reduced coord)
  -0.27391  -0.10305  -0.00089   0.01164
 kpt#  44, nband=  4, wtk=  0.01389, kpt= -0.3333  0.5000  0.0833 (reduced coord)
  -0.27301  -0.09870  -0.02030   0.00631
 kpt#  45, nband=  4, wtk=  0.01389, kpt= -0.2500  0.5000  0.1667 (reduced coord)
  -0.27249  -0.09395  -0.03333  -0.00405
 kpt#  46, nband=  4, wtk=  0.00694, kpt= -0.4167 -0.4167  0.0833 (reduced coord)
  -0.27391  -0.10305  -0.00087   0.01163
 kpt#  47, nband=  4, wtk=  0.01389, kpt= -0.3333 -0.4167  0.1667 (reduced coord)
  -0.27301  -0.09870  -0.02028   0.00629
 kpt#  48, nband=  4, wtk=  0.01389, kpt= -0.2500 -0.4167  0.2500 (reduced coord)
  -0.27249  -0.09395  -0.03331  -0.00407
 kpt#  49, nband=  4, wtk=  0.01389, kpt= -0.1667 -0.4167  0.3333 (reduced coord)
  -0.27249  -0.09395  -0.03332  -0.00406
 kpt#  50, nband=  4, wtk=  0.01389, kpt= -0.0833 -0.4167  0.4167 (reduced coord)
  -0.27301  -0.09870  -0.02029   0.00630
 prteigrs : prtvol=0 or 1, do not print more k-points.

 Total charge density [el/Bohr^3]
,     Maximum=    9.1450E-02  at reduced coord.    0.1667    0.1667    0.5000
,Next maximum=    9.1450E-02  at reduced coord.    0.1667    0.5000    0.1667
,     Minimum=    3.1559E-03  at reduced coord.    0.7500    0.7500    0.7500
,Next minimum=    3.4982E-03  at reduced coord.    0.5000    0.5000    0.5000
,  Integrated=    8.0000E+00

--------------------------------------------------------------------------------
 Components of total free energy (in Hartree) :

    Kinetic energy  =  2.91883091349963E+00
    Hartree energy  =  7.60831940346379E-01
    XC energy       = -4.34955694081704E+00
    Ewald energy    = -8.54432049481056E+00
    PspCore energy  =  7.51707252549085E-01
    Loc. psp. energy= -2.29229260955365E+00
    NL   psp  energy=  6.69033179523912E-01
    Electric energy =  2.35752911476988E-03
    Kohn-Sham energy= -1.00857667592623E+01
    >>>>>>>>> Etotal= -1.00834092301475E+01

 Other information on the energy :
    Total energy(eV)= -2.74383519179010E+02 ; Band energy (Ha)=  -6.4906350150E-01
--------------------------------------------------------------------------------

Constant unreduced E calculation  - final values:
 (a. u.)
       E:   1.000000000E-04   1.000000000E-04   1.000000000E-04  
       P:  -2.692618766E-02  -2.692618766E-02  -2.692618766E-02  

    ebar:   1.053000000E-03   1.053000000E-03   1.053000000E-03  
    pbar:  -3.562977693E+00  -3.562977693E+00  -3.562977693E+00  

       e:   2.205905416E-04   2.205905416E-04   2.205905416E-04  
       p:  -7.463999802E-01  -7.463999802E-01  -7.463999802E-01  

 (S.I.), that is V/m for E, and C/m^2 for P
-      E:   5.142206319E+07   5.142206319E+07   5.142206319E+07  
       P:  -1.540575404E+00  -1.540575404E+00  -1.540575404E+00  


 Please check: COMMENT - 
  As a rough estimate,
  to be below the critical field, the bandgap of your system
  should be larger than    0.17 eV.

--------------------------------------------------------------------------------

 Cartesian components of stress tensor (hartree/bohr^3)
  sigma(1 1)= -3.17792587E-06  sigma(3 2)=  1.13583154E-06
  sigma(2 2)= -3.17792587E-06  sigma(3 1)=  1.13583154E-06
  sigma(3 3)= -3.17792587E-06  sigma(2 1)=  1.13583154E-06

-Cartesian components of stress tensor (GPa)         [Pressure=  9.3498E-02 GPa]
- sigma(1 1)= -9.34977914E-02  sigma(3 2)=  3.34173121E-02
- sigma(2 2)= -9.34977914E-02  sigma(3 1)=  3.34173121E-02
- sigma(3 3)= -9.34977914E-02  sigma(2 1)=  3.34173121E-02

================================================================================
== DATASET 31 ==================================================================
-   nproc =    1

 mkfilename : getwfk/=0, take file _WFK from output of DATASET  11.

 Exchange-correlation functional for the present dataset will be:
  LDA: old Teter (4/91) fit to Ceperley-Alder data - ixc=3

 Real(R)+Recip(G) space primitive vectors, cartesian coordinates (Bohr,Bohr^-1):
 R(1)=  0.0000000  5.2650000  5.2650000  G(1)= -0.0949668  0.0949668  0.0949668
 R(2)=  5.2650000  0.0000000  5.2650000  G(2)=  0.0949668 -0.0949668  0.0949668
 R(3)=  5.2650000  5.2650000  0.0000000  G(3)=  0.0949668  0.0949668 -0.0949668
 Unit cell volume ucvol=  2.9189397E+02 bohr^3
 Angles (23,13,12)=  6.00000000E+01  6.00000000E+01  6.00000000E+01 degrees

 getcut: wavevector=  0.0000  0.0000  0.0000  ngfft=  12  12  12
         ecut(hartree)=      3.087   => boxcut(ratio)=   2.03767
--------------------------------------------------------------------------------

-inwffil : will read wavefunctions from disk file tffield_6o_DS11_WFK
- newkpt: read input wf with ikpt,npw=   1      68, make ikpt,npw=   1      68
- newkpt: read input wf with ikpt,npw=   2      68, make ikpt,npw=   2      68
- newkpt: read input wf with ikpt,npw=   3      74, make ikpt,npw=   3      74
- newkpt: read input wf with ikpt,npw=   4      74, make ikpt,npw=   4      74
- newkpt: read input wf with ikpt,npw=   5      73, make ikpt,npw=   5      73
- newkpt: read input wf with ikpt,npw=   6      74, make ikpt,npw=   6      74
- newkpt: read input wf with ikpt,npw=   7      73, make ikpt,npw=   7      73
- newkpt: read input wf with ikpt,npw=   8      74, make ikpt,npw=   8      74
- newkpt: read input wf with ikpt,npw=   9      74, make ikpt,npw=   9      74
- newkpt: read input wf with ikpt,npw=  10      75, make ikpt,npw=  10      75
- newkpt: read input wf with ikpt,npw=  11      76, make ikpt,npw=  11      76
- newkpt: read input wf with ikpt,npw=  12      77, make ikpt,npw=  12      77
- newkpt: read input wf with ikpt,npw=  13      77, make ikpt,npw=  13      77
- newkpt: read input wf with ikpt,npw=  14      75, make ikpt,npw=  14      75
- newkpt: read input wf with ikpt,npw=  15      77, make ikpt,npw=  15      77
- newkpt: read input wf with ikpt,npw=  16      77, make ikpt,npw=  16      77
- newkpt: read input wf with ikpt,npw=  17      75, make ikpt,npw=  17      75
- newkpt: read input wf with ikpt,npw=  18      75, make ikpt,npw=  18      75
- newkpt: read input wf with ikpt,npw=  19      76, make ikpt,npw=  19      76
- newkpt: read input wf with ikpt,npw=  20      74, make ikpt,npw=  20      74
- newkpt: read input wf with ikpt,npw=  21      74, make ikpt,npw=  21      74
- newkpt: read input wf with ikpt,npw=  22      79, make ikpt,npw=  22      79
- newkpt: read input wf with ikpt,npw=  23      77, make ikpt,npw=  23      77
- newkpt: read input wf with ikpt,npw=  24      78, make ikpt,npw=  24      78
- newkpt: read input wf with ikpt,npw=  25      79, make ikpt,npw=  25      79
- newkpt: read input wf with ikpt,npw=  26      80, make ikpt,npw=  26      80
- newkpt: read input wf with ikpt,npw=  27      77, make ikpt,npw=  27      77
- newkpt: read input wf with ikpt,npw=  28      77, make ikpt,npw=  28      77
- newkpt: read input wf with ikpt,npw=  29      79, make ikpt,npw=  29      79
- newkpt: read input wf with ikpt,npw=  30      80, make ikpt,npw=  30      80
- newkpt: read input wf with ikpt,npw=  31      77, make ikpt,npw=  31      77
- newkpt: read input wf with ikpt,npw=  32      77, make ikpt,npw=  32      77
- newkpt: read input wf with ikpt,npw=  33      77, make ikpt,npw=  33      77
- newkpt: read input wf with ikpt,npw=  34      78, make ikpt,npw=  34      78
- newkpt: read input wf with ikpt,npw=  35      78, make ikpt,npw=  35      78
- newkpt: read input wf with ikpt,npw=  36      79, make ikpt,npw=  36      79
- newkpt: read input wf with ikpt,npw=  37      76, make ikpt,npw=  37      76
- newkpt: read input wf with ikpt,npw=  38      74, make ikpt,npw=  38      74
- newkpt: read input wf with ikpt,npw=  39      69, make ikpt,npw=  39      69
- newkpt: read input wf with ikpt,npw=  40      75, make ikpt,npw=  40      75
- newkpt: read input wf with ikpt,npw=  41      75, make ikpt,npw=  41      75
- newkpt: read input wf with ikpt,npw=  42      74, make ikpt,npw=  42      74
- newkpt: read input wf with ikpt,npw=  43      75, make ikpt,npw=  43      75
- newkpt: read input wf with ikpt,npw=  44      77, make ikpt,npw=  44      77
- newkpt: read input wf with ikpt,npw=  45      76, make ikpt,npw=  45      76
- newkpt: read input wf with ikpt,npw=  46      75, make ikpt,npw=  46      75
- newkpt: read input wf with ikpt,npw=  47      77, make ikpt,npw=  47      77
- newkpt: read input wf with ikpt,npw=  48      76, make ikpt,npw=  48      76
- newkpt: read input wf with ikpt,npw=  49      76, make ikpt,npw=  49      76
- newkpt: read input wf with ikpt,npw=  50      77, make ikpt,npw=  50      77
- newkpt : prtvol=0 or 1, do not print more k-points.

_setup2: Arith. and geom. avg. npw (full set) are      75.602      75.552
  initberry: for direction 1, nkstr =   6, nstr =    144
  initberry: for direction 2, nkstr =   6, nstr =    144
  initberry: for direction 3, nkstr =   6, nstr =    144

 initberry: COMMENT - 
  As a rough estimate,
  to be below the critical field, the bandgap of your system
  should be larger than    0.17 eV.


================================================================================

     iter   Etot(hartree)      deltaE(h)  residm     vres2    diffor    maxfor
 ETOT  1  -10.088058646520    -1.009E+01 1.099E-01 1.646E-02 2.695E-04 2.695E-04
 ETOT  2  -10.088132546161    -7.390E-05 5.624E-07 5.502E-04 4.397E-05 2.255E-04
 ETOT  3  -10.088134831359    -2.285E-06 5.538E-07 2.609E-05 2.024E-05 2.053E-04
 ETOT  4  -10.088134924805    -9.345E-08 5.485E-07 1.373E-06 1.253E-06 2.065E-04
 ETOT  5  -10.088134899851     2.495E-08 5.485E-07 9.127E-06 1.439E-06 2.080E-04
 ETOT  6  -10.088134903026    -3.174E-09 5.485E-07 8.937E-06 4.295E-07 2.075E-04
 ETOT  7  -10.088134923578    -2.055E-08 5.484E-07 1.995E-06 8.209E-07 2.067E-04
 ETOT  8  -10.088134928826    -5.248E-09 5.482E-07 7.769E-08 5.276E-07 2.062E-04
 ETOT  9  -10.088134928937    -1.110E-10 5.483E-07 1.202E-08 3.372E-07 2.065E-04
 ETOT 10  -10.088134928956    -1.895E-11 5.483E-07 1.182E-10 2.174E-08 2.065E-04
 ETOT 11  -10.088134928956    -1.741E-13 5.483E-07 2.201E-11 1.755E-08 2.065E-04
 ETOT 12  -10.088134928956    -1.421E-14 5.483E-07 3.493E-12 8.624E-09 2.065E-04

 At SCF step   12, etot is converged : 
  for the second time, diff in etot=  1.421E-14 < toldfe=  1.000E-12

 Computing the polarization (Berry phase) for reciprocal vector:
  0.16667  0.00000  0.00000 (in reduced coordinates)
 -0.01583  0.01583  0.01583 (in cartesian coordinates - atomic units)
 Number of strings:   144
 Number of k points in string:    6

 Summary of the results
 Electronic Berry phase     4.534349277E-04
            Ionic phase    -7.500000000E-01
            Total phase    -7.495465651E-01
    Remapping in [-1,1]    -7.495465651E-01

           Polarization    -1.561137801E-02 (a.u. of charge)/bohr^2
           Polarization    -8.932012694E-01 C/m^2


 Computing the polarization (Berry phase) for reciprocal vector:
  0.00000  0.16667  0.00000 (in reduced coordinates)
  0.01583 -0.01583  0.01583 (in cartesian coordinates - atomic units)
 Number of strings:   144
 Number of k points in string:    6

 Summary of the results
 Electronic Berry phase     4.534349276E-04
            Ionic phase    -7.500000000E-01
            Total phase    -7.495465651E-01
    Remapping in [-1,1]    -7.495465651E-01

           Polarization    -1.561137801E-02 (a.u. of charge)/bohr^2
           Polarization    -8.932012694E-01 C/m^2


 Computing the polarization (Berry phase) for reciprocal vector:
  0.00000  0.00000  0.16667 (in reduced coordinates)
  0.01583  0.01583 -0.01583 (in cartesian coordinates - atomic units)
 Number of strings:   144
 Number of k points in string:    6

 Summary of the results
 Electronic Berry phase     4.534349272E-04
            Ionic phase    -7.500000000E-01
            Total phase    -7.495465651E-01
    Remapping in [-1,1]    -7.495465651E-01

           Polarization    -1.561137801E-02 (a.u. of charge)/bohr^2
           Polarization    -8.932012694E-01 C/m^2


 Polarization in cartesian coordinates (a.u.):
 (the sum of the electronic and ionic Berry phase has been folded into [-1, 1])
     Electronic berry phase:        0.163575486E-04   0.163575486E-04   0.163575486E-04
     Ionic:                        -0.270560574E-01  -0.270560574E-01  -0.270560574E-01  
     Total:                        -0.270396999E-01  -0.270396999E-01  -0.270396999E-01

 Polarization in cartesian coordinates (C/m^2):
 (the sum of the electronic and ionic Berry phase has been folded into [-1, 1])
     Electronic berry phase:        0.935893241E-03   0.935893241E-03   0.935893242E-03
     Ionic:                        -0.154800587E+01  -0.154800587E+01  -0.154800587E+01  
     Total:                        -0.154706998E+01  -0.154706998E+01  -0.154706998E+01

 Stress tensor under a constant electric field:

 Cartesian components of Maxwell stress tensor (hartree/bohr^3)
 Maxstr(1 1)= -3.16628699E-11 Maxstr(3 2)=  6.33257398E-11
 Maxstr(2 2)= -3.16628699E-11 Maxstr(3 1)=  6.33257398E-11
 Maxstr(3 3)= -3.16628699E-11 Maxstr(2 1)=  6.33257398E-11


 Cartesian components of stress tensor (hartree/bohr^3)
  sigma(1 1)= -3.05679036E-06  sigma(3 2)= -1.13208935E-06
  sigma(2 2)= -3.05679036E-06  sigma(3 1)= -1.13208935E-06
  sigma(3 3)= -3.05679036E-06  sigma(2 1)= -1.13208935E-06

================================================================================

 ----iterations are completed or convergence reached----

 Mean square residual over all n,k,spin=   6.9974E-08; max=  5.4826E-07
  -0.0833 -0.1667  0.0000    1  3.22229E-07 kpt; spin; max resid(k); each band:
  1.62E-09 1.16E-07 3.22E-07 1.62E-07
  -0.0833 -0.0833  0.0833    1  5.48264E-07 kpt; spin; max resid(k); each band:
  1.57E-09 9.98E-08 1.19E-07 5.48E-07
  -0.0833 -0.3333  0.0000    1  2.97621E-07 kpt; spin; max resid(k); each band:
  1.61E-09 1.14E-08 2.98E-07 1.78E-07
  -0.1667 -0.2500  0.0000    1  2.66577E-07 kpt; spin; max resid(k); each band:
  1.35E-09 4.39E-08 8.60E-08 2.67E-07
  -0.0833 -0.2500  0.0833    1  3.19792E-07 kpt; spin; max resid(k); each band:
  1.34E-09 2.86E-08 1.23E-07 3.20E-07
  -0.1667 -0.1667  0.0833    1  2.87866E-07 kpt; spin; max resid(k); each band:
  1.12E-09 6.73E-08 2.88E-07 7.29E-08
  -0.0833 -0.1667  0.1667    1  2.67531E-07 kpt; spin; max resid(k); each band:
  1.14E-09 4.20E-08 1.25E-07 2.68E-07
  -0.0833 -0.0833  0.2500    1  3.54295E-07 kpt; spin; max resid(k); each band:
  1.37E-09 2.30E-08 1.08E-07 3.54E-07
  -0.0833  0.5000  0.0000    1  3.01752E-07 kpt; spin; max resid(k); each band:
  1.68E-09 6.56E-09 1.84E-07 3.02E-07
  -0.1667 -0.4167  0.0000    1  2.68806E-07 kpt; spin; max resid(k); each band:
  1.57E-09 9.89E-09 9.38E-08 2.69E-07
  -0.0833 -0.4167  0.0833    1  3.32500E-07 kpt; spin; max resid(k); each band:
  1.43E-09 7.51E-09 1.16E-07 3.33E-07
  -0.2500 -0.3333  0.0000    1  2.59068E-07 kpt; spin; max resid(k); each band:
  1.42E-09 2.79E-08 2.64E-08 2.59E-07
  -0.1667 -0.3333  0.0833    1  2.14189E-07 kpt; spin; max resid(k); each band:
  1.24E-09 2.46E-08 8.49E-08 2.14E-07
  -0.0833 -0.3333  0.1667    1  2.73231E-07 kpt; spin; max resid(k); each band:
  1.20E-09 1.29E-08 5.89E-08 2.73E-07
  -0.2500 -0.2500  0.0833    1  1.95963E-07 kpt; spin; max resid(k); each band:
  1.10E-09 4.53E-08 1.96E-07 3.07E-08
  -0.1667 -0.2500  0.1667    1  1.34476E-07 kpt; spin; max resid(k); each band:
  9.53E-10 3.42E-08 8.28E-08 1.34E-07
  -0.0833 -0.2500  0.2500    1  2.35540E-07 kpt; spin; max resid(k); each band:
  1.20E-09 1.78E-08 3.81E-08 2.36E-07
  -0.1667 -0.1667  0.2500    1  1.59481E-07 kpt; spin; max resid(k); each band:
  1.01E-09 2.00E-08 1.59E-07 8.24E-08
  -0.0833 -0.1667  0.3333    1  2.04347E-07 kpt; spin; max resid(k); each band:
[...]
                      -3.33333333E-01 -4.16666667E-01  0.00000000E+00
                      -2.50000000E-01 -4.16666667E-01  8.33333333E-02
                      -1.66666667E-01 -4.16666667E-01  1.66666667E-01
                      -8.33333333E-02 -4.16666667E-01  2.50000000E-01
                      -8.33333333E-02  1.66666667E-01  0.00000000E+00
                      -1.66666667E-01  2.50000000E-01  0.00000000E+00
                      -2.50000000E-01  3.33333333E-01  0.00000000E+00
                      -3.33333333E-01  4.16666667E-01  0.00000000E+00
                      -4.16666667E-01  5.00000000E-01  0.00000000E+00
                      -3.33333333E-01  5.00000000E-01  8.33333333E-02
                      -2.50000000E-01  5.00000000E-01  1.66666667E-01
                      -8.33333333E-02  0.00000000E+00  0.00000000E+00
                      -2.50000000E-01  0.00000000E+00  0.00000000E+00
                      -4.16666667E-01  0.00000000E+00  0.00000000E+00
              kpt21   -8.33333333E-02 -1.66666667E-01  0.00000000E+00
                      -8.33333333E-02 -8.33333333E-02  8.33333333E-02
                      -8.33333333E-02 -3.33333333E-01  0.00000000E+00
                      -1.66666667E-01 -2.50000000E-01  0.00000000E+00
                      -8.33333333E-02 -2.50000000E-01  8.33333333E-02
                      -1.66666667E-01 -1.66666667E-01  8.33333333E-02
                      -8.33333333E-02 -1.66666667E-01  1.66666667E-01
                      -8.33333333E-02 -8.33333333E-02  2.50000000E-01
                      -8.33333333E-02  5.00000000E-01  0.00000000E+00
                      -1.66666667E-01 -4.16666667E-01  0.00000000E+00
                      -8.33333333E-02 -4.16666667E-01  8.33333333E-02
                      -2.50000000E-01 -3.33333333E-01  0.00000000E+00
                      -1.66666667E-01 -3.33333333E-01  8.33333333E-02
                      -8.33333333E-02 -3.33333333E-01  1.66666667E-01
                      -2.50000000E-01 -2.50000000E-01  8.33333333E-02
                      -1.66666667E-01 -2.50000000E-01  1.66666667E-01
                      -8.33333333E-02 -2.50000000E-01  2.50000000E-01
                      -1.66666667E-01 -1.66666667E-01  2.50000000E-01
                      -8.33333333E-02 -1.66666667E-01  3.33333333E-01
                      -8.33333333E-02 -8.33333333E-02  4.16666667E-01
                      -8.33333333E-02  3.33333333E-01  0.00000000E+00
                      -1.66666667E-01  4.16666667E-01  0.00000000E+00
                      -2.50000000E-01  5.00000000E-01  0.00000000E+00
                      -1.66666667E-01  5.00000000E-01  8.33333333E-02
                      -3.33333333E-01 -4.16666667E-01  0.00000000E+00
                      -2.50000000E-01 -4.16666667E-01  8.33333333E-02
                      -1.66666667E-01 -4.16666667E-01  1.66666667E-01
                      -8.33333333E-02 -4.16666667E-01  2.50000000E-01
                      -3.33333333E-01 -3.33333333E-01  8.33333333E-02
                      -2.50000000E-01 -3.33333333E-01  1.66666667E-01
                      -1.66666667E-01 -3.33333333E-01  2.50000000E-01
                      -8.33333333E-02 -3.33333333E-01  3.33333333E-01
                      -2.50000000E-01 -2.50000000E-01  2.50000000E-01
                      -1.66666667E-01 -2.50000000E-01  3.33333333E-01
                      -8.33333333E-02 -2.50000000E-01  4.16666667E-01
                      -1.66666667E-01 -1.66666667E-01  4.16666667E-01
                      -8.33333333E-02 -1.66666667E-01  5.00000000E-01
                      -8.33333333E-02 -8.33333333E-02 -4.16666667E-01
                      -8.33333333E-02  1.66666667E-01  0.00000000E+00
                      -1.66666667E-01  2.50000000E-01  0.00000000E+00
                      -2.50000000E-01  3.33333333E-01  0.00000000E+00
                      -3.33333333E-01  4.16666667E-01  0.00000000E+00
                      -4.16666667E-01  5.00000000E-01  0.00000000E+00
                      -3.33333333E-01  5.00000000E-01  8.33333333E-02
                      -2.50000000E-01  5.00000000E-01  1.66666667E-01
                      -4.16666667E-01 -4.16666667E-01  8.33333333E-02
                      -3.33333333E-01 -4.16666667E-01  1.66666667E-01
                      -2.50000000E-01 -4.16666667E-01  2.50000000E-01
                      -1.66666667E-01 -4.16666667E-01  3.33333333E-01
                      -8.33333333E-02 -4.16666667E-01  4.16666667E-01
              kpt31   -8.33333333E-02 -1.66666667E-01  0.00000000E+00
                      -8.33333333E-02 -8.33333333E-02  8.33333333E-02
                      -8.33333333E-02 -3.33333333E-01  0.00000000E+00
                      -1.66666667E-01 -2.50000000E-01  0.00000000E+00
                      -8.33333333E-02 -2.50000000E-01  8.33333333E-02
                      -1.66666667E-01 -1.66666667E-01  8.33333333E-02
                      -8.33333333E-02 -1.66666667E-01  1.66666667E-01
                      -8.33333333E-02 -8.33333333E-02  2.50000000E-01
                      -8.33333333E-02  5.00000000E-01  0.00000000E+00
                      -1.66666667E-01 -4.16666667E-01  0.00000000E+00
                      -8.33333333E-02 -4.16666667E-01  8.33333333E-02
                      -2.50000000E-01 -3.33333333E-01  0.00000000E+00
                      -1.66666667E-01 -3.33333333E-01  8.33333333E-02
                      -8.33333333E-02 -3.33333333E-01  1.66666667E-01
                      -2.50000000E-01 -2.50000000E-01  8.33333333E-02
                      -1.66666667E-01 -2.50000000E-01  1.66666667E-01
                      -8.33333333E-02 -2.50000000E-01  2.50000000E-01
                      -1.66666667E-01 -1.66666667E-01  2.50000000E-01
                      -8.33333333E-02 -1.66666667E-01  3.33333333E-01
                      -8.33333333E-02 -8.33333333E-02  4.16666667E-01
                      -8.33333333E-02  3.33333333E-01  0.00000000E+00
                      -1.66666667E-01  4.16666667E-01  0.00000000E+00
                      -2.50000000E-01  5.00000000E-01  0.00000000E+00
                      -1.66666667E-01  5.00000000E-01  8.33333333E-02
                      -3.33333333E-01 -4.16666667E-01  0.00000000E+00
                      -2.50000000E-01 -4.16666667E-01  8.33333333E-02
                      -1.66666667E-01 -4.16666667E-01  1.66666667E-01
                      -8.33333333E-02 -4.16666667E-01  2.50000000E-01
                      -3.33333333E-01 -3.33333333E-01  8.33333333E-02
                      -2.50000000E-01 -3.33333333E-01  1.66666667E-01
                      -1.66666667E-01 -3.33333333E-01  2.50000000E-01
                      -8.33333333E-02 -3.33333333E-01  3.33333333E-01
                      -2.50000000E-01 -2.50000000E-01  2.50000000E-01
                      -1.66666667E-01 -2.50000000E-01  3.33333333E-01
                      -8.33333333E-02 -2.50000000E-01  4.16666667E-01
                      -1.66666667E-01 -1.66666667E-01  4.16666667E-01
                      -8.33333333E-02 -1.66666667E-01  5.00000000E-01
                      -8.33333333E-02 -8.33333333E-02 -4.16666667E-01
                      -8.33333333E-02  1.66666667E-01  0.00000000E+00
                      -1.66666667E-01  2.50000000E-01  0.00000000E+00
                      -2.50000000E-01  3.33333333E-01  0.00000000E+00
                      -3.33333333E-01  4.16666667E-01  0.00000000E+00
                      -4.16666667E-01  5.00000000E-01  0.00000000E+00
                      -3.33333333E-01  5.00000000E-01  8.33333333E-02
                      -2.50000000E-01  5.00000000E-01  1.66666667E-01
                      -4.16666667E-01 -4.16666667E-01  8.33333333E-02
                      -3.33333333E-01 -4.16666667E-01  1.66666667E-01
                      -2.50000000E-01 -4.16666667E-01  2.50000000E-01
                      -1.66666667E-01 -4.16666667E-01  3.33333333E-01
                      -8.33333333E-02 -4.16666667E-01  4.16666667E-01
                       outvar_i_n : Printing only first  50 k-points.
         kptrlatt        6   -6    6     -6    6    6     -6   -6    6
          kptrlen      6.31800000E+01
P           mkmem11        28
P           mkmem21        91
P           mkmem31        91
            natom           2
            nband11         4
            nband21         4
            nband31         4
           ndtset           3
            ngfft          12      12      12
             nkpt11        28
             nkpt21        91
             nkpt31        91
            nstep         100
             nsym11        24
             nsym21         6
             nsym31         6
           ntypat           2
              occ11    2.000000  2.000000  2.000000  2.000000
              occ21    2.000000  2.000000  2.000000  2.000000
              occ31    2.000000  2.000000  2.000000  2.000000
        optforces           1
            rfdir11         1       1       1
            rfdir21         0       0       0
            rfdir31         0       0       0
            rprim      0.0000000000E+00  5.0000000000E-01  5.0000000000E-01
                       5.0000000000E-01  0.0000000000E+00  5.0000000000E-01
                       5.0000000000E-01  5.0000000000E-01  0.0000000000E+00
           shiftk      5.00000000E-01  5.00000000E-01  5.00000000E-01
          spgroup11       216
          spgroup21       160
          spgroup31       160
           strten11   -3.1101579835E-06 -3.1101579835E-06 -3.1101579835E-06
                       0.0000000000E+00  0.0000000000E+00  0.0000000000E+00
           strten21   -3.1779258706E-06 -3.1779258706E-06 -3.1779258706E-06
                       1.1358315417E-06  1.1358315417E-06  1.1358315417E-06
           strten31   -3.0567903558E-06 -3.0567903558E-06 -3.0567903558E-06
                      -1.1320893540E-06 -1.1320893540E-06 -1.1320893540E-06
           symafm11      1    1    1    1    1    1    1    1    1    1
                         1    1    1    1    1    1    1    1    1    1
                         1    1    1    1
           symafm21      1    1    1    1    1    1
           symafm31      1    1    1    1    1    1
           symrel11    1  0  0   0  1  0   0  0  1       0 -1  1   0 -1  0   1 -1  0
                      -1  0  0  -1  0  1  -1  1  0       0  1 -1   1  0 -1   0  0 -1
                      -1  0  0  -1  1  0  -1  0  1       0 -1  1   1 -1  0   0 -1  0
                       1  0  0   0  0  1   0  1  0       0  1 -1   0  0 -1   1  0 -1
                      -1  0  1  -1  1  0  -1  0  0       0 -1  0   1 -1  0   0 -1  1
                       1  0 -1   0  0 -1   0  1 -1       0  1  0   0  0  1   1  0  0
                       1  0 -1   0  1 -1   0  0 -1       0 -1  0   0 -1  1   1 -1  0
                      -1  0  1  -1  0  0  -1  1  0       0  1  0   1  0  0   0  0  1
                       0  0 -1   0  1 -1   1  0 -1       1 -1  0   0 -1  1   0 -1  0
                       0  0  1   1  0  0   0  1  0      -1  1  0  -1  0  0  -1  0  1
                       0  0  1   0  1  0   1  0  0       1 -1  0   0 -1  0   0 -1  1
                       0  0 -1   1  0 -1   0  1 -1      -1  1  0  -1  0  1  -1  0  0
           symrel21    1  0  0   0  1  0   0  0  1       1  0  0   0  0  1   0  1  0
                       0  1  0   0  0  1   1  0  0       0  1  0   1  0  0   0  0  1
                       0  0  1   1  0  0   0  1  0       0  0  1   0  1  0   1  0  0
           symrel31    1  0  0   0  1  0   0  0  1       1  0  0   0  0  1   0  1  0
                       0  1  0   0  0  1   1  0  0       0  1  0   1  0  0   0  0  1
                       0  0  1   1  0  0   0  1  0       0  0  1   0  1  0   1  0  0
            tnons11    0.0000000  0.0000000  0.0000000     0.0000000  0.0000000  0.0000000
                       0.0000000  0.0000000  0.0000000     0.0000000  0.0000000  0.0000000
                       0.0000000  0.0000000  0.0000000     0.0000000  0.0000000  0.0000000
                       0.0000000  0.0000000  0.0000000     0.0000000  0.0000000  0.0000000
                       0.0000000  0.0000000  0.0000000     0.0000000  0.0000000  0.0000000
                       0.0000000  0.0000000  0.0000000     0.0000000  0.0000000  0.0000000
                       0.0000000  0.0000000  0.0000000     0.0000000  0.0000000  0.0000000
                       0.0000000  0.0000000  0.0000000     0.0000000  0.0000000  0.0000000
                       0.0000000  0.0000000  0.0000000     0.0000000  0.0000000  0.0000000
                       0.0000000  0.0000000  0.0000000     0.0000000  0.0000000  0.0000000
                       0.0000000  0.0000000  0.0000000     0.0000000  0.0000000  0.0000000
                       0.0000000  0.0000000  0.0000000     0.0000000  0.0000000  0.0000000
            tnons21    0.0000000  0.0000000  0.0000000     0.0000000  0.0000000  0.0000000
                       0.0000000  0.0000000  0.0000000     0.0000000  0.0000000  0.0000000
                       0.0000000  0.0000000  0.0000000     0.0000000  0.0000000  0.0000000
            tnons31    0.0000000  0.0000000  0.0000000     0.0000000  0.0000000  0.0000000
                       0.0000000  0.0000000  0.0000000     0.0000000  0.0000000  0.0000000
                       0.0000000  0.0000000  0.0000000     0.0000000  0.0000000  0.0000000
           toldfe      1.00000000E-12 Hartree
            typat      1  2
              wtk11      0.02778    0.02778    0.02778    0.05556    0.02778    0.02778
                         0.05556    0.02778    0.05556    0.05556    0.02778    0.02778
                         0.02778    0.05556    0.02778    0.05556    0.05556    0.05556
                         0.02778    0.02778    0.02778    0.02778    0.02778    0.05556
                         0.05556    0.00926    0.00926    0.00926
              wtk21      0.01389    0.00694    0.01389    0.01389    0.01389    0.00694
                         0.01389    0.00694    0.01389    0.01389    0.01389    0.01389
                         0.01389    0.01389    0.00694    0.01389    0.01389    0.00694
                         0.01389    0.00694    0.01389    0.01389    0.01389    0.01389
                         0.01389    0.01389    0.01389    0.01389    0.00694    0.01389
                         0.01389    0.01389    0.00694    0.01389    0.01389    0.00694
                         0.01389    0.00694    0.01389    0.01389    0.01389    0.01389
                         0.01389    0.01389    0.01389    0.00694    0.01389    0.01389
                         0.01389    0.01389
              wtk31      0.01389    0.00694    0.01389    0.01389    0.01389    0.00694
                         0.01389    0.00694    0.01389    0.01389    0.01389    0.01389
                         0.01389    0.01389    0.00694    0.01389    0.01389    0.00694
                         0.01389    0.00694    0.01389    0.01389    0.01389    0.01389
                         0.01389    0.01389    0.01389    0.01389    0.00694    0.01389
                         0.01389    0.01389    0.00694    0.01389    0.01389    0.00694
                         0.01389    0.00694    0.01389    0.01389    0.01389    0.01389
                         0.01389    0.01389    0.01389    0.00694    0.01389    0.01389
                         0.01389    0.01389
                       outvars : Printing only first  50 k-points.
           xangst      0.0000000000E+00  0.0000000000E+00  0.0000000000E+00
                       1.3930590016E+00  1.3930590016E+00  1.3930590016E+00
            xcart      0.0000000000E+00  0.0000000000E+00  0.0000000000E+00
                       2.6325000000E+00  2.6325000000E+00  2.6325000000E+00
             xred      0.0000000000E+00  0.0000000000E+00  0.0000000000E+00
                       2.5000000000E-01  2.5000000000E-01  2.5000000000E-01
            znucl       13.00000   33.00000

================================================================================


- Timing analysis has been suppressed with timopt=0



================================================================================

 Suggested references for the acknowledgment of ABINIT usage.

 The users of ABINIT have little formal obligations with respect to the ABINIT group
 (those specified in the GNU General Public License, http://www.gnu.org/copyleft/gpl.txt).
 However, it is common practice in the scientific literature,
 to acknowledge the efforts of people that have made the research possible.
 In this spirit, please find below suggested citations of work written by ABINIT developers,
 corresponding to implementations inside of ABINIT that you have used in the present run.
 Note also that it will be of great value to readers of publications presenting these results,
 to read papers enabling them to understand the theoretical formalism and details
 of the ABINIT implementation.
 For information on why they are suggested, see also http://www.abinit.org/about/?text=acknowledgments.

 [1] ABINIT : First-principles approach of materials and nanosystem properties.
 X. Gonze, B. Amadon, P.-M. Anglade, J.-M. Beuken, F. Bottin, P. Boulanger, F. Bruneval,
 D. Caliste, R. Caracas, M. Cote, T. Deutsch, L. Genovese, Ph. Ghosez, M. Giantomassi
 S. Goedecker, D.R. Hamann, P. Hermet, F. Jollet, G. Jomard, S. Leroux, M. Mancini, S. Mazevet,
 M.J.T. Oliveira, G. Onida, Y. Pouillon, T. Rangel, G.-M. Rignanese, D. Sangalli, R. Shaltaf,
 M. Torrent, M.J. Verstraete, G. Zerah, J.W. Zwanziger
 Computer Phys. Comm. 180, 2582-2615 (2009).
 Comment : the third generic paper describing the ABINIT project.
 Note that a version of this paper, that is not formatted for Computer Phys. Comm. 
 is available at http://www.abinit.org/about/ABINIT_CPC_v10.pdf .
 The licence allows the authors to put it on the Web.

 [2] A brief introduction to the ABINIT software package.
 X. Gonze, G.-M. Rignanese, M. Verstraete, J.-M. Beuken, Y. Pouillon, R. Caracas, F. Jollet,
 M. Torrent, G. Zerah, M. Mikami, Ph. Ghosez, M. Veithen, J.-Y. Raty, V. Olevano, F. Bruneval,
 L. Reining, R. Godby, G. Onida, D.R. Hamann, and D.C. Allan.
 Z. Kristallogr. 220, 558-562 (2005).
 Comment : the second generic paper describing the ABINIT project. Note that this paper
 should be cited especially if you are using the GW part of ABINIT, as several authors
 of this part are not in the list of authors of the first or third paper.
 The .pdf of the latter paper is available at http://www.abinit.org/about/zfk_0505-06_558-562.pdf.
 Note that it should not redistributed (Copyright by Oldenburg Wissenshaftverlag,
 the licence allows the authors to put it on the Web).


 And optionally :

 [3] First-principles computation of material properties : the ABINIT software project. 
 X. Gonze, J.-M. Beuken, R. Caracas, F. Detraux, M. Fuchs, G.-M. Rignanese, L. Sindic,
 M. Verstraete, G. Zerah, F. Jollet, M. Torrent, A. Roy, M. Mikami, Ph. Ghosez, J.-Y. Raty, D.C. Allan.
 Computational Materials Science 25, 478-492 (2002). http://dx.doi.org/10.1016/S0927-0256(02)00325-7
 Comment : the original paper describing the ABINIT project.

 [4] Fast radix 2, 3, 4 and 5 kernels for Fast Fourier Transformations
 on computers with overlapping multiply-add instructions.
 S. Goedecker, SIAM J. on Scientific Computing 18, 1605 (1997).

 [5] Towards a potential-based conjugate gradient algorithm for order-N self-consistent
 total energy calculations.
 X. Gonze, Phys. Rev. B 54, 4383 (1996).
 Comment : The potential-based conjugate-gradient algorithm, used when iscf=5, is not published.
 However, many elements of this algorithm have been explained in the paper above.
-
- Proc.   0 individual time (sec): cpu=         13.0  wall=         13.0

================================================================================

 Calculation completed.
.Delivered   18 WARNINGs and   6 COMMENTs to log file.
+Overall time at end (sec) : cpu=         13.0  wall=         13.0
