
.Version 7.10.4 of ABINIT 
.(MPI version, prepared for a x86_64_linux_gnu4.7 computer) 

.Copyright (C) 1998-2014 ABINIT group . 
 ABINIT comes with ABSOLUTELY NO WARRANTY.
 It is free software, and you are welcome to redistribute it
 under certain conditions (GNU General Public License,
 see ~abinit/COPYING or http://www.gnu.org/copyleft/gpl.txt).

 ABINIT is a project of the Universite Catholique de Louvain,
 Corning Inc. and other collaborators, see ~abinit/doc/developers/contributors.txt .
 Please read ~abinit/doc/users/acknowledgments.html for suggested
 acknowledgments of the ABINIT effort.
 For more information, see http://www.abinit.org .

.Starting date : Sun  1 Feb 2015.
- ( at 15h03 )
  
- input  file    -> tnlo_8.in
- output file    -> tnlo_8.out
- root for input  files -> tnlo_8i
- root for output files -> tnlo_8o


 Symmetries : space group F-4 3 m (#216); Bravais cF (face-center cubic)
================================================================================
 Values of the parameters that define the memory need of the present run
   intxc =         0  ionmov =         0    iscf =        -2 xclevel =         1
  lmnmax =         2   lnmax =         2   mband =         4  mffmem =         1
P  mgfft =        12   mkmem =       432 mpssoang=         3     mpw =        80
  mqgrid =      3001   natom =         2    nfft =      1728    nkpt =       432
  nloalg =         4  nspden =         1 nspinor =         1  nsppol =         1
    nsym =        24  n1xccc =      2501  ntypat =         2  occopt =         1
================================================================================
P This job should need less than                       3.863 Mbytes of memory.
  Rough estimation (10% accuracy) of disk space for files :
_ WF disk file :      2.111 Mbytes ; DEN or POT disk file :      0.015 Mbytes.
================================================================================

--------------------------------------------------------------------------------
------------- Echo of variables that govern the present computation ------------
--------------------------------------------------------------------------------
-
- outvars: echo of selected default values                                      
-   accesswff0 =  0 , fftalg0 =112 , wfoptalg0 =  0
-
- outvars: echo of global parameters not present in the input file              
-  max_nthreads =    0
-
 -outvars: echo values of preprocessed input variables --------
            acell      1.0530000000E+01  1.0530000000E+01  1.0530000000E+01 Bohr
              amu      2.69815390E+01  7.49215900E+01
          dilatmx      1.05000000E+00
             ecut      2.80000000E+00 Hartree
           ecutsm      5.00000000E-01 Hartree
-          fftalg         112
           irdden           1
           irdwfk           1
             iscf          -2
              ixc           3
              kpt     -8.33333333E-02 -1.66666667E-01  0.00000000E+00
                      -1.66666667E-01 -8.33333333E-02  0.00000000E+00
                      -8.33333333E-02 -8.33333333E-02  8.33333333E-02
                      -8.33333333E-02 -3.33333333E-01  0.00000000E+00
                      -1.66666667E-01 -2.50000000E-01  0.00000000E+00
                      -8.33333333E-02 -2.50000000E-01  8.33333333E-02
                      -2.50000000E-01 -1.66666667E-01  0.00000000E+00
                      -1.66666667E-01 -1.66666667E-01  8.33333333E-02
                      -8.33333333E-02 -1.66666667E-01  1.66666667E-01
                      -3.33333333E-01 -8.33333333E-02  0.00000000E+00
                      -2.50000000E-01 -8.33333333E-02  8.33333333E-02
                      -1.66666667E-01 -8.33333333E-02  1.66666667E-01
                      -8.33333333E-02 -8.33333333E-02  2.50000000E-01
                      -8.33333333E-02  5.00000000E-01  0.00000000E+00
                      -1.66666667E-01 -4.16666667E-01  0.00000000E+00
                      -8.33333333E-02 -4.16666667E-01  8.33333333E-02
                      -2.50000000E-01 -3.33333333E-01  0.00000000E+00
                      -1.66666667E-01 -3.33333333E-01  8.33333333E-02
                      -8.33333333E-02 -3.33333333E-01  1.66666667E-01
                      -3.33333333E-01 -2.50000000E-01  0.00000000E+00
                      -2.50000000E-01 -2.50000000E-01  8.33333333E-02
                      -1.66666667E-01 -2.50000000E-01  1.66666667E-01
                      -8.33333333E-02 -2.50000000E-01  2.50000000E-01
                      -4.16666667E-01 -1.66666667E-01  0.00000000E+00
                      -3.33333333E-01 -1.66666667E-01  8.33333333E-02
                      -2.50000000E-01 -1.66666667E-01  1.66666667E-01
                      -1.66666667E-01 -1.66666667E-01  2.50000000E-01
                      -8.33333333E-02 -1.66666667E-01  3.33333333E-01
                       5.00000000E-01 -8.33333333E-02  0.00000000E+00
                      -4.16666667E-01 -8.33333333E-02  8.33333333E-02
                      -3.33333333E-01 -8.33333333E-02  1.66666667E-01
                      -2.50000000E-01 -8.33333333E-02  2.50000000E-01
                      -1.66666667E-01 -8.33333333E-02  3.33333333E-01
                      -8.33333333E-02 -8.33333333E-02  4.16666667E-01
                      -8.33333333E-02  3.33333333E-01  0.00000000E+00
                      -1.66666667E-01  4.16666667E-01  0.00000000E+00
                      -8.33333333E-02  4.16666667E-01  8.33333333E-02
                      -2.50000000E-01  5.00000000E-01  0.00000000E+00
                      -1.66666667E-01  5.00000000E-01  8.33333333E-02
                      -8.33333333E-02  5.00000000E-01  1.66666667E-01
                      -3.33333333E-01 -4.16666667E-01  0.00000000E+00
                      -2.50000000E-01 -4.16666667E-01  8.33333333E-02
                      -1.66666667E-01 -4.16666667E-01  1.66666667E-01
                      -8.33333333E-02 -4.16666667E-01  2.50000000E-01
                      -4.16666667E-01 -3.33333333E-01  0.00000000E+00
                      -3.33333333E-01 -3.33333333E-01  8.33333333E-02
                      -2.50000000E-01 -3.33333333E-01  1.66666667E-01
                      -1.66666667E-01 -3.33333333E-01  2.50000000E-01
                      -8.33333333E-02 -3.33333333E-01  3.33333333E-01
                       5.00000000E-01 -2.50000000E-01  0.00000000E+00
                       outvar_i_n : Printing only first  50 k-points.
           kptopt           2
         kptrlatt        6   -6    6     -6    6    6     -6   -6    6
          kptrlen      6.31800000E+01
P           mkmem         432
            natom           2
            nband           4
            ngfft          12      12      12
             nkpt         432
            nstep         100
             nsym          24
           ntypat           2
            rprim      0.0000000000E+00  5.0000000000E-01  5.0000000000E-01
                       5.0000000000E-01  0.0000000000E+00  5.0000000000E-01
                       5.0000000000E-01  5.0000000000E-01  0.0000000000E+00
           shiftk      5.00000000E-01  5.00000000E-01  5.00000000E-01
          spgroup         216
           symrel      1  0  0   0  1  0   0  0  1       0 -1  1   0 -1  0   1 -1  0
                      -1  0  0  -1  0  1  -1  1  0       0  1 -1   1  0 -1   0  0 -1
                      -1  0  0  -1  1  0  -1  0  1       0 -1  1   1 -1  0   0 -1  0
                       1  0  0   0  0  1   0  1  0       0  1 -1   0  0 -1   1  0 -1
                      -1  0  1  -1  1  0  -1  0  0       0 -1  0   1 -1  0   0 -1  1
                       1  0 -1   0  0 -1   0  1 -1       0  1  0   0  0  1   1  0  0
                       1  0 -1   0  1 -1   0  0 -1       0 -1  0   0 -1  1   1 -1  0
                      -1  0  1  -1  0  0  -1  1  0       0  1  0   1  0  0   0  0  1
                       0  0 -1   0  1 -1   1  0 -1       1 -1  0   0 -1  1   0 -1  0
                       0  0  1   1  0  0   0  1  0      -1  1  0  -1  0  0  -1  0  1
                       0  0  1   0  1  0   1  0  0       1 -1  0   0 -1  0   0 -1  1
                       0  0 -1   1  0 -1   0  1 -1      -1  1  0  -1  0  1  -1  0  0
           tolwfr      1.00000000E-22
            typat      1  2
              wtk        0.00231    0.00231    0.00231    0.00231    0.00231    0.00231
                         0.00231    0.00231    0.00231    0.00231    0.00231    0.00231
                         0.00231    0.00231    0.00231    0.00231    0.00231    0.00231
                         0.00231    0.00231    0.00231    0.00231    0.00231    0.00231
                         0.00231    0.00231    0.00231    0.00231    0.00231    0.00231
                         0.00231    0.00231    0.00231    0.00231    0.00231    0.00231
                         0.00231    0.00231    0.00231    0.00231    0.00231    0.00231
                         0.00231    0.00231    0.00231    0.00231    0.00231    0.00231
                         0.00231    0.00231
                       outvars : Printing only first  50 k-points.
           xangst      0.0000000000E+00  0.0000000000E+00  0.0000000000E+00
                       1.3930590016E+00  1.3930590016E+00  1.3930590016E+00
            xcart      0.0000000000E+00  0.0000000000E+00  0.0000000000E+00
                       2.6325000000E+00  2.6325000000E+00  2.6325000000E+00
             xred      0.0000000000E+00  0.0000000000E+00  0.0000000000E+00
                       2.5000000000E-01  2.5000000000E-01  2.5000000000E-01
            znucl       13.00000   33.00000

================================================================================

 chkinp: Checking input parameters for consistency.

================================================================================
== DATASET  1 ==================================================================
-   nproc =    1

 Exchange-correlation functional for the present dataset will be:
  LDA: old Teter (4/91) fit to Ceperley-Alder data - ixc=3

 Real(R)+Recip(G) space primitive vectors, cartesian coordinates (Bohr,Bohr^-1):
 R(1)=  0.0000000  5.2650000  5.2650000  G(1)= -0.0949668  0.0949668  0.0949668
 R(2)=  5.2650000  0.0000000  5.2650000  G(2)=  0.0949668 -0.0949668  0.0949668
 R(3)=  5.2650000  5.2650000  0.0000000  G(3)=  0.0949668  0.0949668 -0.0949668
 Unit cell volume ucvol=  2.9189397E+02 bohr^3
 Angles (23,13,12)=  6.00000000E+01  6.00000000E+01  6.00000000E+01 degrees

 getcut: wavevector=  0.0000  0.0000  0.0000  ngfft=  12  12  12
         ecut(hartree)=      3.087   => boxcut(ratio)=   2.03767

--- Pseudopotential description ------------------------------------------------
- pspini: atom type   1  psp file is /data/ABINIT/testf_gcc47/trunk_7.10.4-training/tests/Psps_for_tests/13al.pspnc
- pspatm: opening atomic psp file    /data/ABINIT/testf_gcc47/trunk_7.10.4-training/tests/Psps_for_tests/13al.pspnc
-  Troullier-Martins psp for element  Al        Thu Oct 27 17:31:05 EDT 1994
- 13.00000   3.00000    940714                znucl, zion, pspdat
    1    1    2    2      2001   0.00000      pspcod,pspxc,lmax,lloc,mmax,r2well
    0   4.657  11.889    1   2.2761078        l,e99.0,e99.9,nproj,rcpsp
   0.00000000   0.00000000   0.00000000   0.00000000     rms, ekb1, ekb2, epsatm
    1   1.829   2.761    1   2.2761078        l,e99.0,e99.9,nproj,rcpsp
   0.00000000   0.00000000   0.00000000   0.00000000     rms, ekb1, ekb2, epsatm
    2   0.000   0.000    0   2.2761078        l,e99.0,e99.9,nproj,rcpsp
   0.00000000   0.00000000   0.00000000   0.00000000     rms, ekb1, ekb2, epsatm
    2.09673076353074    0.12648111154518    1.01742091001718   rchrg,fchrg,qchrg
 pspatm: epsatm=    0.22155260
         --- l  ekb(1:nproj) -->
             0    2.540658
             1    1.353815
 pspatm: atomic psp has been read  and splines computed

- pspini: atom type   2  psp file is /data/ABINIT/testf_gcc47/trunk_7.10.4-training/tests/Psps_for_tests/33as.pspnc
- pspatm: opening atomic psp file    /data/ABINIT/testf_gcc47/trunk_7.10.4-training/tests/Psps_for_tests/33as.pspnc
-  Troullier-Martins psp for element  As        Thu Oct 27 17:37:14 EDT 1994
- 33.00000   5.00000    940714                znucl, zion, pspdat
    1    1    1    1      2001   0.00000      pspcod,pspxc,lmax,lloc,mmax,r2well
    0   4.772  10.829    1   2.5306160        l,e99.0,e99.9,nproj,rcpsp
   0.00000000   0.00000000   0.00000000   0.00000000     rms, ekb1, ekb2, epsatm
    1   2.745   5.580    0   2.5306160        l,e99.0,e99.9,nproj,rcpsp
   0.00000000   0.00000000   0.00000000   0.00000000     rms, ekb1, ekb2, epsatm
    2.05731715564010    0.36322996461007    2.76014815959125   rchrg,fchrg,qchrg
 pspatm: epsatm=   27.20579911
         --- l  ekb(1:nproj) -->
             0    0.838751
 pspatm: atomic psp has been read  and splines computed

--------------------------------------------------------------------------------

-inwffil : will read wavefunctions from disk file tnlo_8i_WFK
- newkpt: read input wf with ikpt,npw=   1      68, make ikpt,npw=   1      68
- newkpt: read input wf with ikpt,npw=   1      68, make ikpt,npw=   2      68
- newkpt: read input wf with ikpt,npw=   1      68, make ikpt,npw=   3      68
- newkpt: read input wf with ikpt,npw=   2      74, make ikpt,npw=   4      74
- newkpt: read input wf with ikpt,npw=   3      74, make ikpt,npw=   5      74
- newkpt: read input wf with ikpt,npw=   4      73, make ikpt,npw=   6      73
- newkpt: read input wf with ikpt,npw=   3      74, make ikpt,npw=   7      74
- newkpt: read input wf with ikpt,npw=   3      74, make ikpt,npw=   8      74
- newkpt: read input wf with ikpt,npw=   4      73, make ikpt,npw=   9      73
- newkpt: read input wf with ikpt,npw=   2      74, make ikpt,npw=  10      74
- newkpt: read input wf with ikpt,npw=   4      73, make ikpt,npw=  11      73
- newkpt: read input wf with ikpt,npw=   4      73, make ikpt,npw=  12      73
- newkpt: read input wf with ikpt,npw=   2      74, make ikpt,npw=  13      74
- newkpt: read input wf with ikpt,npw=   5      74, make ikpt,npw=  14      74
- newkpt: read input wf with ikpt,npw=   6      75, make ikpt,npw=  15      75
- newkpt: read input wf with ikpt,npw=   7      76, make ikpt,npw=  16      76
- newkpt: read input wf with ikpt,npw=   8      77, make ikpt,npw=  17      77
- newkpt: read input wf with ikpt,npw=   9      77, make ikpt,npw=  18      77
- newkpt: read input wf with ikpt,npw=  10      75, make ikpt,npw=  19      75
- newkpt: read input wf with ikpt,npw=   8      77, make ikpt,npw=  20      77
- newkpt: read input wf with ikpt,npw=   8      77, make ikpt,npw=  21      77
- newkpt: read input wf with ikpt,npw=   9      77, make ikpt,npw=  22      77
- newkpt: read input wf with ikpt,npw=  10      75, make ikpt,npw=  23      75
- newkpt: read input wf with ikpt,npw=   6      75, make ikpt,npw=  24      75
- newkpt: read input wf with ikpt,npw=   9      77, make ikpt,npw=  25      77
- newkpt: read input wf with ikpt,npw=   9      77, make ikpt,npw=  26      77
- newkpt: read input wf with ikpt,npw=   6      75, make ikpt,npw=  27      75
- newkpt: read input wf with ikpt,npw=   7      76, make ikpt,npw=  28      76
- newkpt: read input wf with ikpt,npw=   5      74, make ikpt,npw=  29      74
- newkpt: read input wf with ikpt,npw=   7      76, make ikpt,npw=  30      76
- newkpt: read input wf with ikpt,npw=  10      75, make ikpt,npw=  31      75
- newkpt: read input wf with ikpt,npw=  10      75, make ikpt,npw=  32      75
- newkpt: read input wf with ikpt,npw=   7      76, make ikpt,npw=  33      76
- newkpt: read input wf with ikpt,npw=   5      74, make ikpt,npw=  34      74
- newkpt: read input wf with ikpt,npw=  11      74, make ikpt,npw=  35      74
- newkpt: read input wf with ikpt,npw=  12      79, make ikpt,npw=  36      79
- newkpt: read input wf with ikpt,npw=   7      76, make ikpt,npw=  37      76
- newkpt: read input wf with ikpt,npw=  13      77, make ikpt,npw=  38      77
- newkpt: read input wf with ikpt,npw=  14      78, make ikpt,npw=  39      78
- newkpt: read input wf with ikpt,npw=  14      78, make ikpt,npw=  40      78
- newkpt: read input wf with ikpt,npw=  15      79, make ikpt,npw=  41      79
- newkpt: read input wf with ikpt,npw=  16      80, make ikpt,npw=  42      80
- newkpt: read input wf with ikpt,npw=  17      77, make ikpt,npw=  43      77
- newkpt: read input wf with ikpt,npw=  18      77, make ikpt,npw=  44      77
- newkpt: read input wf with ikpt,npw=  15      79, make ikpt,npw=  45      79
- newkpt: read input wf with ikpt,npw=  15      79, make ikpt,npw=  46      79
- newkpt: read input wf with ikpt,npw=  16      80, make ikpt,npw=  47      80
- newkpt: read input wf with ikpt,npw=  17      77, make ikpt,npw=  48      77
- newkpt: read input wf with ikpt,npw=  18      77, make ikpt,npw=  49      77
- newkpt: read input wf with ikpt,npw=  13      77, make ikpt,npw=  50      77
- newkpt : prtvol=0 or 1, do not print more k-points.


================================================================================
 prteigrs : about to open file tnlo_8o_EIG
 Non-SCF case, kpt    1 ( -0.08333 -0.16667  0.00000), residuals and eigenvalues=
  3.38E-23  1.53E-23  5.47E-24  4.68E-23
 -3.4039E-01  2.8414E-02  7.4207E-02  7.8555E-02
 Non-SCF case, kpt    2 ( -0.16667 -0.08333  0.00000), residuals and eigenvalues=
  3.38E-23  1.53E-23  5.47E-24  4.68E-23
 -3.4039E-01  2.8414E-02  7.4207E-02  7.8555E-02
 Non-SCF case, kpt    3 ( -0.08333 -0.08333  0.08333), residuals and eigenvalues=
  3.38E-23  1.53E-23  5.47E-24  4.68E-23
 -3.4039E-01  2.8414E-02  7.4207E-02  7.8555E-02
 Non-SCF case, kpt    4 ( -0.08333 -0.33333  0.00000), residuals and eigenvalues=
  9.54E-23  4.29E-23  2.82E-23  5.35E-23
 -3.1616E-01 -6.1446E-02  5.8989E-02  6.0195E-02
 Non-SCF case, kpt    5 ( -0.16667 -0.25000  0.00000), residuals and eigenvalues=
  8.01E-23  5.15E-23  2.46E-23  2.85E-23
 -3.2699E-01 -1.0896E-02  5.2205E-02  5.2652E-02
 Non-SCF case, kpt    6 ( -0.08333 -0.25000  0.08333), residuals and eigenvalues=
  7.49E-23  3.31E-23  3.17E-23  7.48E-23
 -3.2127E-01 -3.5279E-02  3.4139E-02  6.8693E-02
 Non-SCF case, kpt    7 ( -0.25000 -0.16667  0.00000), residuals and eigenvalues=
  8.01E-23  5.15E-23  2.46E-23  2.85E-23
 -3.2699E-01 -1.0896E-02  5.2205E-02  5.2652E-02
 Non-SCF case, kpt    8 ( -0.16667 -0.16667  0.08333), residuals and eigenvalues=
  8.01E-23  5.15E-23  2.46E-23  2.85E-23
 -3.2699E-01 -1.0896E-02  5.2205E-02  5.2652E-02
 Non-SCF case, kpt    9 ( -0.08333 -0.16667  0.16667), residuals and eigenvalues=
  7.49E-23  3.31E-23  3.17E-23  7.49E-23
 -3.2127E-01 -3.5279E-02  3.4139E-02  6.8693E-02
 Non-SCF case, kpt   10 ( -0.33333 -0.08333  0.00000), residuals and eigenvalues=
  9.54E-23  4.29E-23  2.82E-23  5.35E-23
 -3.1616E-01 -6.1446E-02  5.8989E-02  6.0195E-02
 Non-SCF case, kpt   11 ( -0.25000 -0.08333  0.08333), residuals and eigenvalues=
  7.49E-23  3.31E-23  3.17E-23  7.49E-23
 -3.2127E-01 -3.5279E-02  3.4139E-02  6.8693E-02
 Non-SCF case, kpt   12 ( -0.16667 -0.08333  0.16667), residuals and eigenvalues=
  7.49E-23  3.31E-23  3.17E-23  7.49E-23
 -3.2127E-01 -3.5279E-02  3.4139E-02  6.8693E-02
 Non-SCF case, kpt   13 ( -0.08333 -0.08333  0.25000), residuals and eigenvalues=
  9.54E-23  4.30E-23  2.82E-23  5.36E-23
 -3.1616E-01 -6.1446E-02  5.8989E-02  6.0195E-02
 Non-SCF case, kpt   14 ( -0.08333  0.50000  0.00000), residuals and eigenvalues=
  9.00E-23  1.91E-23  6.24E-23  1.30E-23
 -2.9336E-01 -1.1361E-01  4.5379E-02  5.7536E-02
 Non-SCF case, kpt   15 ( -0.16667 -0.41667  0.00000), residuals and eigenvalues=
  7.81E-24  2.26E-23  2.72E-23  1.79E-23
 -3.0051E-01 -8.2056E-02  2.4853E-02  4.3316E-02
 Non-SCF case, kpt   16 ( -0.08333 -0.41667  0.08333), residuals and eigenvalues=
  1.24E-23  1.71E-23  1.75E-23  5.21E-23
 -2.9464E-01 -9.9974E-02  2.0230E-02  5.2161E-02
 Non-SCF case, kpt   17 ( -0.25000 -0.33333  0.00000), residuals and eigenvalues=
  5.37E-24  1.89E-23  9.83E-23  7.25E-24
 -3.0829E-01 -4.7423E-02  2.7418E-02  3.3512E-02
 Non-SCF case, kpt   18 ( -0.16667 -0.33333  0.08333), residuals and eigenvalues=
  8.55E-23  1.68E-23  1.06E-23  1.40E-23
 -3.0394E-01 -6.2616E-02  1.1399E-02  4.1051E-02
 Non-SCF case, kpt   19 ( -0.08333 -0.33333  0.16667), residuals and eigenvalues=
  7.76E-23  2.21E-23  8.33E-23  1.51E-23
 -2.9587E-01 -8.0147E-02 -1.0537E-02  4.9287E-02
 Non-SCF case, kpt   20 ( -0.33333 -0.25000  0.00000), residuals and eigenvalues=
  5.37E-24  1.89E-23  9.83E-23  7.25E-24
 -3.0829E-01 -4.7423E-02  2.7418E-02  3.3512E-02
 Non-SCF case, kpt   21 ( -0.25000 -0.25000  0.08333), residuals and eigenvalues=
  5.37E-24  1.89E-23  9.83E-23  7.25E-24
 -3.0829E-01 -4.7423E-02  2.7418E-02  3.3512E-02
 Non-SCF case, kpt   22 ( -0.16667 -0.25000  0.16667), residuals and eigenvalues=
  8.55E-23  1.68E-23  1.06E-23  1.40E-23
 -3.0394E-01 -6.2616E-02  1.1399E-02  4.1051E-02
 Non-SCF case, kpt   23 ( -0.08333 -0.25000  0.25000), residuals and eigenvalues=
  7.76E-23  2.21E-23  8.33E-23  1.51E-23
 -2.9587E-01 -8.0147E-02 -1.0537E-02  4.9287E-02
 Non-SCF case, kpt   24 ( -0.41667 -0.16667  0.00000), residuals and eigenvalues=
  7.81E-24  2.26E-23  2.72E-23  1.79E-23
 -3.0051E-01 -8.2056E-02  2.4853E-02  4.3316E-02
 Non-SCF case, kpt   25 ( -0.33333 -0.16667  0.08333), residuals and eigenvalues=
  8.55E-23  1.68E-23  1.06E-23  1.40E-23
 -3.0394E-01 -6.2616E-02  1.1399E-02  4.1051E-02
 Non-SCF case, kpt   26 ( -0.25000 -0.16667  0.16667), residuals and eigenvalues=
  8.55E-23  1.68E-23  1.06E-23  1.41E-23
 -3.0394E-01 -6.2616E-02  1.1399E-02  4.1051E-02
 Non-SCF case, kpt   27 ( -0.16667 -0.16667  0.25000), residuals and eigenvalues=
  7.81E-24  2.26E-23  2.72E-23  1.79E-23
 -3.0051E-01 -8.2056E-02  2.4853E-02  4.3316E-02
 Non-SCF case, kpt   28 ( -0.08333 -0.16667  0.33333), residuals and eigenvalues=
  1.24E-23  1.71E-23  1.75E-23  5.21E-23
 -2.9464E-01 -9.9974E-02  2.0230E-02  5.2161E-02
 Non-SCF case, kpt   29 (  0.50000 -0.08333  0.00000), residuals and eigenvalues=
  9.00E-23  1.91E-23  6.24E-23  1.30E-23
 -2.9336E-01 -1.1361E-01  4.5379E-02  5.7536E-02
 Non-SCF case, kpt   30 ( -0.41667 -0.08333  0.08333), residuals and eigenvalues=
  1.24E-23  1.71E-23  1.75E-23  5.21E-23
 -2.9464E-01 -9.9974E-02  2.0230E-02  5.2161E-02
 Non-SCF case, kpt   31 ( -0.33333 -0.08333  0.16667), residuals and eigenvalues=
  7.76E-23  2.21E-23  8.33E-23  1.51E-23
 -2.9587E-01 -8.0147E-02 -1.0537E-02  4.9287E-02
 Non-SCF case, kpt   32 ( -0.25000 -0.08333  0.25000), residuals and eigenvalues=
  7.76E-23  2.21E-23  8.32E-23  1.51E-23
 -2.9587E-01 -8.0147E-02 -1.0537E-02  4.9287E-02
 Non-SCF case, kpt   33 ( -0.16667 -0.08333  0.33333), residuals and eigenvalues=
  1.24E-23  1.71E-23  1.75E-23  5.22E-23
 -2.9464E-01 -9.9974E-02  2.0230E-02  5.2161E-02
 Non-SCF case, kpt   34 ( -0.08333 -0.08333  0.41667), residuals and eigenvalues=
  8.99E-23  1.91E-23  6.25E-23  1.30E-23
 -2.9336E-01 -1.1361E-01  4.5379E-02  5.7536E-02
 Non-SCF case, kpt   35 ( -0.08333  0.33333  0.00000), residuals and eigenvalues=
  3.49E-23  2.80E-23  1.77E-23  2.10E-23
 -3.0661E-01 -8.5436E-02  4.2994E-02  6.8548E-02
 Non-SCF case, kpt   36 ( -0.16667  0.41667  0.00000), residuals and eigenvalues=
  6.38E-24  2.20E-23  5.79E-24  6.83E-24
 -2.8834E-01 -1.0754E-01  5.9884E-03  5.0611E-02
 Non-SCF case, kpt   37 ( -0.08333  0.41667  0.08333), residuals and eigenvalues=
  1.24E-23  1.71E-23  1.75E-23  5.21E-23
 -2.9464E-01 -9.9974E-02  2.0230E-02  5.2161E-02
 Non-SCF case, kpt   38 ( -0.25000  0.50000  0.00000), residuals and eigenvalues=
  9.25E-24  2.38E-23  5.56E-24  9.83E-23
 -2.8465E-01 -9.3770E-02 -1.1850E-02  3.1088E-02
 Non-SCF case, kpt   39 ( -0.16667  0.50000  0.08333), residuals and eigenvalues=
  5.61E-24  1.45E-23  8.12E-23  6.74E-23
 -2.8368E-01 -1.0233E-01 -1.0175E-02  3.3672E-02
 Non-SCF case, kpt   40 ( -0.08333  0.50000  0.16667), residuals and eigenvalues=
  5.61E-24  1.45E-23  8.12E-23  6.74E-23
 -2.8368E-01 -1.0233E-01 -1.0175E-02  3.3672E-02
 Non-SCF case, kpt   41 ( -0.33333 -0.41667  0.00000), residuals and eigenvalues=
  1.44E-23  1.52E-23  4.67E-23  4.14E-23
 -2.8832E-01 -8.0807E-02  9.0059E-03  1.9363E-02
 Non-SCF case, kpt   42 ( -0.25000 -0.41667  0.08333), residuals and eigenvalues=
  8.58E-24  1.34E-23  5.24E-24  8.87E-24
 -2.8574E-01 -8.4801E-02 -8.0294E-03  1.8040E-02
 Non-SCF case, kpt   43 ( -0.16667 -0.41667  0.16667), residuals and eigenvalues=
  4.39E-23  1.84E-23  3.31E-23  2.38E-23
 -2.8159E-01 -9.0859E-02 -2.5611E-02  1.8358E-02
 Non-SCF case, kpt   44 ( -0.08333 -0.41667  0.25000), residuals and eigenvalues=
  4.84E-23  3.72E-23  1.68E-23  3.31E-23
 -2.7731E-01 -9.5044E-02 -3.7729E-02  2.4585E-02
 Non-SCF case, kpt   45 ( -0.41667 -0.33333  0.00000), residuals and eigenvalues=
  1.44E-23  1.52E-23  4.67E-23  4.14E-23
 -2.8832E-01 -8.0807E-02  9.0059E-03  1.9363E-02
 Non-SCF case, kpt   46 ( -0.33333 -0.33333  0.08333), residuals and eigenvalues=
  1.44E-23  1.52E-23  4.67E-23  4.14E-23
 -2.8832E-01 -8.0807E-02  9.0059E-03  1.9363E-02
 Non-SCF case, kpt   47 ( -0.25000 -0.33333  0.16667), residuals and eigenvalues=
  8.58E-24  1.34E-23  5.24E-24  8.86E-24
 -2.8574E-01 -8.4801E-02 -8.0294E-03  1.8040E-02
 Non-SCF case, kpt   48 ( -0.16667 -0.33333  0.25000), residuals and eigenvalues=
  4.39E-23  1.84E-23  3.31E-23  2.38E-23
 -2.8159E-01 -9.0859E-02 -2.5611E-02  1.8358E-02
 Non-SCF case, kpt   49 ( -0.08333 -0.33333  0.33333), residuals and eigenvalues=
  4.84E-23  3.72E-23  1.68E-23  3.31E-23
 -2.7731E-01 -9.5044E-02 -3.7729E-02  2.4585E-02
 Non-SCF case, kpt   50 (  0.50000 -0.25000  0.00000), residuals and eigenvalues=
  9.26E-24  2.38E-23  5.57E-24  9.83E-23
 -2.8465E-01 -9.3770E-02 -1.1850E-02  3.1088E-02
 prteigrs : prtvol=0 or 1, do not print more k-points.

================================================================================

 ----iterations are completed or convergence reached----

 Mean square residual over all n,k,spin=   3.4541E-23; max=  9.8356E-23
  -0.0833 -0.1667  0.0000    1  4.67642E-23 kpt; spin; max resid(k); each band:
  3.38E-23 1.53E-23 5.47E-24 4.68E-23
  -0.1667 -0.0833  0.0000    1  4.67738E-23 kpt; spin; max resid(k); each band:
  3.38E-23 1.53E-23 5.47E-24 4.68E-23
  -0.0833 -0.0833  0.0833    1  4.67712E-23 kpt; spin; max resid(k); each band:
  3.38E-23 1.53E-23 5.47E-24 4.68E-23
  -0.0833 -0.3333  0.0000    1  9.53880E-23 kpt; spin; max resid(k); each band:
  9.54E-23 4.29E-23 2.82E-23 5.35E-23
  -0.1667 -0.2500  0.0000    1  8.01358E-23 kpt; spin; max resid(k); each band:
  8.01E-23 5.15E-23 2.46E-23 2.85E-23
  -0.0833 -0.2500  0.0833    1  7.49364E-23 kpt; spin; max resid(k); each band:
  7.49E-23 3.31E-23 3.17E-23 7.48E-23
  -0.2500 -0.1667  0.0000    1  8.01355E-23 kpt; spin; max resid(k); each band:
  8.01E-23 5.15E-23 2.46E-23 2.85E-23
  -0.1667 -0.1667  0.0833    1  8.01465E-23 kpt; spin; max resid(k); each band:
  8.01E-23 5.15E-23 2.46E-23 2.85E-23
  -0.0833 -0.1667  0.1667    1  7.49404E-23 kpt; spin; max resid(k); each band:
  7.49E-23 3.31E-23 3.17E-23 7.49E-23
  -0.3333 -0.0833  0.0000    1  9.53964E-23 kpt; spin; max resid(k); each band:
  9.54E-23 4.29E-23 2.82E-23 5.35E-23
  -0.2500 -0.0833  0.0833    1  7.49312E-23 kpt; spin; max resid(k); each band:
  7.49E-23 3.31E-23 3.17E-23 7.49E-23
  -0.1667 -0.0833  0.1667    1  7.49401E-23 kpt; spin; max resid(k); each band:
  7.49E-23 3.31E-23 3.17E-23 7.49E-23
  -0.0833 -0.0833  0.2500    1  9.53650E-23 kpt; spin; max resid(k); each band:
  9.54E-23 4.30E-23 2.82E-23 5.36E-23
  -0.0833  0.5000  0.0000    1  9.00054E-23 kpt; spin; max resid(k); each band:
  9.00E-23 1.91E-23 6.24E-23 1.30E-23
  -0.1667 -0.4167  0.0000    1  2.72052E-23 kpt; spin; max resid(k); each band:
  7.81E-24 2.26E-23 2.72E-23 1.79E-23
  -0.0833 -0.4167  0.0833    1  5.21460E-23 kpt; spin; max resid(k); each band:
  1.24E-23 1.71E-23 1.75E-23 5.21E-23
  -0.2500 -0.3333  0.0000    1  9.82999E-23 kpt; spin; max resid(k); each band:
  5.37E-24 1.89E-23 9.83E-23 7.25E-24
  -0.1667 -0.3333  0.0833    1  8.55236E-23 kpt; spin; max resid(k); each band:
  8.55E-23 1.68E-23 1.06E-23 1.40E-23
  -0.0833 -0.3333  0.1667    1  8.32697E-23 kpt; spin; max resid(k); each band:
  7.76E-23 2.21E-23 8.33E-23 1.51E-23
  -0.3333 -0.2500  0.0000    1  9.82862E-23 kpt; spin; max resid(k); each band:
  5.37E-24 1.89E-23 9.83E-23 7.25E-24
  -0.2500 -0.2500  0.0833    1  9.83347E-23 kpt; spin; max resid(k); each band:
  5.37E-24 1.89E-23 9.83E-23 7.25E-24
  -0.1667 -0.2500  0.1667    1  8.55239E-23 kpt; spin; max resid(k); each band:
  8.55E-23 1.68E-23 1.06E-23 1.40E-23
  -0.0833 -0.2500  0.2500    1  8.32583E-23 kpt; spin; max resid(k); each band:
  7.76E-23 2.21E-23 8.33E-23 1.51E-23
  -0.4167 -0.1667  0.0000    1  2.72070E-23 kpt; spin; max resid(k); each band:
  7.81E-24 2.26E-23 2.72E-23 1.79E-23
  -0.3333 -0.1667  0.0833    1  8.55147E-23 kpt; spin; max resid(k); each band:
  8.55E-23 1.68E-23 1.06E-23 1.40E-23
  -0.2500 -0.1667  0.1667    1  8.55193E-23 kpt; spin; max resid(k); each band:
  8.55E-23 1.68E-23 1.06E-23 1.41E-23
  -0.1667 -0.1667  0.2500    1  2.72071E-23 kpt; spin; max resid(k); each band:
  7.81E-24 2.26E-23 2.72E-23 1.79E-23
  -0.0833 -0.1667  0.3333    1  5.21423E-23 kpt; spin; max resid(k); each band:
  1.24E-23 1.71E-23 1.75E-23 5.21E-23
   0.5000 -0.0833  0.0000    1  8.99869E-23 kpt; spin; max resid(k); each band:
  9.00E-23 1.91E-23 6.24E-23 1.30E-23
  -0.4167 -0.0833  0.0833    1  5.21477E-23 kpt; spin; max resid(k); each band:
  1.24E-23 1.71E-23 1.75E-23 5.21E-23
  -0.3333 -0.0833  0.1667    1  8.32757E-23 kpt; spin; max resid(k); each band:
  7.76E-23 2.21E-23 8.33E-23 1.51E-23
  -0.2500 -0.0833  0.2500    1  8.32163E-23 kpt; spin; max resid(k); each band:
  7.76E-23 2.21E-23 8.32E-23 1.51E-23
  -0.1667 -0.0833  0.3333    1  5.21521E-23 kpt; spin; max resid(k); each band:
  1.24E-23 1.71E-23 1.75E-23 5.22E-23
  -0.0833 -0.0833  0.4167    1  8.99011E-23 kpt; spin; max resid(k); each band:
  8.99E-23 1.91E-23 6.25E-23 1.30E-23
  -0.0833  0.3333  0.0000    1  3.49278E-23 kpt; spin; max resid(k); each band:
  3.49E-23 2.80E-23 1.77E-23 2.10E-23
  -0.1667  0.4167  0.0000    1  2.20260E-23 kpt; spin; max resid(k); each band:
  6.38E-24 2.20E-23 5.79E-24 6.83E-24
  -0.0833  0.4167  0.0833    1  5.21457E-23 kpt; spin; max resid(k); each band:
  1.24E-23 1.71E-23 1.75E-23 5.21E-23
  -0.2500  0.5000  0.0000    1  9.82978E-23 kpt; spin; max resid(k); each band:
  9.25E-24 2.38E-23 5.56E-24 9.83E-23
  -0.1667  0.5000  0.0833    1  8.11810E-23 kpt; spin; max resid(k); each band:
  5.61E-24 1.45E-23 8.12E-23 6.74E-23
  -0.0833  0.5000  0.1667    1  8.11951E-23 kpt; spin; max resid(k); each band:
  5.61E-24 1.45E-23 8.12E-23 6.74E-23
  -0.3333 -0.4167  0.0000    1  4.66579E-23 kpt; spin; max resid(k); each band:
  1.44E-23 1.52E-23 4.67E-23 4.14E-23
  -0.2500 -0.4167  0.0833    1  1.33603E-23 kpt; spin; max resid(k); each band:
  8.58E-24 1.34E-23 5.24E-24 8.87E-24
  -0.1667 -0.4167  0.1667    1  4.39240E-23 kpt; spin; max resid(k); each band:
  4.39E-23 1.84E-23 3.31E-23 2.38E-23
  -0.0833 -0.4167  0.2500    1  4.84178E-23 kpt; spin; max resid(k); each band:
  4.84E-23 3.72E-23 1.68E-23 3.31E-23
  -0.4167 -0.3333  0.0000    1  4.66640E-23 kpt; spin; max resid(k); each band:
  1.44E-23 1.52E-23 4.67E-23 4.14E-23
  -0.3333 -0.3333  0.0833    1  4.66627E-23 kpt; spin; max resid(k); each band:
  1.44E-23 1.52E-23 4.67E-23 4.14E-23
  -0.2500 -0.3333  0.1667    1  1.33595E-23 kpt; spin; max resid(k); each band:
  8.58E-24 1.34E-23 5.24E-24 8.86E-24
  -0.1667 -0.3333  0.2500    1  4.39305E-23 kpt; spin; max resid(k); each band:
  4.39E-23 1.84E-23 3.31E-23 2.38E-23
  -0.0833 -0.3333  0.3333    1  4.84160E-23 kpt; spin; max resid(k); each band:
  4.84E-23 3.72E-23 1.68E-23 3.31E-23
   0.5000 -0.2500  0.0000    1  9.82959E-23 kpt; spin; max resid(k); each band:
  9.26E-24 2.38E-23 5.57E-24 9.83E-23
 outwf : prtvol=0 or 1, do not print more k-points.

 reduced coordinates (array xred) for    2 atoms
       0.000000000000      0.000000000000      0.000000000000
       0.250000000000      0.250000000000      0.250000000000

 cartesian coordinates (angstrom) at end:
    1      0.00000000000000     0.00000000000000     0.00000000000000
    2      1.39305900161317     1.39305900161317     1.39305900161317
 length scales= 10.530000000000 10.530000000000 10.530000000000 bohr
              =  5.572236006453  5.572236006453  5.572236006453 angstroms
 prteigrs : about to open file tnlo_8o_EIG
 Eigenvalues (hartree) for nkpt= 432  k points:
 kpt#   1, nband=  4, wtk=  0.00231, kpt= -0.0833 -0.1667  0.0000 (reduced coord)
  -0.34039   0.02841   0.07421   0.07855
 kpt#   2, nband=  4, wtk=  0.00231, kpt= -0.1667 -0.0833  0.0000 (reduced coord)
  -0.34039   0.02841   0.07421   0.07855
 kpt#   3, nband=  4, wtk=  0.00231, kpt= -0.0833 -0.0833  0.0833 (reduced coord)
  -0.34039   0.02841   0.07421   0.07855
 kpt#   4, nband=  4, wtk=  0.00231, kpt= -0.0833 -0.3333  0.0000 (reduced coord)
  -0.31616  -0.06145   0.05899   0.06020
 kpt#   5, nband=  4, wtk=  0.00231, kpt= -0.1667 -0.2500  0.0000 (reduced coord)
  -0.32699  -0.01090   0.05221   0.05265
 kpt#   6, nband=  4, wtk=  0.00231, kpt= -0.0833 -0.2500  0.0833 (reduced coord)
  -0.32127  -0.03528   0.03414   0.06869
 kpt#   7, nband=  4, wtk=  0.00231, kpt= -0.2500 -0.1667  0.0000 (reduced coord)
  -0.32699  -0.01090   0.05221   0.05265
 kpt#   8, nband=  4, wtk=  0.00231, kpt= -0.1667 -0.1667  0.0833 (reduced coord)
  -0.32699  -0.01090   0.05221   0.05265
 kpt#   9, nband=  4, wtk=  0.00231, kpt= -0.0833 -0.1667  0.1667 (reduced coord)
  -0.32127  -0.03528   0.03414   0.06869
 kpt#  10, nband=  4, wtk=  0.00231, kpt= -0.3333 -0.0833  0.0000 (reduced coord)
  -0.31616  -0.06145   0.05899   0.06020
 kpt#  11, nband=  4, wtk=  0.00231, kpt= -0.2500 -0.0833  0.0833 (reduced coord)
  -0.32127  -0.03528   0.03414   0.06869
 kpt#  12, nband=  4, wtk=  0.00231, kpt= -0.1667 -0.0833  0.1667 (reduced coord)
  -0.32127  -0.03528   0.03414   0.06869
 kpt#  13, nband=  4, wtk=  0.00231, kpt= -0.0833 -0.0833  0.2500 (reduced coord)
  -0.31616  -0.06145   0.05899   0.06020
 kpt#  14, nband=  4, wtk=  0.00231, kpt= -0.0833  0.5000  0.0000 (reduced coord)
  -0.29336  -0.11361   0.04538   0.05754
 kpt#  15, nband=  4, wtk=  0.00231, kpt= -0.1667 -0.4167  0.0000 (reduced coord)
  -0.30051  -0.08206   0.02485   0.04332
 kpt#  16, nband=  4, wtk=  0.00231, kpt= -0.0833 -0.4167  0.0833 (reduced coord)
  -0.29464  -0.09997   0.02023   0.05216
 kpt#  17, nband=  4, wtk=  0.00231, kpt= -0.2500 -0.3333  0.0000 (reduced coord)
  -0.30829  -0.04742   0.02742   0.03351
 kpt#  18, nband=  4, wtk=  0.00231, kpt= -0.1667 -0.3333  0.0833 (reduced coord)
  -0.30394  -0.06262   0.01140   0.04105
 kpt#  19, nband=  4, wtk=  0.00231, kpt= -0.0833 -0.3333  0.1667 (reduced coord)
  -0.29587  -0.08015  -0.01054   0.04929
 kpt#  20, nband=  4, wtk=  0.00231, kpt= -0.3333 -0.2500  0.0000 (reduced coord)
  -0.30829  -0.04742   0.02742   0.03351
 kpt#  21, nband=  4, wtk=  0.00231, kpt= -0.2500 -0.2500  0.0833 (reduced coord)
  -0.30829  -0.04742   0.02742   0.03351
 kpt#  22, nband=  4, wtk=  0.00231, kpt= -0.1667 -0.2500  0.1667 (reduced coord)
  -0.30394  -0.06262   0.01140   0.04105
 kpt#  23, nband=  4, wtk=  0.00231, kpt= -0.0833 -0.2500  0.2500 (reduced coord)
  -0.29587  -0.08015  -0.01054   0.04929
 kpt#  24, nband=  4, wtk=  0.00231, kpt= -0.4167 -0.1667  0.0000 (reduced coord)
  -0.30051  -0.08206   0.02485   0.04332
 kpt#  25, nband=  4, wtk=  0.00231, kpt= -0.3333 -0.1667  0.0833 (reduced coord)
  -0.30394  -0.06262   0.01140   0.04105
 kpt#  26, nband=  4, wtk=  0.00231, kpt= -0.2500 -0.1667  0.1667 (reduced coord)
  -0.30394  -0.06262   0.01140   0.04105
 kpt#  27, nband=  4, wtk=  0.00231, kpt= -0.1667 -0.1667  0.2500 (reduced coord)
  -0.30051  -0.08206   0.02485   0.04332
 kpt#  28, nband=  4, wtk=  0.00231, kpt= -0.0833 -0.1667  0.3333 (reduced coord)
  -0.29464  -0.09997   0.02023   0.05216
 kpt#  29, nband=  4, wtk=  0.00231, kpt=  0.5000 -0.0833  0.0000 (reduced coord)
  -0.29336  -0.11361   0.04538   0.05754
 kpt#  30, nband=  4, wtk=  0.00231, kpt= -0.4167 -0.0833  0.0833 (reduced coord)
  -0.29464  -0.09997   0.02023   0.05216
 kpt#  31, nband=  4, wtk=  0.00231, kpt= -0.3333 -0.0833  0.1667 (reduced coord)
  -0.29587  -0.08015  -0.01054   0.04929
 kpt#  32, nband=  4, wtk=  0.00231, kpt= -0.2500 -0.0833  0.2500 (reduced coord)
  -0.29587  -0.08015  -0.01054   0.04929
 kpt#  33, nband=  4, wtk=  0.00231, kpt= -0.1667 -0.0833  0.3333 (reduced coord)
  -0.29464  -0.09997   0.02023   0.05216
 kpt#  34, nband=  4, wtk=  0.00231, kpt= -0.0833 -0.0833  0.4167 (reduced coord)
  -0.29336  -0.11361   0.04538   0.05754
 kpt#  35, nband=  4, wtk=  0.00231, kpt= -0.0833  0.3333  0.0000 (reduced coord)
  -0.30661  -0.08544   0.04299   0.06855
 kpt#  36, nband=  4, wtk=  0.00231, kpt= -0.1667  0.4167  0.0000 (reduced coord)
  -0.28834  -0.10754   0.00599   0.05061
 kpt#  37, nband=  4, wtk=  0.00231, kpt= -0.0833  0.4167  0.0833 (reduced coord)
  -0.29464  -0.09997   0.02023   0.05216
 kpt#  38, nband=  4, wtk=  0.00231, kpt= -0.2500  0.5000  0.0000 (reduced coord)
  -0.28465  -0.09377  -0.01185   0.03109
 kpt#  39, nband=  4, wtk=  0.00231, kpt= -0.1667  0.5000  0.0833 (reduced coord)
  -0.28368  -0.10233  -0.01017   0.03367
 kpt#  40, nband=  4, wtk=  0.00231, kpt= -0.0833  0.5000  0.1667 (reduced coord)
  -0.28368  -0.10233  -0.01017   0.03367
 kpt#  41, nband=  4, wtk=  0.00231, kpt= -0.3333 -0.4167  0.0000 (reduced coord)
  -0.28832  -0.08081   0.00901   0.01936
 kpt#  42, nband=  4, wtk=  0.00231, kpt= -0.2500 -0.4167  0.0833 (reduced coord)
  -0.28574  -0.08480  -0.00803   0.01804
 kpt#  43, nband=  4, wtk=  0.00231, kpt= -0.1667 -0.4167  0.1667 (reduced coord)
  -0.28159  -0.09086  -0.02561   0.01836
 kpt#  44, nband=  4, wtk=  0.00231, kpt= -0.0833 -0.4167  0.2500 (reduced coord)
  -0.27731  -0.09504  -0.03773   0.02459
 kpt#  45, nband=  4, wtk=  0.00231, kpt= -0.4167 -0.3333  0.0000 (reduced coord)
  -0.28832  -0.08081   0.00901   0.01936
 kpt#  46, nband=  4, wtk=  0.00231, kpt= -0.3333 -0.3333  0.0833 (reduced coord)
  -0.28832  -0.08081   0.00901   0.01936
 kpt#  47, nband=  4, wtk=  0.00231, kpt= -0.2500 -0.3333  0.1667 (reduced coord)
  -0.28574  -0.08480  -0.00803   0.01804
 kpt#  48, nband=  4, wtk=  0.00231, kpt= -0.1667 -0.3333  0.2500 (reduced coord)
  -0.28159  -0.09086  -0.02561   0.01836
 kpt#  49, nband=  4, wtk=  0.00231, kpt= -0.0833 -0.3333  0.3333 (reduced coord)
  -0.27731  -0.09504  -0.03773   0.02459
 kpt#  50, nband=  4, wtk=  0.00231, kpt=  0.5000 -0.2500  0.0000 (reduced coord)
  -0.28465  -0.09377  -0.01185   0.03109
 prteigrs : prtvol=0 or 1, do not print more k-points.

 Total charge density [el/Bohr^3]
,     Maximum=    9.1432E-02  at reduced coord.    0.1667    0.1667    0.5000
,Next maximum=    9.1432E-02  at reduced coord.    0.1667    0.5000    0.1667
,     Minimum=    3.1553E-03  at reduced coord.    0.7500    0.7500    0.7500
,Next minimum=    3.4993E-03  at reduced coord.    0.5000    0.5000    0.5000
,  Integrated=    8.0000E+00

== END DATASET(S) ==============================================================
================================================================================
  
 -outvars: echo values of variables after computation  --------
            acell      1.0530000000E+01  1.0530000000E+01  1.0530000000E+01 Bohr
              amu      2.69815390E+01  7.49215900E+01
          dilatmx      1.05000000E+00
             ecut      2.80000000E+00 Hartree
           ecutsm      5.00000000E-01 Hartree
-          fftalg         112
           irdden           1
           irdwfk           1
             iscf          -2
              ixc           3
              kpt     -8.33333333E-02 -1.66666667E-01  0.00000000E+00
                      -1.66666667E-01 -8.33333333E-02  0.00000000E+00
                      -8.33333333E-02 -8.33333333E-02  8.33333333E-02
                      -8.33333333E-02 -3.33333333E-01  0.00000000E+00
                      -1.66666667E-01 -2.50000000E-01  0.00000000E+00
                      -8.33333333E-02 -2.50000000E-01  8.33333333E-02
                      -2.50000000E-01 -1.66666667E-01  0.00000000E+00
                      -1.66666667E-01 -1.66666667E-01  8.33333333E-02
                      -8.33333333E-02 -1.66666667E-01  1.66666667E-01
                      -3.33333333E-01 -8.33333333E-02  0.00000000E+00
                      -2.50000000E-01 -8.33333333E-02  8.33333333E-02
                      -1.66666667E-01 -8.33333333E-02  1.66666667E-01
                      -8.33333333E-02 -8.33333333E-02  2.50000000E-01
                      -8.33333333E-02  5.00000000E-01  0.00000000E+00
                      -1.66666667E-01 -4.16666667E-01  0.00000000E+00
                      -8.33333333E-02 -4.16666667E-01  8.33333333E-02
                      -2.50000000E-01 -3.33333333E-01  0.00000000E+00
                      -1.66666667E-01 -3.33333333E-01  8.33333333E-02
                      -8.33333333E-02 -3.33333333E-01  1.66666667E-01
                      -3.33333333E-01 -2.50000000E-01  0.00000000E+00
                      -2.50000000E-01 -2.50000000E-01  8.33333333E-02
                      -1.66666667E-01 -2.50000000E-01  1.66666667E-01
                      -8.33333333E-02 -2.50000000E-01  2.50000000E-01
                      -4.16666667E-01 -1.66666667E-01  0.00000000E+00
                      -3.33333333E-01 -1.66666667E-01  8.33333333E-02
                      -2.50000000E-01 -1.66666667E-01  1.66666667E-01
                      -1.66666667E-01 -1.66666667E-01  2.50000000E-01
                      -8.33333333E-02 -1.66666667E-01  3.33333333E-01
                       5.00000000E-01 -8.33333333E-02  0.00000000E+00
                      -4.16666667E-01 -8.33333333E-02  8.33333333E-02
                      -3.33333333E-01 -8.33333333E-02  1.66666667E-01
                      -2.50000000E-01 -8.33333333E-02  2.50000000E-01
                      -1.66666667E-01 -8.33333333E-02  3.33333333E-01
                      -8.33333333E-02 -8.33333333E-02  4.16666667E-01
                      -8.33333333E-02  3.33333333E-01  0.00000000E+00
                      -1.66666667E-01  4.16666667E-01  0.00000000E+00
                      -8.33333333E-02  4.16666667E-01  8.33333333E-02
                      -2.50000000E-01  5.00000000E-01  0.00000000E+00
                      -1.66666667E-01  5.00000000E-01  8.33333333E-02
                      -8.33333333E-02  5.00000000E-01  1.66666667E-01
                      -3.33333333E-01 -4.16666667E-01  0.00000000E+00
                      -2.50000000E-01 -4.16666667E-01  8.33333333E-02
                      -1.66666667E-01 -4.16666667E-01  1.66666667E-01
                      -8.33333333E-02 -4.16666667E-01  2.50000000E-01
                      -4.16666667E-01 -3.33333333E-01  0.00000000E+00
                      -3.33333333E-01 -3.33333333E-01  8.33333333E-02
                      -2.50000000E-01 -3.33333333E-01  1.66666667E-01
                      -1.66666667E-01 -3.33333333E-01  2.50000000E-01
                      -8.33333333E-02 -3.33333333E-01  3.33333333E-01
                       5.00000000E-01 -2.50000000E-01  0.00000000E+00
                       outvar_i_n : Printing only first  50 k-points.
           kptopt           2
         kptrlatt        6   -6    6     -6    6    6     -6   -6    6
          kptrlen      6.31800000E+01
P           mkmem         432
            natom           2
            nband           4
            ngfft          12      12      12
             nkpt         432
            nstep         100
             nsym          24
           ntypat           2
            rprim      0.0000000000E+00  5.0000000000E-01  5.0000000000E-01
                       5.0000000000E-01  0.0000000000E+00  5.0000000000E-01
                       5.0000000000E-01  5.0000000000E-01  0.0000000000E+00
           shiftk      5.00000000E-01  5.00000000E-01  5.00000000E-01
          spgroup         216
           symrel      1  0  0   0  1  0   0  0  1       0 -1  1   0 -1  0   1 -1  0
                      -1  0  0  -1  0  1  -1  1  0       0  1 -1   1  0 -1   0  0 -1
                      -1  0  0  -1  1  0  -1  0  1       0 -1  1   1 -1  0   0 -1  0
                       1  0  0   0  0  1   0  1  0       0  1 -1   0  0 -1   1  0 -1
                      -1  0  1  -1  1  0  -1  0  0       0 -1  0   1 -1  0   0 -1  1
                       1  0 -1   0  0 -1   0  1 -1       0  1  0   0  0  1   1  0  0
                       1  0 -1   0  1 -1   0  0 -1       0 -1  0   0 -1  1   1 -1  0
                      -1  0  1  -1  0  0  -1  1  0       0  1  0   1  0  0   0  0  1
                       0  0 -1   0  1 -1   1  0 -1       1 -1  0   0 -1  1   0 -1  0
                       0  0  1   1  0  0   0  1  0      -1  1  0  -1  0  0  -1  0  1
                       0  0  1   0  1  0   1  0  0       1 -1  0   0 -1  0   0 -1  1
                       0  0 -1   1  0 -1   0  1 -1      -1  1  0  -1  0  1  -1  0  0
           tolwfr      1.00000000E-22
            typat      1  2
              wtk        0.00231    0.00231    0.00231    0.00231    0.00231    0.00231
                         0.00231    0.00231    0.00231    0.00231    0.00231    0.00231
                         0.00231    0.00231    0.00231    0.00231    0.00231    0.00231
                         0.00231    0.00231    0.00231    0.00231    0.00231    0.00231
                         0.00231    0.00231    0.00231    0.00231    0.00231    0.00231
                         0.00231    0.00231    0.00231    0.00231    0.00231    0.00231
                         0.00231    0.00231    0.00231    0.00231    0.00231    0.00231
                         0.00231    0.00231    0.00231    0.00231    0.00231    0.00231
                         0.00231    0.00231
                       outvars : Printing only first  50 k-points.
           xangst      0.0000000000E+00  0.0000000000E+00  0.0000000000E+00
                       1.3930590016E+00  1.3930590016E+00  1.3930590016E+00
            xcart      0.0000000000E+00  0.0000000000E+00  0.0000000000E+00
                       2.6325000000E+00  2.6325000000E+00  2.6325000000E+00
             xred      0.0000000000E+00  0.0000000000E+00  0.0000000000E+00
                       2.5000000000E-01  2.5000000000E-01  2.5000000000E-01
            znucl       13.00000   33.00000

================================================================================


- Timing analysis has been suppressed with timopt=0



================================================================================

 Suggested references for the acknowledgment of ABINIT usage.

 The users of ABINIT have little formal obligations with respect to the ABINIT group
 (those specified in the GNU General Public License, http://www.gnu.org/copyleft/gpl.txt).
 However, it is common practice in the scientific literature,
 to acknowledge the efforts of people that have made the research possible.
 In this spirit, please find below suggested citations of work written by ABINIT developers,
 corresponding to implementations inside of ABINIT that you have used in the present run.
 Note also that it will be of great value to readers of publications presenting these results,
 to read papers enabling them to understand the theoretical formalism and details
 of the ABINIT implementation.
 For information on why they are suggested, see also http://www.abinit.org/about/?text=acknowledgments.

 [1] ABINIT : First-principles approach of materials and nanosystem properties.
 X. Gonze, B. Amadon, P.-M. Anglade, J.-M. Beuken, F. Bottin, P. Boulanger, F. Bruneval,
 D. Caliste, R. Caracas, M. Cote, T. Deutsch, L. Genovese, Ph. Ghosez, M. Giantomassi
 S. Goedecker, D.R. Hamann, P. Hermet, F. Jollet, G. Jomard, S. Leroux, M. Mancini, S. Mazevet,
 M.J.T. Oliveira, G. Onida, Y. Pouillon, T. Rangel, G.-M. Rignanese, D. Sangalli, R. Shaltaf,
 M. Torrent, M.J. Verstraete, G. Zerah, J.W. Zwanziger
 Computer Phys. Comm. 180, 2582-2615 (2009).
 Comment : the third generic paper describing the ABINIT project.
 Note that a version of this paper, that is not formatted for Computer Phys. Comm. 
 is available at http://www.abinit.org/about/ABINIT_CPC_v10.pdf .
 The licence allows the authors to put it on the Web.

 [2] A brief introduction to the ABINIT software package.
 X. Gonze, G.-M. Rignanese, M. Verstraete, J.-M. Beuken, Y. Pouillon, R. Caracas, F. Jollet,
 M. Torrent, G. Zerah, M. Mikami, Ph. Ghosez, M. Veithen, J.-Y. Raty, V. Olevano, F. Bruneval,
 L. Reining, R. Godby, G. Onida, D.R. Hamann, and D.C. Allan.
 Z. Kristallogr. 220, 558-562 (2005).
 Comment : the second generic paper describing the ABINIT project. Note that this paper
 should be cited especially if you are using the GW part of ABINIT, as several authors
 of this part are not in the list of authors of the first or third paper.
 The .pdf of the latter paper is available at http://www.abinit.org/about/zfk_0505-06_558-562.pdf.
 Note that it should not redistributed (Copyright by Oldenburg Wissenshaftverlag,
 the licence allows the authors to put it on the Web).


 And optionally :

 [3] First-principles computation of material properties : the ABINIT software project. 
 X. Gonze, J.-M. Beuken, R. Caracas, F. Detraux, M. Fuchs, G.-M. Rignanese, L. Sindic,
 M. Verstraete, G. Zerah, F. Jollet, M. Torrent, A. Roy, M. Mikami, Ph. Ghosez, J.-Y. Raty, D.C. Allan.
 Computational Materials Science 25, 478-492 (2002). http://dx.doi.org/10.1016/S0927-0256(02)00325-7
 Comment : the original paper describing the ABINIT project.

 [4] Fast radix 2, 3, 4 and 5 kernels for Fast Fourier Transformations
 on computers with overlapping multiply-add instructions.
 S. Goedecker, SIAM J. on Scientific Computing 18, 1605 (1997).
-
- Proc.   0 individual time (sec): cpu=          1.5  wall=          1.5

================================================================================

 Calculation completed.
.Delivered    4 WARNINGs and  28 COMMENTs to log file.
+Overall time at end (sec) : cpu=          1.5  wall=          1.5
