
.Version 7.10.4 of ABINIT 
.(MPI version, prepared for a x86_64_linux_gnu4.7 computer) 

.Copyright (C) 1998-2014 ABINIT group . 
 ABINIT comes with ABSOLUTELY NO WARRANTY.
 It is free software, and you are welcome to redistribute it
 under certain conditions (GNU General Public License,
 see ~abinit/COPYING or http://www.gnu.org/copyleft/gpl.txt).

 ABINIT is a project of the Universite Catholique de Louvain,
 Corning Inc. and other collaborators, see ~abinit/doc/developers/contributors.txt .
 Please read ~abinit/doc/users/acknowledgments.html for suggested
 acknowledgments of the ABINIT effort.
 For more information, see http://www.abinit.org .

.Starting date : Sun  1 Feb 2015.
- ( at 15h03 )
  
- input  file    -> tnlo_9.in
- output file    -> tnlo_9.out
- root for input  files -> tnlo_9i
- root for output files -> tnlo_9o


 Symmetries : space group F-4 3 m (#216); Bravais cF (face-center cubic)
================================================================================
 Values of the parameters that define the memory need of the present run (RF).
   intxc =         0    iscf =         7 xclevel =         1  lmnmax =         2
   lnmax =         2   mband =         4  mffmem =         1   mgfft =        12
P  mkmem =       432  mkqmem =       432  mk1mem =       432 mpssoang=         3
     mpw =        80  mqgrid =      3001   natom =         2    nfft =      1728
    nkpt =       432  nloalg =         4  nspden =         1 nspinor =         1
  nsppol =         1    nsym =        24  n1xccc =      2501  ntypat =         2
  occopt =         1
================================================================================
P This job should need less than                       8.519 Mbytes of memory.
  Rough estimation (10% accuracy) of disk space for files :
_ WF disk file :      2.111 Mbytes ; DEN or POT disk file :      0.015 Mbytes.
================================================================================

--------------------------------------------------------------------------------
------------- Echo of variables that govern the present computation ------------
--------------------------------------------------------------------------------
-
- outvars: echo of selected default values                                      
-   accesswff0 =  0 , fftalg0 =112 , wfoptalg0 =  0
-
- outvars: echo of global parameters not present in the input file              
-  max_nthreads =    0
-
 -outvars: echo values of preprocessed input variables --------
            acell      1.0530000000E+01  1.0530000000E+01  1.0530000000E+01 Bohr
              amu      2.69815390E+01  7.49215900E+01
          dilatmx      1.05000000E+00
             ecut      2.80000000E+00 Hartree
           ecutsm      5.00000000E-01 Hartree
-          fftalg         112
           irdwfk           1
              ixc           3
              kpt     -8.33333333E-02 -1.66666667E-01  0.00000000E+00
                      -1.66666667E-01 -8.33333333E-02  0.00000000E+00
                      -8.33333333E-02 -8.33333333E-02  8.33333333E-02
                      -8.33333333E-02 -3.33333333E-01  0.00000000E+00
                      -1.66666667E-01 -2.50000000E-01  0.00000000E+00
                      -8.33333333E-02 -2.50000000E-01  8.33333333E-02
                      -2.50000000E-01 -1.66666667E-01  0.00000000E+00
                      -1.66666667E-01 -1.66666667E-01  8.33333333E-02
                      -8.33333333E-02 -1.66666667E-01  1.66666667E-01
                      -3.33333333E-01 -8.33333333E-02  0.00000000E+00
                      -2.50000000E-01 -8.33333333E-02  8.33333333E-02
                      -1.66666667E-01 -8.33333333E-02  1.66666667E-01
                      -8.33333333E-02 -8.33333333E-02  2.50000000E-01
                      -8.33333333E-02  5.00000000E-01  0.00000000E+00
                      -1.66666667E-01 -4.16666667E-01  0.00000000E+00
                      -8.33333333E-02 -4.16666667E-01  8.33333333E-02
                      -2.50000000E-01 -3.33333333E-01  0.00000000E+00
                      -1.66666667E-01 -3.33333333E-01  8.33333333E-02
                      -8.33333333E-02 -3.33333333E-01  1.66666667E-01
                      -3.33333333E-01 -2.50000000E-01  0.00000000E+00
                      -2.50000000E-01 -2.50000000E-01  8.33333333E-02
                      -1.66666667E-01 -2.50000000E-01  1.66666667E-01
                      -8.33333333E-02 -2.50000000E-01  2.50000000E-01
                      -4.16666667E-01 -1.66666667E-01  0.00000000E+00
                      -3.33333333E-01 -1.66666667E-01  8.33333333E-02
                      -2.50000000E-01 -1.66666667E-01  1.66666667E-01
                      -1.66666667E-01 -1.66666667E-01  2.50000000E-01
                      -8.33333333E-02 -1.66666667E-01  3.33333333E-01
                       5.00000000E-01 -8.33333333E-02  0.00000000E+00
                      -4.16666667E-01 -8.33333333E-02  8.33333333E-02
                      -3.33333333E-01 -8.33333333E-02  1.66666667E-01
                      -2.50000000E-01 -8.33333333E-02  2.50000000E-01
                      -1.66666667E-01 -8.33333333E-02  3.33333333E-01
                      -8.33333333E-02 -8.33333333E-02  4.16666667E-01
                      -8.33333333E-02  3.33333333E-01  0.00000000E+00
                      -1.66666667E-01  4.16666667E-01  0.00000000E+00
                      -8.33333333E-02  4.16666667E-01  8.33333333E-02
                      -2.50000000E-01  5.00000000E-01  0.00000000E+00
                      -1.66666667E-01  5.00000000E-01  8.33333333E-02
                      -8.33333333E-02  5.00000000E-01  1.66666667E-01
                      -3.33333333E-01 -4.16666667E-01  0.00000000E+00
                      -2.50000000E-01 -4.16666667E-01  8.33333333E-02
                      -1.66666667E-01 -4.16666667E-01  1.66666667E-01
                      -8.33333333E-02 -4.16666667E-01  2.50000000E-01
                      -4.16666667E-01 -3.33333333E-01  0.00000000E+00
                      -3.33333333E-01 -3.33333333E-01  8.33333333E-02
                      -2.50000000E-01 -3.33333333E-01  1.66666667E-01
                      -1.66666667E-01 -3.33333333E-01  2.50000000E-01
                      -8.33333333E-02 -3.33333333E-01  3.33333333E-01
                       5.00000000E-01 -2.50000000E-01  0.00000000E+00
                       outvar_i_n : Printing only first  50 k-points.
           kptopt           2
         kptrlatt        6   -6    6     -6    6    6     -6   -6    6
          kptrlen      6.31800000E+01
P           mkmem         432
P          mkqmem         432
P          mk1mem         432
            natom           2
            nband           4
            ngfft          12      12      12
             nkpt         432
            nstep         100
             nsym          24
           ntypat           2
              occ      2.000000  2.000000  2.000000  2.000000
        optdriver           1
            rfdir           1       1       1
           rfelfd           2
            rprim      0.0000000000E+00  5.0000000000E-01  5.0000000000E-01
                       5.0000000000E-01  0.0000000000E+00  5.0000000000E-01
                       5.0000000000E-01  5.0000000000E-01  0.0000000000E+00
           shiftk      5.00000000E-01  5.00000000E-01  5.00000000E-01
          spgroup         216
           symrel      1  0  0   0  1  0   0  0  1       0 -1  1   0 -1  0   1 -1  0
                      -1  0  0  -1  0  1  -1  1  0       0  1 -1   1  0 -1   0  0 -1
                      -1  0  0  -1  1  0  -1  0  1       0 -1  1   1 -1  0   0 -1  0
                       1  0  0   0  0  1   0  1  0       0  1 -1   0  0 -1   1  0 -1
                      -1  0  1  -1  1  0  -1  0  0       0 -1  0   1 -1  0   0 -1  1
                       1  0 -1   0  0 -1   0  1 -1       0  1  0   0  0  1   1  0  0
                       1  0 -1   0  1 -1   0  0 -1       0 -1  0   0 -1  1   1 -1  0
                      -1  0  1  -1  0  0  -1  1  0       0  1  0   1  0  0   0  0  1
                       0  0 -1   0  1 -1   1  0 -1       1 -1  0   0 -1  1   0 -1  0
                       0  0  1   1  0  0   0  1  0      -1  1  0  -1  0  0  -1  0  1
                       0  0  1   0  1  0   1  0  0       1 -1  0   0 -1  0   0 -1  1
                       0  0 -1   1  0 -1   0  1 -1      -1  1  0  -1  0  1  -1  0  0
           tolwfr      1.00000000E-22
            typat      1  2
              wtk        0.00231    0.00231    0.00231    0.00231    0.00231    0.00231
                         0.00231    0.00231    0.00231    0.00231    0.00231    0.00231
                         0.00231    0.00231    0.00231    0.00231    0.00231    0.00231
                         0.00231    0.00231    0.00231    0.00231    0.00231    0.00231
                         0.00231    0.00231    0.00231    0.00231    0.00231    0.00231
                         0.00231    0.00231    0.00231    0.00231    0.00231    0.00231
                         0.00231    0.00231    0.00231    0.00231    0.00231    0.00231
                         0.00231    0.00231    0.00231    0.00231    0.00231    0.00231
                         0.00231    0.00231
                       outvars : Printing only first  50 k-points.
           xangst      0.0000000000E+00  0.0000000000E+00  0.0000000000E+00
                       1.3930590016E+00  1.3930590016E+00  1.3930590016E+00
            xcart      0.0000000000E+00  0.0000000000E+00  0.0000000000E+00
                       2.6325000000E+00  2.6325000000E+00  2.6325000000E+00
             xred      0.0000000000E+00  0.0000000000E+00  0.0000000000E+00
                       2.5000000000E-01  2.5000000000E-01  2.5000000000E-01
            znucl       13.00000   33.00000

================================================================================

 chkinp: Checking input parameters for consistency.

================================================================================
== DATASET  1 ==================================================================
-   nproc =    1

 Exchange-correlation functional for the present dataset will be:
  LDA: old Teter (4/91) fit to Ceperley-Alder data - ixc=3

 Real(R)+Recip(G) space primitive vectors, cartesian coordinates (Bohr,Bohr^-1):
 R(1)=  0.0000000  5.2650000  5.2650000  G(1)= -0.0949668  0.0949668  0.0949668
 R(2)=  5.2650000  0.0000000  5.2650000  G(2)=  0.0949668 -0.0949668  0.0949668
 R(3)=  5.2650000  5.2650000  0.0000000  G(3)=  0.0949668  0.0949668 -0.0949668
 Unit cell volume ucvol=  2.9189397E+02 bohr^3
 Angles (23,13,12)=  6.00000000E+01  6.00000000E+01  6.00000000E+01 degrees

 getcut: wavevector=  0.0000  0.0000  0.0000  ngfft=  12  12  12
         ecut(hartree)=      3.087   => boxcut(ratio)=   2.03767

--- Pseudopotential description ------------------------------------------------
- pspini: atom type   1  psp file is /data/ABINIT/testf_gcc47/trunk_7.10.4-training/tests/Psps_for_tests/13al.pspnc
- pspatm: opening atomic psp file    /data/ABINIT/testf_gcc47/trunk_7.10.4-training/tests/Psps_for_tests/13al.pspnc
-  Troullier-Martins psp for element  Al        Thu Oct 27 17:31:05 EDT 1994
- 13.00000   3.00000    940714                znucl, zion, pspdat
    1    1    2    2      2001   0.00000      pspcod,pspxc,lmax,lloc,mmax,r2well
    0   4.657  11.889    1   2.2761078        l,e99.0,e99.9,nproj,rcpsp
   0.00000000   0.00000000   0.00000000   0.00000000     rms, ekb1, ekb2, epsatm
    1   1.829   2.761    1   2.2761078        l,e99.0,e99.9,nproj,rcpsp
   0.00000000   0.00000000   0.00000000   0.00000000     rms, ekb1, ekb2, epsatm
    2   0.000   0.000    0   2.2761078        l,e99.0,e99.9,nproj,rcpsp
   0.00000000   0.00000000   0.00000000   0.00000000     rms, ekb1, ekb2, epsatm
    2.09673076353074    0.12648111154518    1.01742091001718   rchrg,fchrg,qchrg
 pspatm: epsatm=    0.22155260
         --- l  ekb(1:nproj) -->
             0    2.540658
             1    1.353815
 pspatm: atomic psp has been read  and splines computed

- pspini: atom type   2  psp file is /data/ABINIT/testf_gcc47/trunk_7.10.4-training/tests/Psps_for_tests/33as.pspnc
- pspatm: opening atomic psp file    /data/ABINIT/testf_gcc47/trunk_7.10.4-training/tests/Psps_for_tests/33as.pspnc
-  Troullier-Martins psp for element  As        Thu Oct 27 17:37:14 EDT 1994
- 33.00000   5.00000    940714                znucl, zion, pspdat
    1    1    1    1      2001   0.00000      pspcod,pspxc,lmax,lloc,mmax,r2well
    0   4.772  10.829    1   2.5306160        l,e99.0,e99.9,nproj,rcpsp
   0.00000000   0.00000000   0.00000000   0.00000000     rms, ekb1, ekb2, epsatm
    1   2.745   5.580    0   2.5306160        l,e99.0,e99.9,nproj,rcpsp
   0.00000000   0.00000000   0.00000000   0.00000000     rms, ekb1, ekb2, epsatm
    2.05731715564010    0.36322996461007    2.76014815959125   rchrg,fchrg,qchrg
 pspatm: epsatm=   27.20579911
         --- l  ekb(1:nproj) -->
             0    0.838751
 pspatm: atomic psp has been read  and splines computed

   2.19418814E+02                                ecore*ucvol(ha*bohr**3)
--------------------------------------------------------------------------------

-inwffil : will read wavefunctions from disk file tnlo_9i_WFK
P newkpt: treating      4 bands with npw=      68 for ikpt=   1 by node    0
P newkpt: treating      4 bands with npw=      68 for ikpt=   2 by node    0
P newkpt: treating      4 bands with npw=      68 for ikpt=   3 by node    0
P newkpt: treating      4 bands with npw=      74 for ikpt=   4 by node    0
P newkpt: treating      4 bands with npw=      74 for ikpt=   5 by node    0
P newkpt: treating      4 bands with npw=      73 for ikpt=   6 by node    0
P newkpt: treating      4 bands with npw=      74 for ikpt=   7 by node    0
P newkpt: treating      4 bands with npw=      74 for ikpt=   8 by node    0
P newkpt: treating      4 bands with npw=      73 for ikpt=   9 by node    0
P newkpt: treating      4 bands with npw=      74 for ikpt=  10 by node    0
P newkpt: treating      4 bands with npw=      73 for ikpt=  11 by node    0
P newkpt: treating      4 bands with npw=      73 for ikpt=  12 by node    0
P newkpt: treating      4 bands with npw=      74 for ikpt=  13 by node    0
P newkpt: treating      4 bands with npw=      74 for ikpt=  14 by node    0
P newkpt: treating      4 bands with npw=      75 for ikpt=  15 by node    0
P newkpt: treating      4 bands with npw=      76 for ikpt=  16 by node    0
P newkpt: treating      4 bands with npw=      77 for ikpt=  17 by node    0
P newkpt: treating      4 bands with npw=      77 for ikpt=  18 by node    0
P newkpt: treating      4 bands with npw=      75 for ikpt=  19 by node    0
P newkpt: treating      4 bands with npw=      77 for ikpt=  20 by node    0
P newkpt: treating      4 bands with npw=      77 for ikpt=  21 by node    0
P newkpt: treating      4 bands with npw=      77 for ikpt=  22 by node    0
P newkpt: treating      4 bands with npw=      75 for ikpt=  23 by node    0
P newkpt: treating      4 bands with npw=      75 for ikpt=  24 by node    0
P newkpt: treating      4 bands with npw=      77 for ikpt=  25 by node    0
P newkpt: treating      4 bands with npw=      77 for ikpt=  26 by node    0
P newkpt: treating      4 bands with npw=      75 for ikpt=  27 by node    0
P newkpt: treating      4 bands with npw=      76 for ikpt=  28 by node    0
P newkpt: treating      4 bands with npw=      74 for ikpt=  29 by node    0
P newkpt: treating      4 bands with npw=      76 for ikpt=  30 by node    0
P newkpt: treating      4 bands with npw=      75 for ikpt=  31 by node    0
P newkpt: treating      4 bands with npw=      75 for ikpt=  32 by node    0
P newkpt: treating      4 bands with npw=      76 for ikpt=  33 by node    0
P newkpt: treating      4 bands with npw=      74 for ikpt=  34 by node    0
P newkpt: treating      4 bands with npw=      74 for ikpt=  35 by node    0
P newkpt: treating      4 bands with npw=      79 for ikpt=  36 by node    0
P newkpt: treating      4 bands with npw=      76 for ikpt=  37 by node    0
P newkpt: treating      4 bands with npw=      77 for ikpt=  38 by node    0
P newkpt: treating      4 bands with npw=      78 for ikpt=  39 by node    0
P newkpt: treating      4 bands with npw=      78 for ikpt=  40 by node    0
P newkpt: treating      4 bands with npw=      79 for ikpt=  41 by node    0
P newkpt: treating      4 bands with npw=      80 for ikpt=  42 by node    0
P newkpt: treating      4 bands with npw=      77 for ikpt=  43 by node    0
P newkpt: treating      4 bands with npw=      77 for ikpt=  44 by node    0
P newkpt: treating      4 bands with npw=      79 for ikpt=  45 by node    0
P newkpt: treating      4 bands with npw=      79 for ikpt=  46 by node    0
P newkpt: treating      4 bands with npw=      80 for ikpt=  47 by node    0
P newkpt: treating      4 bands with npw=      77 for ikpt=  48 by node    0
P newkpt: treating      4 bands with npw=      77 for ikpt=  49 by node    0
P newkpt: treating      4 bands with npw=      77 for ikpt=  50 by node    0
 newkpt: prtvol=0 or 1, do not print more k-points.


 ==>  initialize data related to q vector <== 

 The list of irreducible perturbations for this q vector is:
    1)    idir= 1    ipert=   3
    2)    idir= 2    ipert=   3
    3)    idir= 3    ipert=   3

================================================================================

--------------------------------------------------------------------------------
 Perturbation wavevector (in red.coord.)   0.000000  0.000000  0.000000
 Perturbation : derivative vs k along direction   1

 loper3 : COMMENT -
  In a d/dk calculation, iscf is set to -3 automatically.
 The set of symmetries contains only one element for this perturbation.
 symkpt : not enough symmetry to change the number of k points.

--------------------------------------------------------------------------------

-inwffil : will read wavefunctions from disk file tnlo_9i_WFK
P newkpt: treating      4 bands with npw=      68 for ikpt=   1 by node    0
P newkpt: treating      4 bands with npw=      68 for ikpt=   2 by node    0
P newkpt: treating      4 bands with npw=      68 for ikpt=   3 by node    0
P newkpt: treating      4 bands with npw=      74 for ikpt=   4 by node    0
P newkpt: treating      4 bands with npw=      74 for ikpt=   5 by node    0
P newkpt: treating      4 bands with npw=      73 for ikpt=   6 by node    0
P newkpt: treating      4 bands with npw=      74 for ikpt=   7 by node    0
P newkpt: treating      4 bands with npw=      74 for ikpt=   8 by node    0
P newkpt: treating      4 bands with npw=      73 for ikpt=   9 by node    0
P newkpt: treating      4 bands with npw=      74 for ikpt=  10 by node    0
P newkpt: treating      4 bands with npw=      73 for ikpt=  11 by node    0
P newkpt: treating      4 bands with npw=      73 for ikpt=  12 by node    0
P newkpt: treating      4 bands with npw=      74 for ikpt=  13 by node    0
P newkpt: treating      4 bands with npw=      74 for ikpt=  14 by node    0
P newkpt: treating      4 bands with npw=      75 for ikpt=  15 by node    0
P newkpt: treating      4 bands with npw=      76 for ikpt=  16 by node    0
P newkpt: treating      4 bands with npw=      77 for ikpt=  17 by node    0
P newkpt: treating      4 bands with npw=      77 for ikpt=  18 by node    0
P newkpt: treating      4 bands with npw=      75 for ikpt=  19 by node    0
P newkpt: treating      4 bands with npw=      77 for ikpt=  20 by node    0
P newkpt: treating      4 bands with npw=      77 for ikpt=  21 by node    0
P newkpt: treating      4 bands with npw=      77 for ikpt=  22 by node    0
P newkpt: treating      4 bands with npw=      75 for ikpt=  23 by node    0
P newkpt: treating      4 bands with npw=      75 for ikpt=  24 by node    0
P newkpt: treating      4 bands with npw=      77 for ikpt=  25 by node    0
P newkpt: treating      4 bands with npw=      77 for ikpt=  26 by node    0
P newkpt: treating      4 bands with npw=      75 for ikpt=  27 by node    0
P newkpt: treating      4 bands with npw=      76 for ikpt=  28 by node    0
P newkpt: treating      4 bands with npw=      74 for ikpt=  29 by node    0
P newkpt: treating      4 bands with npw=      76 for ikpt=  30 by node    0
P newkpt: treating      4 bands with npw=      75 for ikpt=  31 by node    0
P newkpt: treating      4 bands with npw=      75 for ikpt=  32 by node    0
P newkpt: treating      4 bands with npw=      76 for ikpt=  33 by node    0
P newkpt: treating      4 bands with npw=      74 for ikpt=  34 by node    0
P newkpt: treating      4 bands with npw=      74 for ikpt=  35 by node    0
P newkpt: treating      4 bands with npw=      79 for ikpt=  36 by node    0
P newkpt: treating      4 bands with npw=      76 for ikpt=  37 by node    0
P newkpt: treating      4 bands with npw=      77 for ikpt=  38 by node    0
P newkpt: treating      4 bands with npw=      78 for ikpt=  39 by node    0
P newkpt: treating      4 bands with npw=      78 for ikpt=  40 by node    0
P newkpt: treating      4 bands with npw=      79 for ikpt=  41 by node    0
P newkpt: treating      4 bands with npw=      80 for ikpt=  42 by node    0
P newkpt: treating      4 bands with npw=      77 for ikpt=  43 by node    0
P newkpt: treating      4 bands with npw=      77 for ikpt=  44 by node    0
P newkpt: treating      4 bands with npw=      79 for ikpt=  45 by node    0
P newkpt: treating      4 bands with npw=      79 for ikpt=  46 by node    0
P newkpt: treating      4 bands with npw=      80 for ikpt=  47 by node    0
P newkpt: treating      4 bands with npw=      77 for ikpt=  48 by node    0
P newkpt: treating      4 bands with npw=      77 for ikpt=  49 by node    0
P newkpt: treating      4 bands with npw=      77 for ikpt=  50 by node    0
 newkpt: prtvol=0 or 1, do not print more k-points.

--------------------------------------------------------------------------------

-inwffil : will read wavefunctions from disk file tnlo_9i_WFK
P newkpt: treating      4 bands with npw=      68 for ikpt=   1 by node    0
P newkpt: treating      4 bands with npw=      68 for ikpt=   2 by node    0
P newkpt: treating      4 bands with npw=      68 for ikpt=   3 by node    0
P newkpt: treating      4 bands with npw=      74 for ikpt=   4 by node    0
P newkpt: treating      4 bands with npw=      74 for ikpt=   5 by node    0
P newkpt: treating      4 bands with npw=      73 for ikpt=   6 by node    0
P newkpt: treating      4 bands with npw=      74 for ikpt=   7 by node    0
P newkpt: treating      4 bands with npw=      74 for ikpt=   8 by node    0
P newkpt: treating      4 bands with npw=      73 for ikpt=   9 by node    0
P newkpt: treating      4 bands with npw=      74 for ikpt=  10 by node    0
P newkpt: treating      4 bands with npw=      73 for ikpt=  11 by node    0
P newkpt: treating      4 bands with npw=      73 for ikpt=  12 by node    0
P newkpt: treating      4 bands with npw=      74 for ikpt=  13 by node    0
P newkpt: treating      4 bands with npw=      74 for ikpt=  14 by node    0
P newkpt: treating      4 bands with npw=      75 for ikpt=  15 by node    0
P newkpt: treating      4 bands with npw=      76 for ikpt=  16 by node    0
P newkpt: treating      4 bands with npw=      77 for ikpt=  17 by node    0
P newkpt: treating      4 bands with npw=      77 for ikpt=  18 by node    0
P newkpt: treating      4 bands with npw=      75 for ikpt=  19 by node    0
P newkpt: treating      4 bands with npw=      77 for ikpt=  20 by node    0
P newkpt: treating      4 bands with npw=      77 for ikpt=  21 by node    0
P newkpt: treating      4 bands with npw=      77 for ikpt=  22 by node    0
P newkpt: treating      4 bands with npw=      75 for ikpt=  23 by node    0
P newkpt: treating      4 bands with npw=      75 for ikpt=  24 by node    0
P newkpt: treating      4 bands with npw=      77 for ikpt=  25 by node    0
P newkpt: treating      4 bands with npw=      77 for ikpt=  26 by node    0
P newkpt: treating      4 bands with npw=      75 for ikpt=  27 by node    0
P newkpt: treating      4 bands with npw=      76 for ikpt=  28 by node    0
P newkpt: treating      4 bands with npw=      74 for ikpt=  29 by node    0
P newkpt: treating      4 bands with npw=      76 for ikpt=  30 by node    0
P newkpt: treating      4 bands with npw=      75 for ikpt=  31 by node    0
P newkpt: treating      4 bands with npw=      75 for ikpt=  32 by node    0
P newkpt: treating      4 bands with npw=      76 for ikpt=  33 by node    0
P newkpt: treating      4 bands with npw=      74 for ikpt=  34 by node    0
P newkpt: treating      4 bands with npw=      74 for ikpt=  35 by node    0
P newkpt: treating      4 bands with npw=      79 for ikpt=  36 by node    0
P newkpt: treating      4 bands with npw=      76 for ikpt=  37 by node    0
P newkpt: treating      4 bands with npw=      77 for ikpt=  38 by node    0
P newkpt: treating      4 bands with npw=      78 for ikpt=  39 by node    0
P newkpt: treating      4 bands with npw=      78 for ikpt=  40 by node    0
P newkpt: treating      4 bands with npw=      79 for ikpt=  41 by node    0
P newkpt: treating      4 bands with npw=      80 for ikpt=  42 by node    0
P newkpt: treating      4 bands with npw=      77 for ikpt=  43 by node    0
P newkpt: treating      4 bands with npw=      77 for ikpt=  44 by node    0
P newkpt: treating      4 bands with npw=      79 for ikpt=  45 by node    0
P newkpt: treating      4 bands with npw=      79 for ikpt=  46 by node    0
P newkpt: treating      4 bands with npw=      80 for ikpt=  47 by node    0
P newkpt: treating      4 bands with npw=      77 for ikpt=  48 by node    0
P newkpt: treating      4 bands with npw=      77 for ikpt=  49 by node    0
P newkpt: treating      4 bands with npw=      77 for ikpt=  50 by node    0
 newkpt: prtvol=0 or 1, do not print more k-points.

 Initialisation of the first-order wave-functions :
  ireadwf=   0
P newkpt: treating      4 bands with npw=      68 for ikpt=   1 by node    0
P newkpt: treating      4 bands with npw=      68 for ikpt=   2 by node    0
P newkpt: treating      4 bands with npw=      68 for ikpt=   3 by node    0
P newkpt: treating      4 bands with npw=      74 for ikpt=   4 by node    0
P newkpt: treating      4 bands with npw=      74 for ikpt=   5 by node    0
P newkpt: treating      4 bands with npw=      73 for ikpt=   6 by node    0
P newkpt: treating      4 bands with npw=      74 for ikpt=   7 by node    0
P newkpt: treating      4 bands with npw=      74 for ikpt=   8 by node    0
P newkpt: treating      4 bands with npw=      73 for ikpt=   9 by node    0
P newkpt: treating      4 bands with npw=      74 for ikpt=  10 by node    0
P newkpt: treating      4 bands with npw=      73 for ikpt=  11 by node    0
P newkpt: treating      4 bands with npw=      73 for ikpt=  12 by node    0
P newkpt: treating      4 bands with npw=      74 for ikpt=  13 by node    0
P newkpt: treating      4 bands with npw=      74 for ikpt=  14 by node    0
P newkpt: treating      4 bands with npw=      75 for ikpt=  15 by node    0
P newkpt: treating      4 bands with npw=      76 for ikpt=  16 by node    0
P newkpt: treating      4 bands with npw=      77 for ikpt=  17 by node    0
P newkpt: treating      4 bands with npw=      77 for ikpt=  18 by node    0
P newkpt: treating      4 bands with npw=      75 for ikpt=  19 by node    0
P newkpt: treating      4 bands with npw=      77 for ikpt=  20 by node    0
P newkpt: treating      4 bands with npw=      77 for ikpt=  21 by node    0
P newkpt: treating      4 bands with npw=      77 for ikpt=  22 by node    0
P newkpt: treating      4 bands with npw=      75 for ikpt=  23 by node    0
P newkpt: treating      4 bands with npw=      75 for ikpt=  24 by node    0
P newkpt: treating      4 bands with npw=      77 for ikpt=  25 by node    0
P newkpt: treating      4 bands with npw=      77 for ikpt=  26 by node    0
P newkpt: treating      4 bands with npw=      75 for ikpt=  27 by node    0
P newkpt: treating      4 bands with npw=      76 for ikpt=  28 by node    0
P newkpt: treating      4 bands with npw=      74 for ikpt=  29 by node    0
P newkpt: treating      4 bands with npw=      76 for ikpt=  30 by node    0
P newkpt: treating      4 bands with npw=      75 for ikpt=  31 by node    0
P newkpt: treating      4 bands with npw=      75 for ikpt=  32 by node    0
P newkpt: treating      4 bands with npw=      76 for ikpt=  33 by node    0
P newkpt: treating      4 bands with npw=      74 for ikpt=  34 by node    0
P newkpt: treating      4 bands with npw=      74 for ikpt=  35 by node    0
P newkpt: treating      4 bands with npw=      79 for ikpt=  36 by node    0
P newkpt: treating      4 bands with npw=      76 for ikpt=  37 by node    0
P newkpt: treating      4 bands with npw=      77 for ikpt=  38 by node    0
P newkpt: treating      4 bands with npw=      78 for ikpt=  39 by node    0
P newkpt: treating      4 bands with npw=      78 for ikpt=  40 by node    0
P newkpt: treating      4 bands with npw=      79 for ikpt=  41 by node    0
P newkpt: treating      4 bands with npw=      80 for ikpt=  42 by node    0
P newkpt: treating      4 bands with npw=      77 for ikpt=  43 by node    0
P newkpt: treating      4 bands with npw=      77 for ikpt=  44 by node    0
P newkpt: treating      4 bands with npw=      79 for ikpt=  45 by node    0
P newkpt: treating      4 bands with npw=      79 for ikpt=  46 by node    0
P newkpt: treating      4 bands with npw=      80 for ikpt=  47 by node    0
P newkpt: treating      4 bands with npw=      77 for ikpt=  48 by node    0
P newkpt: treating      4 bands with npw=      77 for ikpt=  49 by node    0
P newkpt: treating      4 bands with npw=      77 for ikpt=  50 by node    0
 newkpt: prtvol=0 or 1, do not print more k-points.


     iter   2DEtotal(Ha)        deltaE(Ha) residm    vres2
-ETOT  1  -10.419561857573     -1.042E+01 1.040E+01 0.000E+00
 ETOT  2  -10.423366642822     -3.805E-03 1.934E-03 0.000E+00
 ETOT  3  -10.423367930547     -1.288E-06 1.204E-07 0.000E+00
 ETOT  4  -10.423367931033     -4.852E-10 5.044E-11 0.000E+00
 ETOT  5  -10.423367931033     -3.482E-13 2.149E-14 0.000E+00
 ETOT  6  -10.423367931033      1.954E-14 1.990E-17 0.000E+00
 ETOT  7  -10.423367931033     -6.217E-14 2.283E-20 0.000E+00
 ETOT  8  -10.423367931033      8.882E-15 1.000E-22 0.000E+00

 At SCF step    8   max residual=  1.00E-22 < tolwfr=  1.00E-22 =>converged.
================================================================================

 ----iterations are completed or convergence reached----

 Mean square residual over all n,k,spin=   3.5718E-23; max=  9.9998E-23
  -0.0833 -0.1667  0.0000    1  5.13629E-23 kpt; spin; max resid(k); each band:
  2.17E-23 5.14E-23 2.46E-23 4.03E-23
  -0.1667 -0.0833  0.0000    1  8.19935E-23 kpt; spin; max resid(k); each band:
  8.20E-23 1.10E-23 4.05E-24 3.74E-23
  -0.0833 -0.0833  0.0833    1  5.71518E-23 kpt; spin; max resid(k); each band:
  5.72E-23 5.66E-23 7.88E-24 7.05E-24
  -0.0833 -0.3333  0.0000    1  5.99241E-23 kpt; spin; max resid(k); each band:
  5.99E-23 4.76E-23 5.75E-23 3.79E-23
  -0.1667 -0.2500  0.0000    1  3.43360E-23 kpt; spin; max resid(k); each band:
  2.63E-23 2.60E-23 2.64E-24 3.43E-23
  -0.0833 -0.2500  0.0833    1  9.09738E-23 kpt; spin; max resid(k); each band:
  9.83E-24 9.10E-23 6.51E-24 2.22E-24
  -0.2500 -0.1667  0.0000    1  3.84540E-23 kpt; spin; max resid(k); each band:
  1.31E-23 1.05E-23 3.06E-23 3.85E-23
  -0.1667 -0.1667  0.0833    1  2.72556E-23 kpt; spin; max resid(k); each band:
  2.73E-23 2.34E-23 1.18E-23 1.45E-23
  -0.0833 -0.1667  0.1667    1  6.27284E-23 kpt; spin; max resid(k); each band:
  6.27E-23 5.59E-23 9.04E-24 6.95E-24
  -0.3333 -0.0833  0.0000    1  9.25634E-23 kpt; spin; max resid(k); each band:
  9.26E-23 1.09E-23 1.81E-23 4.49E-24
  -0.2500 -0.0833  0.0833    1  3.50546E-23 kpt; spin; max resid(k); each band:
  1.60E-23 3.51E-23 6.36E-24 1.92E-23
  -0.1667 -0.0833  0.1667    1  7.87590E-23 kpt; spin; max resid(k); each band:
  3.15E-23 3.47E-23 4.09E-23 7.88E-23
  -0.0833 -0.0833  0.2500    1  5.21307E-23 kpt; spin; max resid(k); each band:
  2.48E-23 3.73E-23 5.10E-23 5.21E-23
  -0.0833  0.5000  0.0000    1  5.41677E-23 kpt; spin; max resid(k); each band:
  1.03E-23 4.78E-23 1.41E-23 5.42E-23
  -0.1667 -0.4167  0.0000    1  6.84682E-23 kpt; spin; max resid(k); each band:
  6.21E-24 5.15E-23 6.85E-23 1.05E-23
  -0.0833 -0.4167  0.0833    1  7.92522E-23 kpt; spin; max resid(k); each band:
  7.93E-23 3.72E-23 2.83E-23 2.34E-23
  -0.2500 -0.3333  0.0000    1  7.31165E-23 kpt; spin; max resid(k); each band:
  1.66E-23 1.64E-23 1.55E-24 7.31E-23
  -0.1667 -0.3333  0.0833    1  9.62032E-23 kpt; spin; max resid(k); each band:
  1.72E-23 9.62E-23 3.76E-24 2.93E-23
  -0.0833 -0.3333  0.1667    1  9.41516E-23 kpt; spin; max resid(k); each band:
  9.42E-23 8.87E-24 5.83E-24 1.24E-24
  -0.3333 -0.2500  0.0000    1  4.20158E-23 kpt; spin; max resid(k); each band:
  1.75E-23 2.13E-23 4.20E-23 3.40E-23
  -0.2500 -0.2500  0.0833    1  8.03976E-23 kpt; spin; max resid(k); each band:
  8.04E-23 3.77E-24 1.08E-23 6.31E-24
  -0.1667 -0.2500  0.1667    1  2.50207E-23 kpt; spin; max resid(k); each band:
  2.50E-23 7.31E-24 1.40E-23 1.15E-23
  -0.0833 -0.2500  0.2500    1  9.89730E-23 kpt; spin; max resid(k); each band:
  9.90E-23 6.49E-23 7.49E-23 3.44E-23
  -0.4167 -0.1667  0.0000    1  2.31094E-23 kpt; spin; max resid(k); each band:
  1.13E-23 2.31E-23 2.15E-23 1.05E-23
  -0.3333 -0.1667  0.0833    1  7.05695E-23 kpt; spin; max resid(k); each band:
  1.71E-23 7.06E-23 4.82E-24 2.90E-24
  -0.2500 -0.1667  0.1667    1  9.09849E-23 kpt; spin; max resid(k); each band:
  9.10E-23 2.80E-23 7.89E-23 5.06E-23
  -0.1667 -0.1667  0.2500    1  4.45595E-23 kpt; spin; max resid(k); each band:
  1.16E-23 1.18E-23 2.28E-24 4.46E-23
  -0.0833 -0.1667  0.3333    1  7.44981E-23 kpt; spin; max resid(k); each band:
  7.19E-23 7.45E-23 6.11E-23 1.16E-23
   0.5000 -0.0833  0.0000    1  9.46787E-23 kpt; spin; max resid(k); each band:
  9.47E-23 3.58E-23 6.31E-25 1.40E-23
  -0.4167 -0.0833  0.0833    1  9.33080E-23 kpt; spin; max resid(k); each band:
  1.44E-23 2.68E-23 9.33E-23 5.55E-24
  -0.3333 -0.0833  0.1667    1  7.31085E-23 kpt; spin; max resid(k); each band:
  2.16E-23 5.66E-23 7.31E-23 2.09E-23
  -0.2500 -0.0833  0.2500    1  7.11075E-23 kpt; spin; max resid(k); each band:
  2.05E-23 7.11E-23 7.91E-24 5.31E-23
  -0.1667 -0.0833  0.3333    1  7.07079E-23 kpt; spin; max resid(k); each band:
  3.10E-23 2.71E-23 7.07E-23 1.19E-23
  -0.0833 -0.0833  0.4167    1  7.42065E-23 kpt; spin; max resid(k); each band:
  6.38E-23 7.42E-23 3.88E-24 5.11E-23
  -0.0833  0.3333  0.0000    1  7.52143E-23 kpt; spin; max resid(k); each band:
  5.84E-24 2.15E-23 7.52E-23 4.24E-23
  -0.1667  0.4167  0.0000    1  3.73200E-23 kpt; spin; max resid(k); each band:
  6.63E-24 3.73E-23 8.04E-24 3.00E-23
  -0.0833  0.4167  0.0833    1  7.07071E-23 kpt; spin; max resid(k); each band:
  3.10E-23 2.71E-23 7.07E-23 1.19E-23
  -0.2500  0.5000  0.0000    1  7.23505E-23 kpt; spin; max resid(k); each band:
  8.58E-24 7.24E-23 1.20E-23 4.42E-23
  -0.1667  0.5000  0.0833    1  4.76399E-23 kpt; spin; max resid(k); each band:
  2.12E-23 1.25E-23 4.76E-23 1.38E-23
  -0.0833  0.5000  0.1667    1  7.43209E-23 kpt; spin; max resid(k); each band:
  1.81E-23 7.43E-23 2.55E-23 2.83E-23
  -0.3333 -0.4167  0.0000    1  9.03491E-23 kpt; spin; max resid(k); each band:
  8.07E-23 8.93E-23 1.85E-23 9.03E-23
  -0.2500 -0.4167  0.0833    1  9.49990E-23 kpt; spin; max resid(k); each band:
  1.92E-23 9.50E-23 2.41E-23 1.31E-23
  -0.1667 -0.4167  0.1667    1  6.58909E-23 kpt; spin; max resid(k); each band:
  3.28E-23 4.56E-23 7.99E-24 6.59E-23
  -0.0833 -0.4167  0.2500    1  4.79742E-23 kpt; spin; max resid(k); each band:
  4.80E-23 2.49E-23 4.66E-23 3.70E-23
  -0.4167 -0.3333  0.0000    1  2.62280E-23 kpt; spin; max resid(k); each band:
  2.62E-23 1.88E-23 2.05E-23 1.60E-23
  -0.3333 -0.3333  0.0833    1  7.29416E-23 kpt; spin; max resid(k); each band:
  7.29E-23 6.57E-23 1.77E-23 3.33E-23
  -0.2500 -0.3333  0.1667    1  7.28430E-23 kpt; spin; max resid(k); each band:
  7.28E-23 3.42E-23 1.90E-23 2.71E-23
  -0.1667 -0.3333  0.2500    1  7.78651E-23 kpt; spin; max resid(k); each band:
  2.44E-23 7.79E-23 5.10E-23 7.49E-23
  -0.0833 -0.3333  0.3333    1  3.30321E-23 kpt; spin; max resid(k); each band:
  1.17E-23 2.11E-23 3.30E-23 2.34E-23
   0.5000 -0.2500  0.0000    1  3.62170E-23 kpt; spin; max resid(k); each band:
  2.56E-23 3.62E-23 6.14E-24 3.08E-23
 outwf : prtvol=0 or 1, do not print more k-points.

 loper3 : ek2=    1.7090085353E+01
          f-sum rule ratio=    1.2328367801E+00 (note : ecutsm/=0)
 prteigrs : about to open file tnlo_9_1WF1_EIG
 Expectation of eigenvalue derivatives (hartree) for nkpt= 432  k points:
  (in case of degenerate eigenvalues, averaged derivative)
 kpt#   1, nband=  4, wtk=  0.00231, kpt= -0.0833 -0.1667  0.0000 (reduced coord)
  -0.02117  -0.07429   0.13297   0.20231
 kpt#   2, nband=  4, wtk=  0.00231, kpt= -0.1667 -0.0833  0.0000 (reduced coord)
  -0.09999   0.55190   0.11816   0.07727
 kpt#   3, nband=  4, wtk=  0.00231, kpt= -0.0833 -0.0833  0.0833 (reduced coord)
  -0.06058   0.23881   0.12557   0.13979
 kpt#   4, nband=  4, wtk=  0.00231, kpt= -0.0833 -0.3333  0.0000 (reduced coord)
   0.00427  -0.17670   0.14385   0.23791
 kpt#   5, nband=  4, wtk=  0.00231, kpt= -0.1667 -0.2500  0.0000 (reduced coord)
  -0.06309   0.01409   0.17991   0.14918
 kpt#   6, nband=  4, wtk=  0.00231, kpt= -0.0833 -0.2500  0.0833 (reduced coord)
  -0.02595  -0.10598   0.13402   0.20099
 kpt#   7, nband=  4, wtk=  0.00231, kpt= -0.2500 -0.1667  0.0000 (reduced coord)
  -0.13474   0.44105   0.14248   0.10326
 kpt#   8, nband=  4, wtk=  0.00231, kpt= -0.1667 -0.1667  0.0833 (reduced coord)
  -0.09891   0.22757   0.16120   0.12622
 kpt#   9, nband=  4, wtk=  0.00231, kpt= -0.0833 -0.1667  0.1667 (reduced coord)
  -0.05849   0.14062  -0.12334   0.25743
 kpt#  10, nband=  4, wtk=  0.00231, kpt= -0.3333 -0.0833  0.0000 (reduced coord)
  -0.17495   0.47378   0.05301   0.11414
 kpt#  11, nband=  4, wtk=  0.00231, kpt= -0.2500 -0.0833  0.0833 (reduced coord)
  -0.15976   0.46290   0.15195   0.10687
 kpt#  12, nband=  4, wtk=  0.00231, kpt= -0.1667 -0.0833  0.1667 (reduced coord)
  -0.12721   0.21630   0.40931   0.05043
 kpt#  13, nband=  4, wtk=  0.00231, kpt= -0.0833 -0.0833  0.2500 (reduced coord)
  -0.08534   0.14854   0.09843   0.17603
 kpt#  14, nband=  4, wtk=  0.00231, kpt= -0.0833  0.5000  0.0000 (reduced coord)
  -0.02643  -0.08073   0.35811   0.12244
 kpt#  15, nband=  4, wtk=  0.00231, kpt= -0.1667 -0.4167  0.0000 (reduced coord)
  -0.04095  -0.15315   0.30283   0.16709
 kpt#  16, nband=  4, wtk=  0.00231, kpt= -0.0833 -0.4167  0.0833 (reduced coord)
  -0.02467  -0.14361   0.28779   0.19083
 kpt#  17, nband=  4, wtk=  0.00231, kpt= -0.2500 -0.3333  0.0000 (reduced coord)
  -0.09342   0.09757   0.04515   0.13332
 kpt#  18, nband=  4, wtk=  0.00231, kpt= -0.1667 -0.3333  0.0833 (reduced coord)
  -0.06193  -0.04472   0.07940   0.22285
 kpt#  19, nband=  4, wtk=  0.00231, kpt= -0.0833 -0.3333  0.1667 (reduced coord)
  -0.02913  -0.09962   0.11871   0.21527
 kpt#  20, nband=  4, wtk=  0.00231, kpt= -0.3333 -0.2500  0.0000 (reduced coord)
  -0.14929   0.32744   0.21985   0.06948
 kpt#  21, nband=  4, wtk=  0.00231, kpt= -0.2500 -0.2500  0.0833 (reduced coord)
  -0.12135   0.21250   0.13250   0.10140
 kpt#  22, nband=  4, wtk=  0.00231, kpt= -0.1667 -0.2500  0.1667 (reduced coord)
  -0.08484   0.12480  -0.07756   0.21937
 kpt#  23, nband=  4, wtk=  0.00231, kpt= -0.0833 -0.2500  0.2500 (reduced coord)
  -0.03892   0.09650  -0.15260   0.19649
 kpt#  24, nband=  4, wtk=  0.00231, kpt= -0.4167 -0.1667  0.0000 (reduced coord)
  -0.15720   0.34797   0.15762   0.00593
 kpt#  25, nband=  4, wtk=  0.00231, kpt= -0.3333 -0.1667  0.0833 (reduced coord)
  -0.16116   0.34379   0.17723   0.10290
 kpt#  26, nband=  4, wtk=  0.00231, kpt= -0.2500 -0.1667  0.1667 (reduced coord)
  -0.13825   0.17428   0.33419   0.10637
 kpt#  27, nband=  4, wtk=  0.00231, kpt= -0.1667 -0.1667  0.2500 (reduced coord)
  -0.09908   0.09741   0.23023   0.08651
 kpt#  28, nband=  4, wtk=  0.00231, kpt= -0.0833 -0.1667  0.3333 (reduced coord)
  -0.04189   0.08329  -0.10780   0.14281
 kpt#  29, nband=  4, wtk=  0.00231, kpt=  0.5000 -0.0833  0.0000 (reduced coord)
  -0.04784   0.09269   0.05617  -0.03446
 kpt#  30, nband=  4, wtk=  0.00231, kpt= -0.4167 -0.0833  0.0833 (reduced coord)
  -0.12023   0.24727   0.03274   0.06627
 kpt#  31, nband=  4, wtk=  0.00231, kpt= -0.3333 -0.0833  0.1667 (reduced coord)
  -0.15197   0.28238   0.10189   0.13752
 kpt#  32, nband=  4, wtk=  0.00231, kpt= -0.2500 -0.0833  0.2500 (reduced coord)
  -0.14219   0.08626   0.37320   0.15630
 kpt#  33, nband=  4, wtk=  0.00231, kpt= -0.1667 -0.0833  0.3333 (reduced coord)
  -0.10301   0.02037   0.42833   0.11429
 kpt#  34, nband=  4, wtk=  0.00231, kpt= -0.0833 -0.0833  0.4167 (reduced coord)
  -0.03714   0.00598   0.20714   0.04399
 kpt#  35, nband=  4, wtk=  0.00231, kpt= -0.0833  0.3333  0.0000 (reduced coord)
  -0.10439   0.09128   0.43334   0.05574
 kpt#  36, nband=  4, wtk=  0.00231, kpt= -0.1667  0.4167  0.0000 (reduced coord)
  -0.09090  -0.06458   0.43028   0.16179
 kpt#  37, nband=  4, wtk=  0.00231, kpt= -0.0833  0.4167  0.0833 (reduced coord)
  -0.10301   0.02037   0.42833   0.11429
 kpt#  38, nband=  4, wtk=  0.00231, kpt= -0.2500  0.5000  0.0000 (reduced coord)
  -0.07081  -0.08352   0.19498   0.15818
 kpt#  39, nband=  4, wtk=  0.00231, kpt= -0.1667  0.5000  0.0833 (reduced coord)
  -0.07217  -0.11453   0.30491   0.19775
 kpt#  40, nband=  4, wtk=  0.00231, kpt= -0.0833  0.5000  0.1667 (reduced coord)
  -0.07950  -0.05418   0.28125   0.20780
 kpt#  41, nband=  4, wtk=  0.00231, kpt= -0.3333 -0.4167  0.0000 (reduced coord)
  -0.09493   0.15314  -0.09326   0.10399
 kpt#  42, nband=  4, wtk=  0.00231, kpt= -0.2500 -0.4167  0.0833 (reduced coord)
  -0.07468   0.04688  -0.04607   0.17092
 kpt#  43, nband=  4, wtk=  0.00231, kpt= -0.1667 -0.4167  0.1667 (reduced coord)
  -0.05377  -0.05135   0.03982   0.25191
 kpt#  44, nband=  4, wtk=  0.00231, kpt= -0.0833 -0.4167  0.2500 (reduced coord)
  -0.03869  -0.06200   0.08762   0.23812
 kpt#  45, nband=  4, wtk=  0.00231, kpt= -0.4167 -0.3333  0.0000 (reduced coord)
  -0.12873   0.20473   0.26578   0.03030
 kpt#  46, nband=  4, wtk=  0.00231, kpt= -0.3333 -0.3333  0.0833 (reduced coord)
  -0.11183   0.17893   0.08626   0.06715
 kpt#  47, nband=  4, wtk=  0.00231, kpt= -0.2500 -0.3333  0.1667 (reduced coord)
  -0.08327   0.11382   0.03192   0.00888
 kpt#  48, nband=  4, wtk=  0.00231, kpt= -0.1667 -0.3333  0.2500 (reduced coord)
  -0.04304   0.05927  -0.09589   0.15053
 kpt#  49, nband=  4, wtk=  0.00231, kpt= -0.0833 -0.3333  0.3333 (reduced coord)
   0.00043   0.03162  -0.13445   0.18470
 kpt#  50, nband=  4, wtk=  0.00231, kpt=  0.5000 -0.2500  0.0000 (reduced coord)
  -0.10003   0.17005   0.19871  -0.04227
 prteigrs : prtvol=0 or 1, do not print more k-points.


 Eight components of 2nd-order total energy (hartree) are
 1,2,3: 0th-order hamiltonian combined with 1st-order wavefunctions
     kin0=   2.41625672E+01 eigvalue=  -1.49364402E+00  local=  -1.77154708E+01
 4,5,6: 1st-order hamiltonian combined with 1st and 0th-order wfs
     kin1=  -2.10692858E+01  Hartree=   0.00000000E+00     xc=   0.00000000E+00
 7,8,9: eventually, occupation + non-local contributions
    edocc=   0.00000000E+00     enl0=   5.46991554E+00   enl1=   2.22549937E-01
 1-9 gives the relaxation energy (to be shifted if some occ is /=2.0)
   erelax=  -1.04233679E+01
  No Ewald or frozen-wf contrib.: the relaxation energy is the total one
 2DEtotal=   -0.1042336793E+02 Ha. Also 2DEtotal=   -0.283634265885E+03 eV
    (  non-var. 2DEtotal :   -1.0423367931E+01 Ha)

--------------------------------------------------------------------------------
 Perturbation wavevector (in red.coord.)   0.000000  0.000000  0.000000
 Perturbation : derivative vs k along direction   2
 The set of symmetries contains only one element for this perturbation.
 symkpt : not enough symmetry to change the number of k points.

--------------------------------------------------------------------------------

-inwffil : will read wavefunctions from disk file tnlo_9i_WFK
P newkpt: treating      4 bands with npw=      68 for ikpt=   1 by node    0
P newkpt: treating      4 bands with npw=      68 for ikpt=   2 by node    0
P newkpt: treating      4 bands with npw=      68 for ikpt=   3 by node    0
P newkpt: treating      4 bands with npw=      74 for ikpt=   4 by node    0
P newkpt: treating      4 bands with npw=      74 for ikpt=   5 by node    0
P newkpt: treating      4 bands with npw=      73 for ikpt=   6 by node    0
P newkpt: treating      4 bands with npw=      74 for ikpt=   7 by node    0
P newkpt: treating      4 bands with npw=      74 for ikpt=   8 by node    0
P newkpt: treating      4 bands with npw=      73 for ikpt=   9 by node    0
P newkpt: treating      4 bands with npw=      74 for ikpt=  10 by node    0
P newkpt: treating      4 bands with npw=      73 for ikpt=  11 by node    0
P newkpt: treating      4 bands with npw=      73 for ikpt=  12 by node    0
P newkpt: treating      4 bands with npw=      74 for ikpt=  13 by node    0
P newkpt: treating      4 bands with npw=      74 for ikpt=  14 by node    0
P newkpt: treating      4 bands with npw=      75 for ikpt=  15 by node    0
P newkpt: treating      4 bands with npw=      76 for ikpt=  16 by node    0
P newkpt: treating      4 bands with npw=      77 for ikpt=  17 by node    0
P newkpt: treating      4 bands with npw=      77 for ikpt=  18 by node    0
P newkpt: treating      4 bands with npw=      75 for ikpt=  19 by node    0
P newkpt: treating      4 bands with npw=      77 for ikpt=  20 by node    0
P newkpt: treating      4 bands with npw=      77 for ikpt=  21 by node    0
P newkpt: treating      4 bands with npw=      77 for ikpt=  22 by node    0
P newkpt: treating      4 bands with npw=      75 for ikpt=  23 by node    0
P newkpt: treating      4 bands with npw=      75 for ikpt=  24 by node    0
P newkpt: treating      4 bands with npw=      77 for ikpt=  25 by node    0
P newkpt: treating      4 bands with npw=      77 for ikpt=  26 by node    0
P newkpt: treating      4 bands with npw=      75 for ikpt=  27 by node    0
P newkpt: treating      4 bands with npw=      76 for ikpt=  28 by node    0
P newkpt: treating      4 bands with npw=      74 for ikpt=  29 by node    0
P newkpt: treating      4 bands with npw=      76 for ikpt=  30 by node    0
P newkpt: treating      4 bands with npw=      75 for ikpt=  31 by node    0
P newkpt: treating      4 bands with npw=      75 for ikpt=  32 by node    0
P newkpt: treating      4 bands with npw=      76 for ikpt=  33 by node    0
P newkpt: treating      4 bands with npw=      74 for ikpt=  34 by node    0
P newkpt: treating      4 bands with npw=      74 for ikpt=  35 by node    0
P newkpt: treating      4 bands with npw=      79 for ikpt=  36 by node    0
P newkpt: treating      4 bands with npw=      76 for ikpt=  37 by node    0
P newkpt: treating      4 bands with npw=      77 for ikpt=  38 by node    0
P newkpt: treating      4 bands with npw=      78 for ikpt=  39 by node    0
P newkpt: treating      4 bands with npw=      78 for ikpt=  40 by node    0
P newkpt: treating      4 bands with npw=      79 for ikpt=  41 by node    0
P newkpt: treating      4 bands with npw=      80 for ikpt=  42 by node    0
P newkpt: treating      4 bands with npw=      77 for ikpt=  43 by node    0
P newkpt: treating      4 bands with npw=      77 for ikpt=  44 by node    0
P newkpt: treating      4 bands with npw=      79 for ikpt=  45 by node    0
P newkpt: treating      4 bands with npw=      79 for ikpt=  46 by node    0
P newkpt: treating      4 bands with npw=      80 for ikpt=  47 by node    0
P newkpt: treating      4 bands with npw=      77 for ikpt=  48 by node    0
P newkpt: treating      4 bands with npw=      77 for ikpt=  49 by node    0
P newkpt: treating      4 bands with npw=      77 for ikpt=  50 by node    0
 newkpt: prtvol=0 or 1, do not print more k-points.

--------------------------------------------------------------------------------

-inwffil : will read wavefunctions from disk file tnlo_9i_WFK
P newkpt: treating      4 bands with npw=      68 for ikpt=   1 by node    0
P newkpt: treating      4 bands with npw=      68 for ikpt=   2 by node    0
P newkpt: treating      4 bands with npw=      68 for ikpt=   3 by node    0
P newkpt: treating      4 bands with npw=      74 for ikpt=   4 by node    0
P newkpt: treating      4 bands with npw=      74 for ikpt=   5 by node    0
P newkpt: treating      4 bands with npw=      73 for ikpt=   6 by node    0
P newkpt: treating      4 bands with npw=      74 for ikpt=   7 by node    0
P newkpt: treating      4 bands with npw=      74 for ikpt=   8 by node    0
P newkpt: treating      4 bands with npw=      73 for ikpt=   9 by node    0
P newkpt: treating      4 bands with npw=      74 for ikpt=  10 by node    0
P newkpt: treating      4 bands with npw=      73 for ikpt=  11 by node    0
P newkpt: treating      4 bands with npw=      73 for ikpt=  12 by node    0
P newkpt: treating      4 bands with npw=      74 for ikpt=  13 by node    0
P newkpt: treating      4 bands with npw=      74 for ikpt=  14 by node    0
P newkpt: treating      4 bands with npw=      75 for ikpt=  15 by node    0
P newkpt: treating      4 bands with npw=      76 for ikpt=  16 by node    0
P newkpt: treating      4 bands with npw=      77 for ikpt=  17 by node    0
P newkpt: treating      4 bands with npw=      77 for ikpt=  18 by node    0
P newkpt: treating      4 bands with npw=      75 for ikpt=  19 by node    0
P newkpt: treating      4 bands with npw=      77 for ikpt=  20 by node    0
P newkpt: treating      4 bands with npw=      77 for ikpt=  21 by node    0
P newkpt: treating      4 bands with npw=      77 for ikpt=  22 by node    0
P newkpt: treating      4 bands with npw=      75 for ikpt=  23 by node    0
P newkpt: treating      4 bands with npw=      75 for ikpt=  24 by node    0
P newkpt: treating      4 bands with npw=      77 for ikpt=  25 by node    0
P newkpt: treating      4 bands with npw=      77 for ikpt=  26 by node    0
P newkpt: treating      4 bands with npw=      75 for ikpt=  27 by node    0
P newkpt: treating      4 bands with npw=      76 for ikpt=  28 by node    0
P newkpt: treating      4 bands with npw=      74 for ikpt=  29 by node    0
P newkpt: treating      4 bands with npw=      76 for ikpt=  30 by node    0
P newkpt: treating      4 bands with npw=      75 for ikpt=  31 by node    0
P newkpt: treating      4 bands with npw=      75 for ikpt=  32 by node    0
P newkpt: treating      4 bands with npw=      76 for ikpt=  33 by node    0
P newkpt: treating      4 bands with npw=      74 for ikpt=  34 by node    0
P newkpt: treating      4 bands with npw=      74 for ikpt=  35 by node    0
P newkpt: treating      4 bands with npw=      79 for ikpt=  36 by node    0
P newkpt: treating      4 bands with npw=      76 for ikpt=  37 by node    0
P newkpt: treating      4 bands with npw=      77 for ikpt=  38 by node    0
P newkpt: treating      4 bands with npw=      78 for ikpt=  39 by node    0
P newkpt: treating      4 bands with npw=      78 for ikpt=  40 by node    0
P newkpt: treating      4 bands with npw=      79 for ikpt=  41 by node    0
P newkpt: treating      4 bands with npw=      80 for ikpt=  42 by node    0
P newkpt: treating      4 bands with npw=      77 for ikpt=  43 by node    0
P newkpt: treating      4 bands with npw=      77 for ikpt=  44 by node    0
P newkpt: treating      4 bands with npw=      79 for ikpt=  45 by node    0
P newkpt: treating      4 bands with npw=      79 for ikpt=  46 by node    0
P newkpt: treating      4 bands with npw=      80 for ikpt=  47 by node    0
P newkpt: treating      4 bands with npw=      77 for ikpt=  48 by node    0
P newkpt: treating      4 bands with npw=      77 for ikpt=  49 by node    0
P newkpt: treating      4 bands with npw=      77 for ikpt=  50 by node    0
 newkpt: prtvol=0 or 1, do not print more k-points.

 Initialisation of the first-order wave-functions :
  ireadwf=   0
P newkpt: treating      4 bands with npw=      68 for ikpt=   1 by node    0
P newkpt: treating      4 bands with npw=      68 for ikpt=   2 by node    0
P newkpt: treating      4 bands with npw=      68 for ikpt=   3 by node    0
P newkpt: treating      4 bands with npw=      74 for ikpt=   4 by node    0
P newkpt: treating      4 bands with npw=      74 for ikpt=   5 by node    0
P newkpt: treating      4 bands with npw=      73 for ikpt=   6 by node    0
P newkpt: treating      4 bands with npw=      74 for ikpt=   7 by node    0
P newkpt: treating      4 bands with npw=      74 for ikpt=   8 by node    0
P newkpt: treating      4 bands with npw=      73 for ikpt=   9 by node    0
P newkpt: treating      4 bands with npw=      74 for ikpt=  10 by node    0
P newkpt: treating      4 bands with npw=      73 for ikpt=  11 by node    0
P newkpt: treating      4 bands with npw=      73 for ikpt=  12 by node    0
P newkpt: treating      4 bands with npw=      74 for ikpt=  13 by node    0
P newkpt: treating      4 bands with npw=      74 for ikpt=  14 by node    0
P newkpt: treating      4 bands with npw=      75 for ikpt=  15 by node    0
P newkpt: treating      4 bands with npw=      76 for ikpt=  16 by node    0
P newkpt: treating      4 bands with npw=      77 for ikpt=  17 by node    0
P newkpt: treating      4 bands with npw=      77 for ikpt=  18 by node    0
P newkpt: treating      4 bands with npw=      75 for ikpt=  19 by node    0
P newkpt: treating      4 bands with npw=      77 for ikpt=  20 by node    0
P newkpt: treating      4 bands with npw=      77 for ikpt=  21 by node    0
P newkpt: treating      4 bands with npw=      77 for ikpt=  22 by node    0
P newkpt: treating      4 bands with npw=      75 for ikpt=  23 by node    0
P newkpt: treating      4 bands with npw=      75 for ikpt=  24 by node    0
P newkpt: treating      4 bands with npw=      77 for ikpt=  25 by node    0
P newkpt: treating      4 bands with npw=      77 for ikpt=  26 by node    0
P newkpt: treating      4 bands with npw=      75 for ikpt=  27 by node    0
P newkpt: treating      4 bands with npw=      76 for ikpt=  28 by node    0
P newkpt: treating      4 bands with npw=      74 for ikpt=  29 by node    0
P newkpt: treating      4 bands with npw=      76 for ikpt=  30 by node    0
P newkpt: treating      4 bands with npw=      75 for ikpt=  31 by node    0
P newkpt: treating      4 bands with npw=      75 for ikpt=  32 by node    0
P newkpt: treating      4 bands with npw=      76 for ikpt=  33 by node    0
P newkpt: treating      4 bands with npw=      74 for ikpt=  34 by node    0
P newkpt: treating      4 bands with npw=      74 for ikpt=  35 by node    0
P newkpt: treating      4 bands with npw=      79 for ikpt=  36 by node    0
P newkpt: treating      4 bands with npw=      76 for ikpt=  37 by node    0
P newkpt: treating      4 bands with npw=      77 for ikpt=  38 by node    0
P newkpt: treating      4 bands with npw=      78 for ikpt=  39 by node    0
P newkpt: treating      4 bands with npw=      78 for ikpt=  40 by node    0
P newkpt: treating      4 bands with npw=      79 for ikpt=  41 by node    0
P newkpt: treating      4 bands with npw=      80 for ikpt=  42 by node    0
P newkpt: treating      4 bands with npw=      77 for ikpt=  43 by node    0
P newkpt: treating      4 bands with npw=      77 for ikpt=  44 by node    0
P newkpt: treating      4 bands with npw=      79 for ikpt=  45 by node    0
P newkpt: treating      4 bands with npw=      79 for ikpt=  46 by node    0
P newkpt: treating      4 bands with npw=      80 for ikpt=  47 by node    0
P newkpt: treating      4 bands with npw=      77 for ikpt=  48 by node    0
P newkpt: treating      4 bands with npw=      77 for ikpt=  49 by node    0
P newkpt: treating      4 bands with npw=      77 for ikpt=  50 by node    0
 newkpt: prtvol=0 or 1, do not print more k-points.


     iter   2DEtotal(Ha)        deltaE(Ha) residm    vres2
-ETOT  1  -10.419562244225     -1.042E+01 1.040E+01 0.000E+00
 ETOT  2  -10.423366642445     -3.804E-03 1.934E-03 0.000E+00
 ETOT  3  -10.423367930358     -1.288E-06 1.204E-07 0.000E+00
 ETOT  4  -10.423367930848     -4.895E-10 5.044E-11 0.000E+00
 ETOT  5  -10.423367930848     -4.583E-13 2.149E-14 0.000E+00
 ETOT  6  -10.423367930848      8.704E-14 2.230E-17 0.000E+00
 ETOT  7  -10.423367930848      5.329E-15 3.942E-20 0.000E+00
 ETOT  8  -10.423367930848     -8.882E-15 1.000E-22 0.000E+00

 At SCF step    8   max residual=  1.00E-22 < tolwfr=  1.00E-22 =>converged.
================================================================================

 ----iterations are completed or convergence reached----

 Mean square residual over all n,k,spin=   3.6012E-23; max=  9.9998E-23
  -0.0833 -0.1667  0.0000    1  8.19936E-23 kpt; spin; max resid(k); each band:
  8.20E-23 1.10E-23 4.05E-24 3.74E-23
  -0.1667 -0.0833  0.0000    1  5.13632E-23 kpt; spin; max resid(k); each band:
  2.17E-23 5.14E-23 2.46E-23 4.03E-23
  -0.0833 -0.0833  0.0833    1  5.71524E-23 kpt; spin; max resid(k); each band:
  5.72E-23 5.66E-23 7.88E-24 7.05E-24
  -0.0833 -0.3333  0.0000    1  9.25629E-23 kpt; spin; max resid(k); each band:
  9.26E-23 1.09E-23 1.81E-23 4.49E-24
  -0.1667 -0.2500  0.0000    1  3.84539E-23 kpt; spin; max resid(k); each band:
  1.31E-23 1.05E-23 3.06E-23 3.85E-23
  -0.0833 -0.2500  0.0833    1  3.50509E-23 kpt; spin; max resid(k); each band:
  1.60E-23 3.51E-23 6.36E-24 1.92E-23
  -0.2500 -0.1667  0.0000    1  3.43361E-23 kpt; spin; max resid(k); each band:
  2.63E-23 2.60E-23 2.64E-24 3.43E-23
  -0.1667 -0.1667  0.0833    1  2.72559E-23 kpt; spin; max resid(k); each band:
  2.73E-23 2.34E-23 1.18E-23 1.45E-23
  -0.0833 -0.1667  0.1667    1  7.87643E-23 kpt; spin; max resid(k); each band:
  3.15E-23 3.47E-23 4.09E-23 7.88E-23
  -0.3333 -0.0833  0.0000    1  5.99243E-23 kpt; spin; max resid(k); each band:
  5.99E-23 4.76E-23 5.75E-23 3.79E-23
  -0.2500 -0.0833  0.0833    1  9.09732E-23 kpt; spin; max resid(k); each band:
  9.83E-24 9.10E-23 6.51E-24 2.22E-24
  -0.1667 -0.0833  0.1667    1  6.27277E-23 kpt; spin; max resid(k); each band:
  6.27E-23 5.59E-23 9.04E-24 6.95E-24
  -0.0833 -0.0833  0.2500    1  5.21300E-23 kpt; spin; max resid(k); each band:
  2.48E-23 3.73E-23 5.10E-23 5.21E-23
  -0.0833  0.5000  0.0000    1  9.46729E-23 kpt; spin; max resid(k); each band:
  9.47E-23 3.58E-23 6.32E-25 1.40E-23
  -0.1667 -0.4167  0.0000    1  2.31091E-23 kpt; spin; max resid(k); each band:
  1.13E-23 2.31E-23 2.15E-23 1.05E-23
  -0.0833 -0.4167  0.0833    1  9.33073E-23 kpt; spin; max resid(k); each band:
  1.44E-23 2.68E-23 9.33E-23 5.55E-24
  -0.2500 -0.3333  0.0000    1  4.20204E-23 kpt; spin; max resid(k); each band:
  1.75E-23 2.13E-23 4.20E-23 3.40E-23
  -0.1667 -0.3333  0.0833    1  7.05895E-23 kpt; spin; max resid(k); each band:
  1.71E-23 7.06E-23 4.82E-24 2.90E-24
  -0.0833 -0.3333  0.1667    1  7.31071E-23 kpt; spin; max resid(k); each band:
  2.16E-23 5.66E-23 7.31E-23 2.09E-23
  -0.3333 -0.2500  0.0000    1  7.31167E-23 kpt; spin; max resid(k); each band:
  1.66E-23 1.64E-23 1.55E-24 7.31E-23
  -0.2500 -0.2500  0.0833    1  8.04022E-23 kpt; spin; max resid(k); each band:
  8.04E-23 3.77E-24 1.08E-23 6.31E-24
  -0.1667 -0.2500  0.1667    1  9.09845E-23 kpt; spin; max resid(k); each band:
  9.10E-23 2.80E-23 7.89E-23 5.06E-23
  -0.0833 -0.2500  0.2500    1  7.10912E-23 kpt; spin; max resid(k); each band:
  2.05E-23 7.11E-23 7.92E-24 5.31E-23
  -0.4167 -0.1667  0.0000    1  6.84663E-23 kpt; spin; max resid(k); each band:
  6.21E-24 5.15E-23 6.85E-23 1.05E-23
  -0.3333 -0.1667  0.0833    1  9.62009E-23 kpt; spin; max resid(k); each band:
  1.72E-23 9.62E-23 3.76E-24 2.93E-23
  -0.2500 -0.1667  0.1667    1  2.50214E-23 kpt; spin; max resid(k); each band:
  2.50E-23 7.31E-24 1.40E-23 1.15E-23
  -0.1667 -0.1667  0.2500    1  4.45600E-23 kpt; spin; max resid(k); each band:
  1.16E-23 1.18E-23 2.28E-24 4.46E-23
  -0.0833 -0.1667  0.3333    1  7.07038E-23 kpt; spin; max resid(k); each band:
  3.10E-23 2.71E-23 7.07E-23 1.19E-23
   0.5000 -0.0833  0.0000    1  5.41623E-23 kpt; spin; max resid(k); each band:
  1.03E-23 4.78E-23 1.41E-23 5.42E-23
  -0.4167 -0.0833  0.0833    1  7.92519E-23 kpt; spin; max resid(k); each band:
  7.93E-23 3.72E-23 2.83E-23 2.34E-23
  -0.3333 -0.0833  0.1667    1  9.41506E-23 kpt; spin; max resid(k); each band:
  9.42E-23 8.87E-24 5.83E-24 1.24E-24
  -0.2500 -0.0833  0.2500    1  9.89727E-23 kpt; spin; max resid(k); each band:
  9.90E-23 6.49E-23 7.49E-23 3.44E-23
  -0.1667 -0.0833  0.3333    1  7.44902E-23 kpt; spin; max resid(k); each band:
  7.19E-23 7.45E-23 6.11E-23 1.16E-23
  -0.0833 -0.0833  0.4167    1  7.42091E-23 kpt; spin; max resid(k); each band:
  6.38E-23 7.42E-23 3.89E-24 5.11E-23
  -0.0833  0.3333  0.0000    1  7.26920E-23 kpt; spin; max resid(k); each band:
  6.14E-23 5.52E-23 7.27E-23 3.93E-24
  -0.1667  0.4167  0.0000    1  8.82530E-23 kpt; spin; max resid(k); each band:
  8.83E-23 1.93E-23 6.79E-23 3.99E-23
  -0.0833  0.4167  0.0833    1  9.33097E-23 kpt; spin; max resid(k); each band:
  1.44E-23 2.68E-23 9.33E-23 5.55E-24
  -0.2500  0.5000  0.0000    1  3.62045E-23 kpt; spin; max resid(k); each band:
  2.56E-23 3.62E-23 6.14E-24 3.08E-23
  -0.1667  0.5000  0.0833    1  9.99786E-23 kpt; spin; max resid(k); each band:
  2.39E-23 1.00E-22 3.46E-23 5.79E-24
  -0.0833  0.5000  0.1667    1  3.45612E-23 kpt; spin; max resid(k); each band:
  2.39E-23 8.81E-24 3.46E-23 5.79E-24
  -0.3333 -0.4167  0.0000    1  2.62277E-23 kpt; spin; max resid(k); each band:
  2.62E-23 1.88E-23 2.05E-23 1.60E-23
  -0.2500 -0.4167  0.0833    1  7.00858E-23 kpt; spin; max resid(k); each band:
  4.96E-23 7.01E-23 2.32E-23 5.23E-23
  -0.1667 -0.4167  0.1667    1  6.39983E-23 kpt; spin; max resid(k); each band:
  6.40E-23 3.53E-23 3.31E-23 2.29E-23
  -0.0833 -0.4167  0.2500    1  6.86568E-23 kpt; spin; max resid(k); each band:
  6.87E-23 8.77E-24 1.27E-23 1.75E-23
  -0.4167 -0.3333  0.0000    1  9.03490E-23 kpt; spin; max resid(k); each band:
  8.07E-23 8.93E-23 1.85E-23 9.03E-23
  -0.3333 -0.3333  0.0833    1  7.29415E-23 kpt; spin; max resid(k); each band:
  7.29E-23 6.57E-23 1.77E-23 3.33E-23
  -0.2500 -0.3333  0.1667    1  9.67339E-23 kpt; spin; max resid(k); each band:
  3.38E-23 2.32E-23 9.67E-23 3.45E-23
  -0.1667 -0.3333  0.2500    1  7.79661E-23 kpt; spin; max resid(k); each band:
  6.10E-23 2.37E-23 2.18E-23 7.80E-23
  -0.0833 -0.3333  0.3333    1  4.27226E-23 kpt; spin; max resid(k); each band:
  2.35E-23 4.27E-23 2.53E-23 1.37E-23
   0.5000 -0.2500  0.0000    1  7.23484E-23 kpt; spin; max resid(k); each band:
  8.59E-24 7.23E-23 1.20E-23 4.42E-23
 outwf : prtvol=0 or 1, do not print more k-points.

 loper3 : ek2=    1.7090085353E+01
          f-sum rule ratio=    1.2328367801E+00 (note : ecutsm/=0)
 prteigrs : about to open file tnlo_9_1WF1_EIG
 Expectation of eigenvalue derivatives (hartree) for nkpt= 432  k points:
  (in case of degenerate eigenvalues, averaged derivative)
 kpt#   1, nband=  4, wtk=  0.00231, kpt= -0.0833 -0.1667  0.0000 (reduced coord)
  -0.09999   0.55190   0.11816   0.07727
 kpt#   2, nband=  4, wtk=  0.00231, kpt= -0.1667 -0.0833  0.0000 (reduced coord)
  -0.02117  -0.07429   0.13297   0.20231
 kpt#   3, nband=  4, wtk=  0.00231, kpt= -0.0833 -0.0833  0.0833 (reduced coord)
  -0.06058   0.23881   0.12557   0.13979
 kpt#   4, nband=  4, wtk=  0.00231, kpt= -0.0833 -0.3333  0.0000 (reduced coord)
  -0.17495   0.47378   0.05301   0.11414
 kpt#   5, nband=  4, wtk=  0.00231, kpt= -0.1667 -0.2500  0.0000 (reduced coord)
  -0.13474   0.44105   0.14248   0.10326
 kpt#   6, nband=  4, wtk=  0.00231, kpt= -0.0833 -0.2500  0.0833 (reduced coord)
  -0.15976   0.46290   0.15195   0.10687
 kpt#   7, nband=  4, wtk=  0.00231, kpt= -0.2500 -0.1667  0.0000 (reduced coord)
  -0.06309   0.01409   0.17991   0.14918
 kpt#   8, nband=  4, wtk=  0.00231, kpt= -0.1667 -0.1667  0.0833 (reduced coord)
  -0.09891   0.22757   0.16120   0.12622
 kpt#   9, nband=  4, wtk=  0.00231, kpt= -0.0833 -0.1667  0.1667 (reduced coord)
  -0.12721   0.21630   0.40931   0.05043
 kpt#  10, nband=  4, wtk=  0.00231, kpt= -0.3333 -0.0833  0.0000 (reduced coord)
   0.00427  -0.17670   0.14385   0.23791
 kpt#  11, nband=  4, wtk=  0.00231, kpt= -0.2500 -0.0833  0.0833 (reduced coord)
  -0.02595  -0.10598   0.13402   0.20099
 kpt#  12, nband=  4, wtk=  0.00231, kpt= -0.1667 -0.0833  0.1667 (reduced coord)
  -0.05849   0.14062  -0.12334   0.25743
 kpt#  13, nband=  4, wtk=  0.00231, kpt= -0.0833 -0.0833  0.2500 (reduced coord)
  -0.08534   0.14854   0.09843   0.17603
 kpt#  14, nband=  4, wtk=  0.00231, kpt= -0.0833  0.5000  0.0000 (reduced coord)
  -0.04784   0.09269   0.05617  -0.03446
 kpt#  15, nband=  4, wtk=  0.00231, kpt= -0.1667 -0.4167  0.0000 (reduced coord)
  -0.15720   0.34797   0.15762   0.00593
 kpt#  16, nband=  4, wtk=  0.00231, kpt= -0.0833 -0.4167  0.0833 (reduced coord)
  -0.12023   0.24727   0.03274   0.06627
 kpt#  17, nband=  4, wtk=  0.00231, kpt= -0.2500 -0.3333  0.0000 (reduced coord)
  -0.14929   0.32744   0.21985   0.06948
 kpt#  18, nband=  4, wtk=  0.00231, kpt= -0.1667 -0.3333  0.0833 (reduced coord)
  -0.16116   0.34379   0.17723   0.10290
 kpt#  19, nband=  4, wtk=  0.00231, kpt= -0.0833 -0.3333  0.1667 (reduced coord)
  -0.15197   0.28238   0.10189   0.13752
 kpt#  20, nband=  4, wtk=  0.00231, kpt= -0.3333 -0.2500  0.0000 (reduced coord)
  -0.09342   0.09757   0.04515   0.13332
 kpt#  21, nband=  4, wtk=  0.00231, kpt= -0.2500 -0.2500  0.0833 (reduced coord)
  -0.12135   0.21250   0.13250   0.10140
 kpt#  22, nband=  4, wtk=  0.00231, kpt= -0.1667 -0.2500  0.1667 (reduced coord)
  -0.13825   0.17428   0.33419   0.10637
 kpt#  23, nband=  4, wtk=  0.00231, kpt= -0.0833 -0.2500  0.2500 (reduced coord)
  -0.14219   0.08626   0.37320   0.15630
 kpt#  24, nband=  4, wtk=  0.00231, kpt= -0.4167 -0.1667  0.0000 (reduced coord)
  -0.04095  -0.15315   0.30283   0.16709
 kpt#  25, nband=  4, wtk=  0.00231, kpt= -0.3333 -0.1667  0.0833 (reduced coord)
  -0.06193  -0.04472   0.07940   0.22285
 kpt#  26, nband=  4, wtk=  0.00231, kpt= -0.2500 -0.1667  0.1667 (reduced coord)
  -0.08484   0.12480  -0.07756   0.21937
 kpt#  27, nband=  4, wtk=  0.00231, kpt= -0.1667 -0.1667  0.2500 (reduced coord)
  -0.09908   0.09741   0.23023   0.08651
 kpt#  28, nband=  4, wtk=  0.00231, kpt= -0.0833 -0.1667  0.3333 (reduced coord)
  -0.10301   0.02037   0.42833   0.11429
 kpt#  29, nband=  4, wtk=  0.00231, kpt=  0.5000 -0.0833  0.0000 (reduced coord)
  -0.02643  -0.08073   0.35811   0.12244
 kpt#  30, nband=  4, wtk=  0.00231, kpt= -0.4167 -0.0833  0.0833 (reduced coord)
  -0.02467  -0.14361   0.28779   0.19083
 kpt#  31, nband=  4, wtk=  0.00231, kpt= -0.3333 -0.0833  0.1667 (reduced coord)
  -0.02913  -0.09962   0.11871   0.21527
 kpt#  32, nband=  4, wtk=  0.00231, kpt= -0.2500 -0.0833  0.2500 (reduced coord)
  -0.03892   0.09650  -0.15260   0.19649
 kpt#  33, nband=  4, wtk=  0.00231, kpt= -0.1667 -0.0833  0.3333 (reduced coord)
  -0.04189   0.08329  -0.10780   0.14281
 kpt#  34, nband=  4, wtk=  0.00231, kpt= -0.0833 -0.0833  0.4167 (reduced coord)
  -0.03714   0.00598   0.20714   0.04399
 kpt#  35, nband=  4, wtk=  0.00231, kpt= -0.0833  0.3333  0.0000 (reduced coord)
   0.16697  -0.38664  -0.03486  -0.09369
 kpt#  36, nband=  4, wtk=  0.00231, kpt= -0.1667  0.4167  0.0000 (reduced coord)
   0.04624  -0.08785   0.05478  -0.09086
 kpt#  37, nband=  4, wtk=  0.00231, kpt= -0.0833  0.4167  0.0833 (reduced coord)
   0.12023  -0.24727  -0.03274  -0.06627
 kpt#  38, nband=  4, wtk=  0.00231, kpt= -0.2500  0.5000  0.0000 (reduced coord)
  -0.10003   0.17005   0.19871  -0.04227
 kpt#  39, nband=  4, wtk=  0.00231, kpt= -0.1667  0.5000  0.0833 (reduced coord)
  -0.03842   0.07004   0.08112  -0.03038
 kpt#  40, nband=  4, wtk=  0.00231, kpt= -0.0833  0.5000  0.1667 (reduced coord)
   0.03842  -0.07004  -0.08112   0.03038
 kpt#  41, nband=  4, wtk=  0.00231, kpt= -0.3333 -0.4167  0.0000 (reduced coord)
  -0.12873   0.20473   0.26578   0.03030
 kpt#  42, nband=  4, wtk=  0.00231, kpt= -0.2500 -0.4167  0.0833 (reduced coord)
  -0.12621   0.18048   0.24799   0.04255
 kpt#  43, nband=  4, wtk=  0.00231, kpt= -0.1667 -0.4167  0.1667 (reduced coord)
  -0.09653   0.12826   0.09877   0.10138
 kpt#  44, nband=  4, wtk=  0.00231, kpt= -0.0833 -0.4167  0.2500 (reduced coord)
  -0.04656   0.06256  -0.05566   0.10971
 kpt#  45, nband=  4, wtk=  0.00231, kpt= -0.4167 -0.3333  0.0000 (reduced coord)
  -0.09493   0.15314  -0.09326   0.10399
 kpt#  46, nband=  4, wtk=  0.00231, kpt= -0.3333 -0.3333  0.0833 (reduced coord)
  -0.11183   0.17893   0.08626   0.06715
 kpt#  47, nband=  4, wtk=  0.00231, kpt= -0.2500 -0.3333  0.1667 (reduced coord)
  -0.11762   0.11354   0.17000   0.20459
 kpt#  48, nband=  4, wtk=  0.00231, kpt= -0.1667 -0.3333  0.2500 (reduced coord)
  -0.10726   0.01763   0.23449   0.20276
 kpt#  49, nband=  4, wtk=  0.00231, kpt= -0.0833 -0.3333  0.3333 (reduced coord)
  -0.08568  -0.03105   0.16642   0.16313
 kpt#  50, nband=  4, wtk=  0.00231, kpt=  0.5000 -0.2500  0.0000 (reduced coord)
  -0.07081  -0.08352   0.19498   0.15818
 prteigrs : prtvol=0 or 1, do not print more k-points.


 Eight components of 2nd-order total energy (hartree) are
 1,2,3: 0th-order hamiltonian combined with 1st-order wavefunctions
     kin0=   2.41625672E+01 eigvalue=  -1.49364402E+00  local=  -1.77154708E+01
 4,5,6: 1st-order hamiltonian combined with 1st and 0th-order wfs
     kin1=  -2.10692858E+01  Hartree=   0.00000000E+00     xc=   0.00000000E+00
 7,8,9: eventually, occupation + non-local contributions
    edocc=   0.00000000E+00     enl0=   5.46991554E+00   enl1=   2.22549937E-01
 1-9 gives the relaxation energy (to be shifted if some occ is /=2.0)
   erelax=  -1.04233679E+01
  No Ewald or frozen-wf contrib.: the relaxation energy is the total one
 2DEtotal=   -0.1042336793E+02 Ha. Also 2DEtotal=   -0.283634265880E+03 eV
    (  non-var. 2DEtotal :   -1.0423367931E+01 Ha)

--------------------------------------------------------------------------------
 Perturbation wavevector (in red.coord.)   0.000000  0.000000  0.000000
 Perturbation : derivative vs k along direction   3
 The set of symmetries contains only one element for this perturbation.
 symkpt : not enough symmetry to change the number of k points.

--------------------------------------------------------------------------------

-inwffil : will read wavefunctions from disk file tnlo_9i_WFK
P newkpt: treating      4 bands with npw=      68 for ikpt=   1 by node    0
P newkpt: treating      4 bands with npw=      68 for ikpt=   2 by node    0
P newkpt: treating      4 bands with npw=      68 for ikpt=   3 by node    0
P newkpt: treating      4 bands with npw=      74 for ikpt=   4 by node    0
P newkpt: treating      4 bands with npw=      74 for ikpt=   5 by node    0
P newkpt: treating      4 bands with npw=      73 for ikpt=   6 by node    0
P newkpt: treating      4 bands with npw=      74 for ikpt=   7 by node    0
P newkpt: treating      4 bands with npw=      74 for ikpt=   8 by node    0
P newkpt: treating      4 bands with npw=      73 for ikpt=   9 by node    0
P newkpt: treating      4 bands with npw=      74 for ikpt=  10 by node    0
P newkpt: treating      4 bands with npw=      73 for ikpt=  11 by node    0
P newkpt: treating      4 bands with npw=      73 for ikpt=  12 by node    0
P newkpt: treating      4 bands with npw=      74 for ikpt=  13 by node    0
P newkpt: treating      4 bands with npw=      74 for ikpt=  14 by node    0
P newkpt: treating      4 bands with npw=      75 for ikpt=  15 by node    0
P newkpt: treating      4 bands with npw=      76 for ikpt=  16 by node    0
P newkpt: treating      4 bands with npw=      77 for ikpt=  17 by node    0
P newkpt: treating      4 bands with npw=      77 for ikpt=  18 by node    0
P newkpt: treating      4 bands with npw=      75 for ikpt=  19 by node    0
P newkpt: treating      4 bands with npw=      77 for ikpt=  20 by node    0
P newkpt: treating      4 bands with npw=      77 for ikpt=  21 by node    0
P newkpt: treating      4 bands with npw=      77 for ikpt=  22 by node    0
P newkpt: treating      4 bands with npw=      75 for ikpt=  23 by node    0
P newkpt: treating      4 bands with npw=      75 for ikpt=  24 by node    0
P newkpt: treating      4 bands with npw=      77 for ikpt=  25 by node    0
P newkpt: treating      4 bands with npw=      77 for ikpt=  26 by node    0
P newkpt: treating      4 bands with npw=      75 for ikpt=  27 by node    0
P newkpt: treating      4 bands with npw=      76 for ikpt=  28 by node    0
P newkpt: treating      4 bands with npw=      74 for ikpt=  29 by node    0
P newkpt: treating      4 bands with npw=      76 for ikpt=  30 by node    0
P newkpt: treating      4 bands with npw=      75 for ikpt=  31 by node    0
P newkpt: treating      4 bands with npw=      75 for ikpt=  32 by node    0
P newkpt: treating      4 bands with npw=      76 for ikpt=  33 by node    0
P newkpt: treating      4 bands with npw=      74 for ikpt=  34 by node    0
P newkpt: treating      4 bands with npw=      74 for ikpt=  35 by node    0
P newkpt: treating      4 bands with npw=      79 for ikpt=  36 by node    0
P newkpt: treating      4 bands with npw=      76 for ikpt=  37 by node    0
P newkpt: treating      4 bands with npw=      77 for ikpt=  38 by node    0
P newkpt: treating      4 bands with npw=      78 for ikpt=  39 by node    0
P newkpt: treating      4 bands with npw=      78 for ikpt=  40 by node    0
P newkpt: treating      4 bands with npw=      79 for ikpt=  41 by node    0
P newkpt: treating      4 bands with npw=      80 for ikpt=  42 by node    0
P newkpt: treating      4 bands with npw=      77 for ikpt=  43 by node    0
P newkpt: treating      4 bands with npw=      77 for ikpt=  44 by node    0
P newkpt: treating      4 bands with npw=      79 for ikpt=  45 by node    0
P newkpt: treating      4 bands with npw=      79 for ikpt=  46 by node    0
P newkpt: treating      4 bands with npw=      80 for ikpt=  47 by node    0
P newkpt: treating      4 bands with npw=      77 for ikpt=  48 by node    0
P newkpt: treating      4 bands with npw=      77 for ikpt=  49 by node    0
P newkpt: treating      4 bands with npw=      77 for ikpt=  50 by node    0
 newkpt: prtvol=0 or 1, do not print more k-points.

--------------------------------------------------------------------------------

-inwffil : will read wavefunctions from disk file tnlo_9i_WFK
P newkpt: treating      4 bands with npw=      68 for ikpt=   1 by node    0
P newkpt: treating      4 bands with npw=      68 for ikpt=   2 by node    0
P newkpt: treating      4 bands with npw=      68 for ikpt=   3 by node    0
P newkpt: treating      4 bands with npw=      74 for ikpt=   4 by node    0
P newkpt: treating      4 bands with npw=      74 for ikpt=   5 by node    0
P newkpt: treating      4 bands with npw=      73 for ikpt=   6 by node    0
P newkpt: treating      4 bands with npw=      74 for ikpt=   7 by node    0
P newkpt: treating      4 bands with npw=      74 for ikpt=   8 by node    0
P newkpt: treating      4 bands with npw=      73 for ikpt=   9 by node    0
P newkpt: treating      4 bands with npw=      74 for ikpt=  10 by node    0
P newkpt: treating      4 bands with npw=      73 for ikpt=  11 by node    0
P newkpt: treating      4 bands with npw=      73 for ikpt=  12 by node    0
P newkpt: treating      4 bands with npw=      74 for ikpt=  13 by node    0
P newkpt: treating      4 bands with npw=      74 for ikpt=  14 by node    0
P newkpt: treating      4 bands with npw=      75 for ikpt=  15 by node    0
P newkpt: treating      4 bands with npw=      76 for ikpt=  16 by node    0
P newkpt: treating      4 bands with npw=      77 for ikpt=  17 by node    0
P newkpt: treating      4 bands with npw=      77 for ikpt=  18 by node    0
P newkpt: treating      4 bands with npw=      75 for ikpt=  19 by node    0
P newkpt: treating      4 bands with npw=      77 for ikpt=  20 by node    0
P newkpt: treating      4 bands with npw=      77 for ikpt=  21 by node    0
P newkpt: treating      4 bands with npw=      77 for ikpt=  22 by node    0
P newkpt: treating      4 bands with npw=      75 for ikpt=  23 by node    0
P newkpt: treating      4 bands with npw=      75 for ikpt=  24 by node    0
P newkpt: treating      4 bands with npw=      77 for ikpt=  25 by node    0
P newkpt: treating      4 bands with npw=      77 for ikpt=  26 by node    0
P newkpt: treating      4 bands with npw=      75 for ikpt=  27 by node    0
P newkpt: treating      4 bands with npw=      76 for ikpt=  28 by node    0
P newkpt: treating      4 bands with npw=      74 for ikpt=  29 by node    0
P newkpt: treating      4 bands with npw=      76 for ikpt=  30 by node    0
P newkpt: treating      4 bands with npw=      75 for ikpt=  31 by node    0
P newkpt: treating      4 bands with npw=      75 for ikpt=  32 by node    0
P newkpt: treating      4 bands with npw=      76 for ikpt=  33 by node    0
P newkpt: treating      4 bands with npw=      74 for ikpt=  34 by node    0
P newkpt: treating      4 bands with npw=      74 for ikpt=  35 by node    0
P newkpt: treating      4 bands with npw=      79 for ikpt=  36 by node    0
P newkpt: treating      4 bands with npw=      76 for ikpt=  37 by node    0
P newkpt: treating      4 bands with npw=      77 for ikpt=  38 by node    0
P newkpt: treating      4 bands with npw=      78 for ikpt=  39 by node    0
P newkpt: treating      4 bands with npw=      78 for ikpt=  40 by node    0
P newkpt: treating      4 bands with npw=      79 for ikpt=  41 by node    0
P newkpt: treating      4 bands with npw=      80 for ikpt=  42 by node    0
P newkpt: treating      4 bands with npw=      77 for ikpt=  43 by node    0
P newkpt: treating      4 bands with npw=      77 for ikpt=  44 by node    0
P newkpt: treating      4 bands with npw=      79 for ikpt=  45 by node    0
P newkpt: treating      4 bands with npw=      79 for ikpt=  46 by node    0
P newkpt: treating      4 bands with npw=      80 for ikpt=  47 by node    0
P newkpt: treating      4 bands with npw=      77 for ikpt=  48 by node    0
P newkpt: treating      4 bands with npw=      77 for ikpt=  49 by node    0
P newkpt: treating      4 bands with npw=      77 for ikpt=  50 by node    0
 newkpt: prtvol=0 or 1, do not print more k-points.

 Initialisation of the first-order wave-functions :
  ireadwf=   0
P newkpt: treating      4 bands with npw=      68 for ikpt=   1 by node    0
P newkpt: treating      4 bands with npw=      68 for ikpt=   2 by node    0
P newkpt: treating      4 bands with npw=      68 for ikpt=   3 by node    0
P newkpt: treating      4 bands with npw=      74 for ikpt=   4 by node    0
P newkpt: treating      4 bands with npw=      74 for ikpt=   5 by node    0
P newkpt: treating      4 bands with npw=      73 for ikpt=   6 by node    0
P newkpt: treating      4 bands with npw=      74 for ikpt=   7 by node    0
P newkpt: treating      4 bands with npw=      74 for ikpt=   8 by node    0
P newkpt: treating      4 bands with npw=      73 for ikpt=   9 by node    0
P newkpt: treating      4 bands with npw=      74 for ikpt=  10 by node    0
P newkpt: treating      4 bands with npw=      73 for ikpt=  11 by node    0
P newkpt: treating      4 bands with npw=      73 for ikpt=  12 by node    0
[...]
 prteigrs : about to open file tnlo_9_1WF1_EIG
 Expectation of eigenvalue derivatives (hartree) for nkpt= 432  k points:
  (in case of degenerate eigenvalues, averaged derivative)
 kpt#   1, nband=  4, wtk=  0.00231, kpt= -0.0833 -0.1667  0.0000 (reduced coord)
   0.06058  -0.23881  -0.12557  -0.13979
 kpt#   2, nband=  4, wtk=  0.00231, kpt= -0.1667 -0.0833  0.0000 (reduced coord)
   0.06058  -0.23881  -0.12557  -0.13979
 kpt#   3, nband=  4, wtk=  0.00231, kpt= -0.0833 -0.0833  0.0833 (reduced coord)
   0.09999  -0.55190  -0.11816  -0.07727
 kpt#   4, nband=  4, wtk=  0.00231, kpt= -0.0833 -0.3333  0.0000 (reduced coord)
   0.08534  -0.14854  -0.09843  -0.17603
 kpt#   5, nband=  4, wtk=  0.00231, kpt= -0.1667 -0.2500  0.0000 (reduced coord)
   0.09891  -0.22757  -0.16120  -0.12622
 kpt#   6, nband=  4, wtk=  0.00231, kpt= -0.0833 -0.2500  0.0833 (reduced coord)
   0.12721  -0.21630  -0.40931  -0.05043
 kpt#   7, nband=  4, wtk=  0.00231, kpt= -0.2500 -0.1667  0.0000 (reduced coord)
   0.09891  -0.22757  -0.16120  -0.12622
 kpt#   8, nband=  4, wtk=  0.00231, kpt= -0.1667 -0.1667  0.0833 (reduced coord)
   0.13474  -0.44105  -0.14248  -0.10326
 kpt#   9, nband=  4, wtk=  0.00231, kpt= -0.0833 -0.1667  0.1667 (reduced coord)
   0.15976  -0.46290  -0.15195  -0.10687
 kpt#  10, nband=  4, wtk=  0.00231, kpt= -0.3333 -0.0833  0.0000 (reduced coord)
   0.08534  -0.14854  -0.09843  -0.17603
 kpt#  11, nband=  4, wtk=  0.00231, kpt= -0.2500 -0.0833  0.0833 (reduced coord)
   0.12721  -0.21630  -0.40931  -0.05043
 kpt#  12, nband=  4, wtk=  0.00231, kpt= -0.1667 -0.0833  0.1667 (reduced coord)
   0.15976  -0.46290  -0.15195  -0.10687
 kpt#  13, nband=  4, wtk=  0.00231, kpt= -0.0833 -0.0833  0.2500 (reduced coord)
   0.17495  -0.47378  -0.05301  -0.11414
 kpt#  14, nband=  4, wtk=  0.00231, kpt= -0.0833  0.5000  0.0000 (reduced coord)
   0.03714  -0.00598  -0.20714  -0.04399
 kpt#  15, nband=  4, wtk=  0.00231, kpt= -0.1667 -0.4167  0.0000 (reduced coord)
   0.09908  -0.09741  -0.23023  -0.08651
 kpt#  16, nband=  4, wtk=  0.00231, kpt= -0.0833 -0.4167  0.0833 (reduced coord)
   0.10301  -0.02037  -0.42833  -0.11429
 kpt#  17, nband=  4, wtk=  0.00231, kpt= -0.2500 -0.3333  0.0000 (reduced coord)
   0.12135  -0.21250  -0.13250  -0.10140
 kpt#  18, nband=  4, wtk=  0.00231, kpt= -0.1667 -0.3333  0.0833 (reduced coord)
   0.13825  -0.17428  -0.33419  -0.10637
 kpt#  19, nband=  4, wtk=  0.00231, kpt= -0.0833 -0.3333  0.1667 (reduced coord)
   0.14219  -0.08626  -0.37320  -0.15630
 kpt#  20, nband=  4, wtk=  0.00231, kpt= -0.3333 -0.2500  0.0000 (reduced coord)
   0.12135  -0.21250  -0.13250  -0.10140
 kpt#  21, nband=  4, wtk=  0.00231, kpt= -0.2500 -0.2500  0.0833 (reduced coord)
   0.14929  -0.32744  -0.21985  -0.06948
 kpt#  22, nband=  4, wtk=  0.00231, kpt= -0.1667 -0.2500  0.1667 (reduced coord)
   0.16116  -0.34379  -0.17723  -0.10290
 kpt#  23, nband=  4, wtk=  0.00231, kpt= -0.0833 -0.2500  0.2500 (reduced coord)
   0.15197  -0.28238  -0.10189  -0.13752
 kpt#  24, nband=  4, wtk=  0.00231, kpt= -0.4167 -0.1667  0.0000 (reduced coord)
   0.09908  -0.09741  -0.23023  -0.08651
 kpt#  25, nband=  4, wtk=  0.00231, kpt= -0.3333 -0.1667  0.0833 (reduced coord)
   0.13825  -0.17428  -0.33419  -0.10637
 kpt#  26, nband=  4, wtk=  0.00231, kpt= -0.2500 -0.1667  0.1667 (reduced coord)
   0.16116  -0.34379  -0.17723  -0.10290
 kpt#  27, nband=  4, wtk=  0.00231, kpt= -0.1667 -0.1667  0.2500 (reduced coord)
   0.15720  -0.34797  -0.15762  -0.00593
 kpt#  28, nband=  4, wtk=  0.00231, kpt= -0.0833 -0.1667  0.3333 (reduced coord)
   0.12023  -0.24727  -0.03274  -0.06627
 kpt#  29, nband=  4, wtk=  0.00231, kpt=  0.5000 -0.0833  0.0000 (reduced coord)
   0.03714  -0.00598  -0.20714  -0.04399
 kpt#  30, nband=  4, wtk=  0.00231, kpt= -0.4167 -0.0833  0.0833 (reduced coord)
   0.10301  -0.02037  -0.42833  -0.11429
 kpt#  31, nband=  4, wtk=  0.00231, kpt= -0.3333 -0.0833  0.1667 (reduced coord)
   0.14219  -0.08626  -0.37320  -0.15630
 kpt#  32, nband=  4, wtk=  0.00231, kpt= -0.2500 -0.0833  0.2500 (reduced coord)
   0.15197  -0.28238  -0.10189  -0.13752
 kpt#  33, nband=  4, wtk=  0.00231, kpt= -0.1667 -0.0833  0.3333 (reduced coord)
   0.12023  -0.24727  -0.03274  -0.06627
 kpt#  34, nband=  4, wtk=  0.00231, kpt= -0.0833 -0.0833  0.4167 (reduced coord)
   0.04784  -0.09269  -0.05617   0.03446
 kpt#  35, nband=  4, wtk=  0.00231, kpt= -0.0833  0.3333  0.0000 (reduced coord)
  -0.03129   0.14768  -0.19924   0.01897
 kpt#  36, nband=  4, wtk=  0.00231, kpt= -0.1667  0.4167  0.0000 (reduced coord)
   0.02233   0.07622  -0.24253  -0.03546
 kpt#  37, nband=  4, wtk=  0.00231, kpt= -0.0833  0.4167  0.0833 (reduced coord)
   0.02467   0.14361  -0.28779  -0.19083
 kpt#  38, nband=  4, wtk=  0.00231, kpt= -0.2500  0.5000  0.0000 (reduced coord)
   0.08542  -0.04327  -0.19684  -0.05795
 kpt#  39, nband=  4, wtk=  0.00231, kpt= -0.1667  0.5000  0.0833 (reduced coord)
   0.07950   0.05418  -0.28125  -0.20780
 kpt#  40, nband=  4, wtk=  0.00231, kpt= -0.0833  0.5000  0.1667 (reduced coord)
   0.07217   0.11453  -0.30491  -0.19775
 kpt#  41, nband=  4, wtk=  0.00231, kpt= -0.3333 -0.4167  0.0000 (reduced coord)
   0.11183  -0.17893  -0.08626  -0.06715
 kpt#  42, nband=  4, wtk=  0.00231, kpt= -0.2500 -0.4167  0.0833 (reduced coord)
   0.11762  -0.11354  -0.17000  -0.20459
 kpt#  43, nband=  4, wtk=  0.00231, kpt= -0.1667 -0.4167  0.1667 (reduced coord)
   0.10726  -0.01763  -0.23449  -0.20276
 kpt#  44, nband=  4, wtk=  0.00231, kpt= -0.0833 -0.4167  0.2500 (reduced coord)
   0.08568   0.03105  -0.16642  -0.16313
 kpt#  45, nband=  4, wtk=  0.00231, kpt= -0.4167 -0.3333  0.0000 (reduced coord)
   0.11183  -0.17893  -0.08626  -0.06715
 kpt#  46, nband=  4, wtk=  0.00231, kpt= -0.3333 -0.3333  0.0833 (reduced coord)
   0.12873  -0.20473  -0.26578  -0.03030
 kpt#  47, nband=  4, wtk=  0.00231, kpt= -0.2500 -0.3333  0.1667 (reduced coord)
   0.12621  -0.18048  -0.24799  -0.04255
 kpt#  48, nband=  4, wtk=  0.00231, kpt= -0.1667 -0.3333  0.2500 (reduced coord)
   0.09653  -0.12826  -0.09877  -0.10138
 kpt#  49, nband=  4, wtk=  0.00231, kpt= -0.0833 -0.3333  0.3333 (reduced coord)
   0.04656  -0.06256   0.05566  -0.10971
 kpt#  50, nband=  4, wtk=  0.00231, kpt=  0.5000 -0.2500  0.0000 (reduced coord)
   0.08542  -0.04327  -0.19684  -0.05795
 prteigrs : prtvol=0 or 1, do not print more k-points.


 Eight components of 2nd-order total energy (hartree) are
 1,2,3: 0th-order hamiltonian combined with 1st-order wavefunctions
     kin0=   2.41625672E+01 eigvalue=  -1.49364402E+00  local=  -1.77154708E+01
 4,5,6: 1st-order hamiltonian combined with 1st and 0th-order wfs
     kin1=  -2.10692858E+01  Hartree=   0.00000000E+00     xc=   0.00000000E+00
 7,8,9: eventually, occupation + non-local contributions
    edocc=   0.00000000E+00     enl0=   5.46991554E+00   enl1=   2.22549937E-01
 1-9 gives the relaxation energy (to be shifted if some occ is /=2.0)
   erelax=  -1.04233679E+01
  No Ewald or frozen-wf contrib.: the relaxation energy is the total one
 2DEtotal=   -0.1042336793E+02 Ha. Also 2DEtotal=   -0.283634265875E+03 eV
    (  non-var. 2DEtotal :   -1.0423367931E+01 Ha)
================================================================================

 ---- first-order wavefunction calculations are completed ----


 Total localisation tensor (bohr^2) in cartesian coordinates
  WARNING : still subject to testing - especially symmetries.
      direction              matrix element
   alpha     beta       real part   imaginary part
     1        1       3.5809861650    0.0000000000
     1        2       1.7904930825    0.0000000000
     1        3       1.7904930825    0.0000000000
     2        1       1.7904930825    0.0000000000
     2        2       3.5809861650    0.0000000000
     2        3       1.7904930825    0.0000000000
     3        1       1.7904930825    0.0000000000
     3        2       1.7904930825    0.0000000000
     3        3       3.5809861650    0.0000000000

 respfn : d/dk was computed, but no 2DTE, so no DDB output.

== END DATASET(S) ==============================================================
================================================================================
  
 -outvars: echo values of variables after computation  --------
            acell      1.0530000000E+01  1.0530000000E+01  1.0530000000E+01 Bohr
              amu      2.69815390E+01  7.49215900E+01
          dilatmx      1.05000000E+00
             ecut      2.80000000E+00 Hartree
           ecutsm      5.00000000E-01 Hartree
           etotal     -1.0423367931E+01
            fcart      0.0000000000E+00  0.0000000000E+00  0.0000000000E+00
                       0.0000000000E+00  0.0000000000E+00  0.0000000000E+00
-          fftalg         112
           irdwfk           1
              ixc           3
              kpt     -8.33333333E-02 -1.66666667E-01  0.00000000E+00
                      -1.66666667E-01 -8.33333333E-02  0.00000000E+00
                      -8.33333333E-02 -8.33333333E-02  8.33333333E-02
                      -8.33333333E-02 -3.33333333E-01  0.00000000E+00
                      -1.66666667E-01 -2.50000000E-01  0.00000000E+00
                      -8.33333333E-02 -2.50000000E-01  8.33333333E-02
                      -2.50000000E-01 -1.66666667E-01  0.00000000E+00
                      -1.66666667E-01 -1.66666667E-01  8.33333333E-02
                      -8.33333333E-02 -1.66666667E-01  1.66666667E-01
                      -3.33333333E-01 -8.33333333E-02  0.00000000E+00
                      -2.50000000E-01 -8.33333333E-02  8.33333333E-02
                      -1.66666667E-01 -8.33333333E-02  1.66666667E-01
                      -8.33333333E-02 -8.33333333E-02  2.50000000E-01
                      -8.33333333E-02  5.00000000E-01  0.00000000E+00
                      -1.66666667E-01 -4.16666667E-01  0.00000000E+00
                      -8.33333333E-02 -4.16666667E-01  8.33333333E-02
                      -2.50000000E-01 -3.33333333E-01  0.00000000E+00
                      -1.66666667E-01 -3.33333333E-01  8.33333333E-02
                      -8.33333333E-02 -3.33333333E-01  1.66666667E-01
                      -3.33333333E-01 -2.50000000E-01  0.00000000E+00
                      -2.50000000E-01 -2.50000000E-01  8.33333333E-02
                      -1.66666667E-01 -2.50000000E-01  1.66666667E-01
                      -8.33333333E-02 -2.50000000E-01  2.50000000E-01
                      -4.16666667E-01 -1.66666667E-01  0.00000000E+00
                      -3.33333333E-01 -1.66666667E-01  8.33333333E-02
                      -2.50000000E-01 -1.66666667E-01  1.66666667E-01
                      -1.66666667E-01 -1.66666667E-01  2.50000000E-01
                      -8.33333333E-02 -1.66666667E-01  3.33333333E-01
                       5.00000000E-01 -8.33333333E-02  0.00000000E+00
                      -4.16666667E-01 -8.33333333E-02  8.33333333E-02
                      -3.33333333E-01 -8.33333333E-02  1.66666667E-01
                      -2.50000000E-01 -8.33333333E-02  2.50000000E-01
                      -1.66666667E-01 -8.33333333E-02  3.33333333E-01
                      -8.33333333E-02 -8.33333333E-02  4.16666667E-01
                      -8.33333333E-02  3.33333333E-01  0.00000000E+00
                      -1.66666667E-01  4.16666667E-01  0.00000000E+00
                      -8.33333333E-02  4.16666667E-01  8.33333333E-02
                      -2.50000000E-01  5.00000000E-01  0.00000000E+00
                      -1.66666667E-01  5.00000000E-01  8.33333333E-02
                      -8.33333333E-02  5.00000000E-01  1.66666667E-01
                      -3.33333333E-01 -4.16666667E-01  0.00000000E+00
                      -2.50000000E-01 -4.16666667E-01  8.33333333E-02
                      -1.66666667E-01 -4.16666667E-01  1.66666667E-01
                      -8.33333333E-02 -4.16666667E-01  2.50000000E-01
                      -4.16666667E-01 -3.33333333E-01  0.00000000E+00
                      -3.33333333E-01 -3.33333333E-01  8.33333333E-02
                      -2.50000000E-01 -3.33333333E-01  1.66666667E-01
                      -1.66666667E-01 -3.33333333E-01  2.50000000E-01
                      -8.33333333E-02 -3.33333333E-01  3.33333333E-01
                       5.00000000E-01 -2.50000000E-01  0.00000000E+00
                       outvar_i_n : Printing only first  50 k-points.
           kptopt           2
         kptrlatt        6   -6    6     -6    6    6     -6   -6    6
          kptrlen      6.31800000E+01
P           mkmem         432
P          mkqmem         432
P          mk1mem         432
            natom           2
            nband           4
            ngfft          12      12      12
             nkpt         432
            nstep         100
             nsym          24
           ntypat           2
              occ      2.000000  2.000000  2.000000  2.000000
        optdriver           1
            rfdir           1       1       1
           rfelfd           2
            rprim      0.0000000000E+00  5.0000000000E-01  5.0000000000E-01
                       5.0000000000E-01  0.0000000000E+00  5.0000000000E-01
                       5.0000000000E-01  5.0000000000E-01  0.0000000000E+00
           shiftk      5.00000000E-01  5.00000000E-01  5.00000000E-01
          spgroup         216
           strten      0.0000000000E+00  0.0000000000E+00  0.0000000000E+00
                       0.0000000000E+00  0.0000000000E+00  0.0000000000E+00
           symrel      1  0  0   0  1  0   0  0  1       0 -1  1   0 -1  0   1 -1  0
                      -1  0  0  -1  0  1  -1  1  0       0  1 -1   1  0 -1   0  0 -1
                      -1  0  0  -1  1  0  -1  0  1       0 -1  1   1 -1  0   0 -1  0
                       1  0  0   0  0  1   0  1  0       0  1 -1   0  0 -1   1  0 -1
                      -1  0  1  -1  1  0  -1  0  0       0 -1  0   1 -1  0   0 -1  1
                       1  0 -1   0  0 -1   0  1 -1       0  1  0   0  0  1   1  0  0
                       1  0 -1   0  1 -1   0  0 -1       0 -1  0   0 -1  1   1 -1  0
                      -1  0  1  -1  0  0  -1  1  0       0  1  0   1  0  0   0  0  1
                       0  0 -1   0  1 -1   1  0 -1       1 -1  0   0 -1  1   0 -1  0
                       0  0  1   1  0  0   0  1  0      -1  1  0  -1  0  0  -1  0  1
                       0  0  1   0  1  0   1  0  0       1 -1  0   0 -1  0   0 -1  1
                       0  0 -1   1  0 -1   0  1 -1      -1  1  0  -1  0  1  -1  0  0
           tolwfr      1.00000000E-22
            typat      1  2
              wtk        0.00231    0.00231    0.00231    0.00231    0.00231    0.00231
                         0.00231    0.00231    0.00231    0.00231    0.00231    0.00231
                         0.00231    0.00231    0.00231    0.00231    0.00231    0.00231
                         0.00231    0.00231    0.00231    0.00231    0.00231    0.00231
                         0.00231    0.00231    0.00231    0.00231    0.00231    0.00231
                         0.00231    0.00231    0.00231    0.00231    0.00231    0.00231
                         0.00231    0.00231    0.00231    0.00231    0.00231    0.00231
                         0.00231    0.00231    0.00231    0.00231    0.00231    0.00231
                         0.00231    0.00231
                       outvars : Printing only first  50 k-points.
           xangst      0.0000000000E+00  0.0000000000E+00  0.0000000000E+00
                       1.3930590016E+00  1.3930590016E+00  1.3930590016E+00
            xcart      0.0000000000E+00  0.0000000000E+00  0.0000000000E+00
                       2.6325000000E+00  2.6325000000E+00  2.6325000000E+00
             xred      0.0000000000E+00  0.0000000000E+00  0.0000000000E+00
                       2.5000000000E-01  2.5000000000E-01  2.5000000000E-01
            znucl       13.00000   33.00000

================================================================================


- Timing analysis has been suppressed with timopt=0



================================================================================

 Suggested references for the acknowledgment of ABINIT usage.

 The users of ABINIT have little formal obligations with respect to the ABINIT group
 (those specified in the GNU General Public License, http://www.gnu.org/copyleft/gpl.txt).
 However, it is common practice in the scientific literature,
 to acknowledge the efforts of people that have made the research possible.
 In this spirit, please find below suggested citations of work written by ABINIT developers,
 corresponding to implementations inside of ABINIT that you have used in the present run.
 Note also that it will be of great value to readers of publications presenting these results,
 to read papers enabling them to understand the theoretical formalism and details
 of the ABINIT implementation.
 For information on why they are suggested, see also http://www.abinit.org/about/?text=acknowledgments.

 [1] First-principles responses of solids to atomic displacements and homogeneous electric fields:,
 implementation of a conjugate-gradient algorithm. X. Gonze, Phys. Rev. B55, 10337 (1997).
 Comment : Non-vanishing rfphon and/or rfelfd, in the norm-conserving case.

 [2] Dynamical matrices, Born effective charges, dielectric permittivity tensors, and ,
 interatomic force constants from density-functional perturbation theory,
 X. Gonze and C. Lee, Phys. Rev. B55, 10355 (1997).
 Comment : Non-vanishing rfphon and/or rfelfd, in the norm-conserving case.

 [3] ABINIT : First-principles approach of materials and nanosystem properties.
 X. Gonze, B. Amadon, P.-M. Anglade, J.-M. Beuken, F. Bottin, P. Boulanger, F. Bruneval,
 D. Caliste, R. Caracas, M. Cote, T. Deutsch, L. Genovese, Ph. Ghosez, M. Giantomassi
 S. Goedecker, D.R. Hamann, P. Hermet, F. Jollet, G. Jomard, S. Leroux, M. Mancini, S. Mazevet,
 M.J.T. Oliveira, G. Onida, Y. Pouillon, T. Rangel, G.-M. Rignanese, D. Sangalli, R. Shaltaf,
 M. Torrent, M.J. Verstraete, G. Zerah, J.W. Zwanziger
 Computer Phys. Comm. 180, 2582-2615 (2009).
 Comment : the third generic paper describing the ABINIT project.
 Note that a version of this paper, that is not formatted for Computer Phys. Comm. 
 is available at http://www.abinit.org/about/ABINIT_CPC_v10.pdf .
 The licence allows the authors to put it on the Web.

 [4] A brief introduction to the ABINIT software package.
 X. Gonze, G.-M. Rignanese, M. Verstraete, J.-M. Beuken, Y. Pouillon, R. Caracas, F. Jollet,
 M. Torrent, G. Zerah, M. Mikami, Ph. Ghosez, M. Veithen, J.-Y. Raty, V. Olevano, F. Bruneval,
 L. Reining, R. Godby, G. Onida, D.R. Hamann, and D.C. Allan.
 Z. Kristallogr. 220, 558-562 (2005).
 Comment : the second generic paper describing the ABINIT project. Note that this paper
 should be cited especially if you are using the GW part of ABINIT, as several authors
 of this part are not in the list of authors of the first or third paper.
 The .pdf of the latter paper is available at http://www.abinit.org/about/zfk_0505-06_558-562.pdf.
 Note that it should not redistributed (Copyright by Oldenburg Wissenshaftverlag,
 the licence allows the authors to put it on the Web).


 And optionally :

 [5] First-principles computation of material properties : the ABINIT software project. 
 X. Gonze, J.-M. Beuken, R. Caracas, F. Detraux, M. Fuchs, G.-M. Rignanese, L. Sindic,
 M. Verstraete, G. Zerah, F. Jollet, M. Torrent, A. Roy, M. Mikami, Ph. Ghosez, J.-Y. Raty, D.C. Allan.
 Computational Materials Science 25, 478-492 (2002). http://dx.doi.org/10.1016/S0927-0256(02)00325-7
 Comment : the original paper describing the ABINIT project.
-
- Proc.   0 individual time (sec): cpu=         11.1  wall=         11.2

================================================================================

 Calculation completed.
.Delivered    3 WARNINGs and   1 COMMENTs to log file.
+Overall time at end (sec) : cpu=         11.1  wall=         11.2
