
 **** DERIVATIVE DATABASE ****    
+DDB, Version number    100401

 linear + nonlinear response calculation of AlAs                                                                                                                                                                                                                         

    usepaw         0
     natom         2
      nkpt       432
    nsppol         1
      nsym        24
    ntypat         2
    occopt         1
     nband         4
     acell  0.10530000000000D+02  0.10530000000000D+02  0.10530000000000D+02
       amu  0.26981539000000D+02  0.74921590000000D+02
   dilatmx  0.10500000000000D+01
      ecut  0.28000000000000D+01
    ecutsm  0.50000000000000D+00
     intxc         0
      iscf         5
       ixc         3
       kpt -0.83333333333334D-01 -0.16666666666667D+00  0.00000000000000D+00
           -0.16666666666667D+00 -0.83333333333334D-01  0.00000000000000D+00
           -0.83333333333334D-01 -0.83333333333334D-01  0.83333333333333D-01
           -0.83333333333334D-01 -0.33333333333333D+00  0.00000000000000D+00
           -0.16666666666667D+00 -0.25000000000000D+00  0.00000000000000D+00
           -0.83333333333334D-01 -0.25000000000000D+00  0.83333333333333D-01
           -0.25000000000000D+00 -0.16666666666667D+00  0.00000000000000D+00
           -0.16666666666667D+00 -0.16666666666667D+00  0.83333333333333D-01
           -0.83333333333334D-01 -0.16666666666667D+00  0.16666666666667D+00
           -0.33333333333333D+00 -0.83333333333334D-01  0.00000000000000D+00
           -0.25000000000000D+00 -0.83333333333334D-01  0.83333333333333D-01
           -0.16666666666667D+00 -0.83333333333334D-01  0.16666666666667D+00
           -0.83333333333334D-01 -0.83333333333334D-01  0.25000000000000D+00
           -0.83333333333334D-01  0.50000000000000D+00  0.00000000000000D+00
           -0.16666666666667D+00 -0.41666666666667D+00  0.00000000000000D+00
           -0.83333333333334D-01 -0.41666666666667D+00  0.83333333333333D-01
           -0.25000000000000D+00 -0.33333333333333D+00  0.00000000000000D+00
           -0.16666666666667D+00 -0.33333333333333D+00  0.83333333333333D-01
           -0.83333333333334D-01 -0.33333333333333D+00  0.16666666666667D+00
           -0.33333333333333D+00 -0.25000000000000D+00  0.00000000000000D+00
           -0.25000000000000D+00 -0.25000000000000D+00  0.83333333333333D-01
           -0.16666666666667D+00 -0.25000000000000D+00  0.16666666666667D+00
           -0.83333333333334D-01 -0.25000000000000D+00  0.25000000000000D+00
           -0.41666666666667D+00 -0.16666666666667D+00  0.00000000000000D+00
           -0.33333333333333D+00 -0.16666666666667D+00  0.83333333333333D-01
           -0.25000000000000D+00 -0.16666666666667D+00  0.16666666666667D+00
           -0.16666666666667D+00 -0.16666666666667D+00  0.25000000000000D+00
           -0.83333333333334D-01 -0.16666666666667D+00  0.33333333333333D+00
            0.50000000000000D+00 -0.83333333333334D-01  0.00000000000000D+00
           -0.41666666666667D+00 -0.83333333333334D-01  0.83333333333333D-01
           -0.33333333333333D+00 -0.83333333333334D-01  0.16666666666667D+00
           -0.25000000000000D+00 -0.83333333333334D-01  0.25000000000000D+00
           -0.16666666666667D+00 -0.83333333333334D-01  0.33333333333333D+00
           -0.83333333333334D-01 -0.83333333333334D-01  0.41666666666667D+00
           -0.83333333333334D-01  0.33333333333333D+00  0.00000000000000D+00
           -0.16666666666667D+00  0.41666666666667D+00  0.00000000000000D+00
           -0.83333333333334D-01  0.41666666666667D+00  0.83333333333333D-01
           -0.25000000000000D+00  0.50000000000000D+00  0.00000000000000D+00
           -0.16666666666667D+00  0.50000000000000D+00  0.83333333333333D-01
           -0.83333333333334D-01  0.50000000000000D+00  0.16666666666667D+00
           -0.33333333333333D+00 -0.41666666666667D+00  0.00000000000000D+00
           -0.25000000000000D+00 -0.41666666666667D+00  0.83333333333333D-01
           -0.16666666666667D+00 -0.41666666666667D+00  0.16666666666667D+00
           -0.83333333333334D-01 -0.41666666666667D+00  0.25000000000000D+00
           -0.41666666666667D+00 -0.33333333333333D+00  0.00000000000000D+00
           -0.33333333333333D+00 -0.33333333333333D+00  0.83333333333333D-01
           -0.25000000000000D+00 -0.33333333333333D+00  0.16666666666667D+00
           -0.16666666666667D+00 -0.33333333333333D+00  0.25000000000000D+00
           -0.83333333333334D-01 -0.33333333333333D+00  0.33333333333333D+00
            0.50000000000000D+00 -0.25000000000000D+00  0.00000000000000D+00
           -0.41666666666667D+00 -0.25000000000000D+00  0.83333333333333D-01
           -0.33333333333333D+00 -0.25000000000000D+00  0.16666666666667D+00
           -0.25000000000000D+00 -0.25000000000000D+00  0.25000000000000D+00
           -0.16666666666667D+00 -0.25000000000000D+00  0.33333333333333D+00
           -0.83333333333334D-01 -0.25000000000000D+00  0.41666666666667D+00
            0.41666666666667D+00 -0.16666666666667D+00  0.00000000000000D+00
            0.50000000000000D+00 -0.16666666666667D+00  0.83333333333333D-01
           -0.41666666666667D+00 -0.16666666666667D+00  0.16666666666667D+00
           -0.33333333333333D+00 -0.16666666666667D+00  0.25000000000000D+00
           -0.25000000000000D+00 -0.16666666666667D+00  0.33333333333333D+00
           -0.16666666666667D+00 -0.16666666666667D+00  0.41666666666667D+00
           -0.83333333333334D-01 -0.16666666666667D+00  0.50000000000000D+00
            0.33333333333333D+00 -0.83333333333334D-01  0.00000000000000D+00
            0.41666666666667D+00 -0.83333333333334D-01  0.83333333333333D-01
            0.50000000000000D+00 -0.83333333333334D-01  0.16666666666667D+00
           -0.41666666666667D+00 -0.83333333333334D-01  0.25000000000000D+00
           -0.33333333333333D+00 -0.83333333333334D-01  0.33333333333333D+00
           -0.25000000000000D+00 -0.83333333333334D-01  0.41666666666667D+00
           -0.16666666666667D+00 -0.83333333333334D-01  0.50000000000000D+00
           -0.83333333333334D-01 -0.83333333333334D-01 -0.41666666666667D+00
           -0.83333333333334D-01  0.16666666666667D+00  0.00000000000000D+00
           -0.16666666666667D+00  0.25000000000000D+00  0.00000000000000D+00
           -0.83333333333334D-01  0.25000000000000D+00  0.83333333333333D-01
           -0.25000000000000D+00  0.33333333333333D+00  0.00000000000000D+00
           -0.16666666666667D+00  0.33333333333333D+00  0.83333333333333D-01
           -0.83333333333334D-01  0.33333333333333D+00  0.16666666666667D+00
           -0.33333333333333D+00  0.41666666666667D+00  0.00000000000000D+00
           -0.25000000000000D+00  0.41666666666667D+00  0.83333333333333D-01
           -0.16666666666667D+00  0.41666666666667D+00  0.16666666666667D+00
           -0.83333333333334D-01  0.41666666666667D+00  0.25000000000000D+00
           -0.41666666666667D+00  0.50000000000000D+00  0.00000000000000D+00
           -0.33333333333333D+00  0.50000000000000D+00  0.83333333333333D-01
           -0.25000000000000D+00  0.50000000000000D+00  0.16666666666667D+00
           -0.16666666666667D+00  0.50000000000000D+00  0.25000000000000D+00
           -0.83333333333334D-01  0.50000000000000D+00  0.33333333333333D+00
            0.50000000000000D+00 -0.41666666666667D+00  0.00000000000000D+00
           -0.41666666666667D+00 -0.41666666666667D+00  0.83333333333333D-01
           -0.33333333333333D+00 -0.41666666666667D+00  0.16666666666667D+00
           -0.25000000000000D+00 -0.41666666666667D+00  0.25000000000000D+00
           -0.16666666666667D+00 -0.41666666666667D+00  0.33333333333333D+00
           -0.83333333333334D-01 -0.41666666666667D+00  0.41666666666667D+00
            0.41666666666667D+00 -0.33333333333333D+00  0.00000000000000D+00
            0.50000000000000D+00 -0.33333333333333D+00  0.83333333333333D-01
           -0.41666666666667D+00 -0.33333333333333D+00  0.16666666666667D+00
           -0.33333333333333D+00 -0.33333333333333D+00  0.25000000000000D+00
           -0.25000000000000D+00 -0.33333333333333D+00  0.33333333333333D+00
           -0.16666666666667D+00 -0.33333333333333D+00  0.41666666666667D+00
           -0.83333333333334D-01 -0.33333333333333D+00  0.50000000000000D+00
            0.33333333333333D+00 -0.25000000000000D+00  0.00000000000000D+00
            0.41666666666667D+00 -0.25000000000000D+00  0.83333333333333D-01
            0.50000000000000D+00 -0.25000000000000D+00  0.16666666666667D+00
           -0.41666666666667D+00 -0.25000000000000D+00  0.25000000000000D+00
           -0.33333333333333D+00 -0.25000000000000D+00  0.33333333333333D+00
           -0.25000000000000D+00 -0.25000000000000D+00  0.41666666666667D+00
           -0.16666666666667D+00 -0.25000000000000D+00  0.50000000000000D+00
           -0.83333333333334D-01 -0.25000000000000D+00 -0.41666666666667D+00
            0.25000000000000D+00 -0.16666666666667D+00  0.00000000000000D+00
            0.33333333333333D+00 -0.16666666666667D+00  0.83333333333333D-01
            0.41666666666667D+00 -0.16666666666667D+00  0.16666666666667D+00
            0.50000000000000D+00 -0.16666666666667D+00  0.25000000000000D+00
           -0.41666666666667D+00 -0.16666666666667D+00  0.33333333333333D+00
           -0.33333333333333D+00 -0.16666666666667D+00  0.41666666666667D+00
           -0.25000000000000D+00 -0.16666666666667D+00  0.50000000000000D+00
           -0.16666666666667D+00 -0.16666666666667D+00 -0.41666666666667D+00
           -0.83333333333334D-01 -0.16666666666667D+00 -0.33333333333333D+00
            0.16666666666667D+00 -0.83333333333334D-01  0.00000000000000D+00
            0.25000000000000D+00 -0.83333333333334D-01  0.83333333333333D-01
            0.33333333333333D+00 -0.83333333333334D-01  0.16666666666667D+00
            0.41666666666667D+00 -0.83333333333334D-01  0.25000000000000D+00
            0.50000000000000D+00 -0.83333333333334D-01  0.33333333333333D+00
           -0.41666666666667D+00 -0.83333333333334D-01  0.41666666666667D+00
           -0.33333333333333D+00 -0.83333333333334D-01  0.50000000000000D+00
           -0.25000000000000D+00 -0.83333333333334D-01 -0.41666666666667D+00
           -0.16666666666667D+00 -0.83333333333334D-01 -0.33333333333333D+00
           -0.83333333333334D-01 -0.83333333333334D-01 -0.25000000000000D+00
           -0.83333333333334D-01  0.00000000000000D+00  0.00000000000000D+00
           -0.83333333333334D-01  0.83333333333333D-01  0.83333333333333D-01
           -0.16666666666667D+00  0.16666666666667D+00  0.83333333333333D-01
           -0.83333333333334D-01  0.16666666666667D+00  0.16666666666667D+00
           -0.25000000000000D+00  0.25000000000000D+00  0.83333333333333D-01
           -0.16666666666667D+00  0.25000000000000D+00  0.16666666666667D+00
           -0.83333333333334D-01  0.25000000000000D+00  0.25000000000000D+00
           -0.33333333333333D+00  0.33333333333333D+00  0.83333333333333D-01
           -0.25000000000000D+00  0.33333333333333D+00  0.16666666666667D+00
           -0.16666666666667D+00  0.33333333333333D+00  0.25000000000000D+00
           -0.83333333333334D-01  0.33333333333333D+00  0.33333333333333D+00
           -0.41666666666667D+00  0.41666666666667D+00  0.83333333333333D-01
           -0.33333333333333D+00  0.41666666666667D+00  0.16666666666667D+00
           -0.25000000000000D+00  0.41666666666667D+00  0.25000000000000D+00
           -0.16666666666667D+00  0.41666666666667D+00  0.33333333333333D+00
           -0.83333333333334D-01  0.41666666666667D+00  0.41666666666667D+00
            0.50000000000000D+00  0.50000000000000D+00  0.83333333333333D-01
           -0.41666666666667D+00  0.50000000000000D+00  0.16666666666667D+00
           -0.33333333333333D+00  0.50000000000000D+00  0.25000000000000D+00
           -0.25000000000000D+00  0.50000000000000D+00  0.33333333333333D+00
           -0.16666666666667D+00  0.50000000000000D+00  0.41666666666667D+00
           -0.83333333333334D-01  0.50000000000000D+00  0.50000000000000D+00
            0.41666666666667D+00 -0.41666666666667D+00  0.83333333333333D-01
            0.50000000000000D+00 -0.41666666666667D+00  0.16666666666667D+00
           -0.41666666666667D+00 -0.41666666666667D+00  0.25000000000000D+00
           -0.33333333333333D+00 -0.41666666666667D+00  0.33333333333333D+00
           -0.25000000000000D+00 -0.41666666666667D+00  0.41666666666667D+00
           -0.16666666666667D+00 -0.41666666666667D+00  0.50000000000000D+00
           -0.83333333333334D-01 -0.41666666666667D+00 -0.41666666666667D+00
            0.33333333333333D+00 -0.33333333333333D+00  0.83333333333333D-01
            0.41666666666667D+00 -0.33333333333333D+00  0.16666666666667D+00
            0.50000000000000D+00 -0.33333333333333D+00  0.25000000000000D+00
           -0.41666666666667D+00 -0.33333333333333D+00  0.33333333333333D+00
           -0.33333333333333D+00 -0.33333333333333D+00  0.41666666666667D+00
           -0.25000000000000D+00 -0.33333333333333D+00  0.50000000000000D+00
           -0.16666666666667D+00 -0.33333333333333D+00 -0.41666666666667D+00
           -0.83333333333334D-01 -0.33333333333333D+00 -0.33333333333333D+00
            0.25000000000000D+00 -0.25000000000000D+00  0.83333333333333D-01
            0.33333333333333D+00 -0.25000000000000D+00  0.16666666666667D+00
            0.41666666666667D+00 -0.25000000000000D+00  0.25000000000000D+00
            0.50000000000000D+00 -0.25000000000000D+00  0.33333333333333D+00
           -0.41666666666667D+00 -0.25000000000000D+00  0.41666666666667D+00
           -0.33333333333333D+00 -0.25000000000000D+00  0.50000000000000D+00
           -0.25000000000000D+00 -0.25000000000000D+00 -0.41666666666667D+00
           -0.16666666666667D+00 -0.25000000000000D+00 -0.33333333333333D+00
           -0.83333333333334D-01 -0.25000000000000D+00 -0.25000000000000D+00
            0.16666666666667D+00 -0.16666666666667D+00  0.83333333333333D-01
            0.25000000000000D+00 -0.16666666666667D+00  0.16666666666667D+00
            0.33333333333333D+00 -0.16666666666667D+00  0.25000000000000D+00
            0.41666666666667D+00 -0.16666666666667D+00  0.33333333333333D+00
            0.50000000000000D+00 -0.16666666666667D+00  0.41666666666667D+00
           -0.41666666666667D+00 -0.16666666666667D+00  0.50000000000000D+00
           -0.33333333333333D+00 -0.16666666666667D+00 -0.41666666666667D+00
           -0.25000000000000D+00 -0.16666666666667D+00 -0.33333333333333D+00
           -0.16666666666667D+00 -0.16666666666667D+00 -0.25000000000000D+00
           -0.83333333333334D-01 -0.16666666666667D+00 -0.16666666666667D+00
            0.00000000000000D+00 -0.83333333333334D-01  0.00000000000000D+00
            0.83333333333333D-01 -0.83333333333334D-01  0.83333333333333D-01
            0.16666666666667D+00 -0.83333333333334D-01  0.16666666666667D+00
            0.25000000000000D+00 -0.83333333333334D-01  0.25000000000000D+00
            0.33333333333333D+00 -0.83333333333334D-01  0.33333333333333D+00
            0.41666666666667D+00 -0.83333333333334D-01  0.41666666666667D+00
            0.50000000000000D+00 -0.83333333333334D-01  0.50000000000000D+00
           -0.41666666666667D+00 -0.83333333333334D-01 -0.41666666666667D+00
           -0.33333333333333D+00 -0.83333333333334D-01 -0.33333333333333D+00
           -0.25000000000000D+00 -0.83333333333334D-01 -0.25000000000000D+00
           -0.16666666666667D+00 -0.83333333333334D-01 -0.16666666666667D+00
           -0.83333333333334D-01 -0.83333333333334D-01 -0.83333333333334D-01
           -0.25000000000000D+00  0.00000000000000D+00  0.00000000000000D+00
           -0.16666666666667D+00  0.00000000000000D+00  0.83333333333333D-01
           -0.83333333333334D-01  0.00000000000000D+00  0.16666666666667D+00
           -0.25000000000000D+00  0.83333333333333D-01  0.83333333333333D-01
           -0.16666666666667D+00  0.83333333333333D-01  0.16666666666667D+00
           -0.83333333333334D-01  0.83333333333333D-01  0.25000000000000D+00
           -0.33333333333333D+00  0.16666666666667D+00  0.83333333333333D-01
           -0.25000000000000D+00  0.16666666666667D+00  0.16666666666667D+00
           -0.16666666666667D+00  0.16666666666667D+00  0.25000000000000D+00
           -0.83333333333334D-01  0.16666666666667D+00  0.33333333333333D+00
           -0.41666666666667D+00  0.25000000000000D+00  0.83333333333333D-01
           -0.33333333333333D+00  0.25000000000000D+00  0.16666666666667D+00
           -0.25000000000000D+00  0.25000000000000D+00  0.25000000000000D+00
           -0.16666666666667D+00  0.25000000000000D+00  0.33333333333333D+00
           -0.83333333333334D-01  0.25000000000000D+00  0.41666666666667D+00
            0.50000000000000D+00  0.33333333333333D+00  0.83333333333333D-01
           -0.41666666666667D+00  0.33333333333333D+00  0.16666666666667D+00
           -0.33333333333333D+00  0.33333333333333D+00  0.25000000000000D+00
           -0.25000000000000D+00  0.33333333333333D+00  0.33333333333333D+00
           -0.16666666666667D+00  0.33333333333333D+00  0.41666666666667D+00
           -0.83333333333334D-01  0.33333333333333D+00  0.50000000000000D+00
            0.41666666666667D+00  0.41666666666667D+00  0.83333333333333D-01
            0.50000000000000D+00  0.41666666666667D+00  0.16666666666667D+00
           -0.41666666666667D+00  0.41666666666667D+00  0.25000000000000D+00
           -0.33333333333333D+00  0.41666666666667D+00  0.33333333333333D+00
           -0.25000000000000D+00  0.41666666666667D+00  0.41666666666667D+00
           -0.16666666666667D+00  0.41666666666667D+00  0.50000000000000D+00
           -0.83333333333334D-01  0.41666666666667D+00 -0.41666666666667D+00
            0.33333333333333D+00  0.50000000000000D+00  0.83333333333333D-01
            0.41666666666667D+00  0.50000000000000D+00  0.16666666666667D+00
            0.50000000000000D+00  0.50000000000000D+00  0.25000000000000D+00
           -0.41666666666667D+00  0.50000000000000D+00  0.33333333333333D+00
           -0.33333333333333D+00  0.50000000000000D+00  0.41666666666667D+00
           -0.25000000000000D+00  0.50000000000000D+00  0.50000000000000D+00
           -0.16666666666667D+00  0.50000000000000D+00 -0.41666666666667D+00
           -0.83333333333334D-01  0.50000000000000D+00 -0.33333333333333D+00
            0.25000000000000D+00 -0.41666666666667D+00  0.83333333333333D-01
            0.33333333333333D+00 -0.41666666666667D+00  0.16666666666667D+00
            0.41666666666667D+00 -0.41666666666667D+00  0.25000000000000D+00
            0.50000000000000D+00 -0.41666666666667D+00  0.33333333333333D+00
           -0.41666666666667D+00 -0.41666666666667D+00  0.41666666666667D+00
           -0.33333333333333D+00 -0.41666666666667D+00  0.50000000000000D+00
           -0.25000000000000D+00 -0.41666666666667D+00 -0.41666666666667D+00
           -0.16666666666667D+00 -0.41666666666667D+00 -0.33333333333333D+00
           -0.83333333333334D-01 -0.41666666666667D+00 -0.25000000000000D+00
            0.16666666666667D+00 -0.33333333333333D+00  0.83333333333333D-01
            0.25000000000000D+00 -0.33333333333333D+00  0.16666666666667D+00
            0.33333333333333D+00 -0.33333333333333D+00  0.25000000000000D+00
            0.41666666666667D+00 -0.33333333333333D+00  0.33333333333333D+00
            0.50000000000000D+00 -0.33333333333333D+00  0.41666666666667D+00
           -0.41666666666667D+00 -0.33333333333333D+00  0.50000000000000D+00
           -0.33333333333333D+00 -0.33333333333333D+00 -0.41666666666667D+00
           -0.25000000000000D+00 -0.33333333333333D+00 -0.33333333333333D+00
           -0.16666666666667D+00 -0.33333333333333D+00 -0.25000000000000D+00
           -0.83333333333334D-01 -0.33333333333333D+00 -0.16666666666667D+00
            0.00000000000000D+00 -0.25000000000000D+00  0.00000000000000D+00
            0.83333333333333D-01 -0.25000000000000D+00  0.83333333333333D-01
            0.16666666666667D+00 -0.25000000000000D+00  0.16666666666667D+00
            0.25000000000000D+00 -0.25000000000000D+00  0.25000000000000D+00
            0.33333333333333D+00 -0.25000000000000D+00  0.33333333333333D+00
            0.41666666666667D+00 -0.25000000000000D+00  0.41666666666667D+00
            0.50000000000000D+00 -0.25000000000000D+00  0.50000000000000D+00
           -0.41666666666667D+00 -0.25000000000000D+00 -0.41666666666667D+00
           -0.33333333333333D+00 -0.25000000000000D+00 -0.33333333333333D+00
           -0.25000000000000D+00 -0.25000000000000D+00 -0.25000000000000D+00
           -0.16666666666667D+00 -0.25000000000000D+00 -0.16666666666667D+00
           -0.83333333333334D-01 -0.25000000000000D+00 -0.83333333333334D-01
            0.00000000000000D+00 -0.16666666666667D+00  0.83333333333333D-01
            0.83333333333333D-01 -0.16666666666667D+00  0.16666666666667D+00
            0.16666666666667D+00 -0.16666666666667D+00  0.25000000000000D+00
            0.25000000000000D+00 -0.16666666666667D+00  0.33333333333333D+00
            0.33333333333333D+00 -0.16666666666667D+00  0.41666666666667D+00
            0.41666666666667D+00 -0.16666666666667D+00  0.50000000000000D+00
            0.50000000000000D+00 -0.16666666666667D+00 -0.41666666666667D+00
           -0.41666666666667D+00 -0.16666666666667D+00 -0.33333333333333D+00
           -0.33333333333333D+00 -0.16666666666667D+00 -0.25000000000000D+00
           -0.25000000000000D+00 -0.16666666666667D+00 -0.16666666666667D+00
           -0.16666666666667D+00 -0.16666666666667D+00 -0.83333333333334D-01
            0.00000000000000D+00 -0.83333333333334D-01  0.16666666666667D+00
            0.83333333333333D-01 -0.83333333333334D-01  0.25000000000000D+00
            0.16666666666667D+00 -0.83333333333334D-01  0.33333333333333D+00
            0.25000000000000D+00 -0.83333333333334D-01  0.41666666666667D+00
            0.33333333333333D+00 -0.83333333333334D-01  0.50000000000000D+00
            0.41666666666667D+00 -0.83333333333334D-01 -0.41666666666667D+00
            0.50000000000000D+00 -0.83333333333334D-01 -0.33333333333333D+00
           -0.41666666666667D+00 -0.83333333333334D-01 -0.25000000000000D+00
           -0.33333333333333D+00 -0.83333333333334D-01 -0.16666666666667D+00
           -0.25000000000000D+00 -0.83333333333334D-01 -0.83333333333334D-01
           -0.41666666666667D+00  0.00000000000000D+00  0.00000000000000D+00
           -0.33333333333333D+00  0.00000000000000D+00  0.83333333333333D-01
           -0.25000000000000D+00  0.00000000000000D+00  0.16666666666667D+00
           -0.16666666666667D+00  0.00000000000000D+00  0.25000000000000D+00
           -0.83333333333334D-01  0.00000000000000D+00  0.33333333333333D+00
           -0.41666666666667D+00  0.83333333333333D-01  0.83333333333333D-01
           -0.33333333333333D+00  0.83333333333333D-01  0.16666666666667D+00
           -0.25000000000000D+00  0.83333333333333D-01  0.25000000000000D+00
           -0.16666666666667D+00  0.83333333333333D-01  0.33333333333333D+00
           -0.83333333333334D-01  0.83333333333333D-01  0.41666666666667D+00
            0.50000000000000D+00  0.16666666666667D+00  0.83333333333333D-01
           -0.41666666666667D+00  0.16666666666667D+00  0.16666666666667D+00
           -0.33333333333333D+00  0.16666666666667D+00  0.25000000000000D+00
           -0.25000000000000D+00  0.16666666666667D+00  0.33333333333333D+00
           -0.16666666666667D+00  0.16666666666667D+00  0.41666666666667D+00
           -0.83333333333334D-01  0.16666666666667D+00  0.50000000000000D+00
            0.41666666666667D+00  0.25000000000000D+00  0.83333333333333D-01
            0.50000000000000D+00  0.25000000000000D+00  0.16666666666667D+00
           -0.41666666666667D+00  0.25000000000000D+00  0.25000000000000D+00
           -0.33333333333333D+00  0.25000000000000D+00  0.33333333333333D+00
           -0.25000000000000D+00  0.25000000000000D+00  0.41666666666667D+00
           -0.16666666666667D+00  0.25000000000000D+00  0.50000000000000D+00
           -0.83333333333334D-01  0.25000000000000D+00 -0.41666666666667D+00
            0.33333333333333D+00  0.33333333333333D+00  0.83333333333333D-01
            0.41666666666667D+00  0.33333333333333D+00  0.16666666666667D+00
            0.50000000000000D+00  0.33333333333333D+00  0.25000000000000D+00
           -0.41666666666667D+00  0.33333333333333D+00  0.33333333333333D+00
           -0.33333333333333D+00  0.33333333333333D+00  0.41666666666667D+00
           -0.25000000000000D+00  0.33333333333333D+00  0.50000000000000D+00
           -0.16666666666667D+00  0.33333333333333D+00 -0.41666666666667D+00
           -0.83333333333334D-01  0.33333333333333D+00 -0.33333333333333D+00
            0.25000000000000D+00  0.41666666666667D+00  0.83333333333333D-01
            0.33333333333333D+00  0.41666666666667D+00  0.16666666666667D+00
            0.41666666666667D+00  0.41666666666667D+00  0.25000000000000D+00
            0.50000000000000D+00  0.41666666666667D+00  0.33333333333333D+00
           -0.41666666666667D+00  0.41666666666667D+00  0.41666666666667D+00
           -0.33333333333333D+00  0.41666666666667D+00  0.50000000000000D+00
           -0.25000000000000D+00  0.41666666666667D+00 -0.41666666666667D+00
           -0.16666666666667D+00  0.41666666666667D+00 -0.33333333333333D+00
           -0.83333333333334D-01  0.41666666666667D+00 -0.25000000000000D+00
            0.16666666666667D+00  0.50000000000000D+00  0.83333333333333D-01
            0.25000000000000D+00  0.50000000000000D+00  0.16666666666667D+00
            0.33333333333333D+00  0.50000000000000D+00  0.25000000000000D+00
            0.41666666666667D+00  0.50000000000000D+00  0.33333333333333D+00
            0.50000000000000D+00  0.50000000000000D+00  0.41666666666667D+00
           -0.41666666666667D+00  0.50000000000000D+00  0.50000000000000D+00
           -0.33333333333333D+00  0.50000000000000D+00 -0.41666666666667D+00
           -0.25000000000000D+00  0.50000000000000D+00 -0.33333333333333D+00
           -0.16666666666667D+00  0.50000000000000D+00 -0.25000000000000D+00
           -0.83333333333334D-01  0.50000000000000D+00 -0.16666666666667D+00
            0.00000000000000D+00 -0.41666666666667D+00  0.00000000000000D+00
            0.83333333333333D-01 -0.41666666666667D+00  0.83333333333333D-01
            0.16666666666667D+00 -0.41666666666667D+00  0.16666666666667D+00
            0.25000000000000D+00 -0.41666666666667D+00  0.25000000000000D+00
            0.33333333333333D+00 -0.41666666666667D+00  0.33333333333333D+00
            0.41666666666667D+00 -0.41666666666667D+00  0.41666666666667D+00
            0.50000000000000D+00 -0.41666666666667D+00  0.50000000000000D+00
           -0.41666666666667D+00 -0.41666666666667D+00 -0.41666666666667D+00
           -0.33333333333333D+00 -0.41666666666667D+00 -0.33333333333333D+00
           -0.25000000000000D+00 -0.41666666666667D+00 -0.25000000000000D+00
           -0.16666666666667D+00 -0.41666666666667D+00 -0.16666666666667D+00
           -0.83333333333334D-01 -0.41666666666667D+00 -0.83333333333334D-01
            0.00000000000000D+00 -0.33333333333333D+00  0.83333333333333D-01
            0.83333333333333D-01 -0.33333333333333D+00  0.16666666666667D+00
            0.16666666666667D+00 -0.33333333333333D+00  0.25000000000000D+00
            0.25000000000000D+00 -0.33333333333333D+00  0.33333333333333D+00
            0.33333333333333D+00 -0.33333333333333D+00  0.41666666666667D+00
            0.41666666666667D+00 -0.33333333333333D+00  0.50000000000000D+00
            0.50000000000000D+00 -0.33333333333333D+00 -0.41666666666667D+00
           -0.41666666666667D+00 -0.33333333333333D+00 -0.33333333333333D+00
           -0.33333333333333D+00 -0.33333333333333D+00 -0.25000000000000D+00
           -0.25000000000000D+00 -0.33333333333333D+00 -0.16666666666667D+00
           -0.16666666666667D+00 -0.33333333333333D+00 -0.83333333333334D-01
            0.00000000000000D+00 -0.25000000000000D+00  0.16666666666667D+00
            0.83333333333333D-01 -0.25000000000000D+00  0.25000000000000D+00
            0.16666666666667D+00 -0.25000000000000D+00  0.33333333333333D+00
            0.25000000000000D+00 -0.25000000000000D+00  0.41666666666667D+00
            0.33333333333333D+00 -0.25000000000000D+00  0.50000000000000D+00
            0.41666666666667D+00 -0.25000000000000D+00 -0.41666666666667D+00
            0.50000000000000D+00 -0.25000000000000D+00 -0.33333333333333D+00
           -0.41666666666667D+00 -0.25000000000000D+00 -0.25000000000000D+00
           -0.33333333333333D+00 -0.25000000000000D+00 -0.16666666666667D+00
           -0.25000000000000D+00 -0.25000000000000D+00 -0.83333333333334D-01
            0.00000000000000D+00 -0.16666666666667D+00  0.25000000000000D+00
            0.83333333333333D-01 -0.16666666666667D+00  0.33333333333333D+00
            0.16666666666667D+00 -0.16666666666667D+00  0.41666666666667D+00
            0.25000000000000D+00 -0.16666666666667D+00  0.50000000000000D+00
            0.33333333333333D+00 -0.16666666666667D+00 -0.41666666666667D+00
            0.41666666666667D+00 -0.16666666666667D+00 -0.33333333333333D+00
            0.50000000000000D+00 -0.16666666666667D+00 -0.25000000000000D+00
           -0.41666666666667D+00 -0.16666666666667D+00 -0.16666666666667D+00
           -0.33333333333333D+00 -0.16666666666667D+00 -0.83333333333334D-01
            0.00000000000000D+00 -0.83333333333334D-01  0.33333333333333D+00
            0.83333333333333D-01 -0.83333333333334D-01  0.41666666666667D+00
            0.16666666666667D+00 -0.83333333333334D-01  0.50000000000000D+00
            0.25000000000000D+00 -0.83333333333334D-01 -0.41666666666667D+00
            0.33333333333333D+00 -0.83333333333334D-01 -0.33333333333333D+00
            0.41666666666667D+00 -0.83333333333334D-01 -0.25000000000000D+00
            0.50000000000000D+00 -0.83333333333334D-01 -0.16666666666667D+00
           -0.41666666666667D+00 -0.83333333333334D-01 -0.83333333333334D-01
            0.50000000000000D+00  0.00000000000000D+00  0.83333333333333D-01
           -0.41666666666667D+00  0.00000000000000D+00  0.16666666666667D+00
           -0.33333333333333D+00  0.00000000000000D+00  0.25000000000000D+00
           -0.25000000000000D+00  0.00000000000000D+00  0.33333333333333D+00
           -0.16666666666667D+00  0.00000000000000D+00  0.41666666666667D+00
           -0.83333333333334D-01  0.00000000000000D+00  0.50000000000000D+00
            0.00000000000000D+00  0.50000000000000D+00  0.83333333333333D-01
            0.00000000000000D+00 -0.41666666666667D+00  0.16666666666667D+00
            0.00000000000000D+00 -0.33333333333333D+00  0.25000000000000D+00
            0.00000000000000D+00 -0.25000000000000D+00  0.33333333333333D+00
            0.00000000000000D+00 -0.16666666666667D+00  0.41666666666667D+00
            0.00000000000000D+00 -0.83333333333334D-01  0.50000000000000D+00
            0.33333333333333D+00  0.00000000000000D+00  0.83333333333333D-01
            0.41666666666667D+00  0.00000000000000D+00  0.16666666666667D+00
            0.50000000000000D+00  0.00000000000000D+00  0.25000000000000D+00
           -0.41666666666667D+00  0.00000000000000D+00  0.33333333333333D+00
           -0.33333333333333D+00  0.00000000000000D+00  0.41666666666667D+00
           -0.25000000000000D+00  0.00000000000000D+00  0.50000000000000D+00
           -0.16666666666667D+00  0.00000000000000D+00 -0.41666666666667D+00
           -0.83333333333334D-01  0.00000000000000D+00 -0.33333333333333D+00
            0.00000000000000D+00  0.33333333333333D+00  0.83333333333333D-01
            0.00000000000000D+00  0.41666666666667D+00  0.16666666666667D+00
            0.00000000000000D+00  0.50000000000000D+00  0.25000000000000D+00
            0.00000000000000D+00 -0.41666666666667D+00  0.33333333333333D+00
            0.00000000000000D+00 -0.33333333333333D+00  0.41666666666667D+00
            0.00000000000000D+00 -0.25000000000000D+00  0.50000000000000D+00
            0.00000000000000D+00 -0.16666666666667D+00 -0.41666666666667D+00
            0.00000000000000D+00 -0.83333333333334D-01 -0.33333333333333D+00
            0.16666666666667D+00  0.00000000000000D+00  0.83333333333333D-01
            0.25000000000000D+00  0.00000000000000D+00  0.16666666666667D+00
            0.33333333333333D+00  0.00000000000000D+00  0.25000000000000D+00
            0.41666666666667D+00  0.00000000000000D+00  0.33333333333333D+00
            0.50000000000000D+00  0.00000000000000D+00  0.41666666666667D+00
           -0.41666666666667D+00  0.00000000000000D+00  0.50000000000000D+00
           -0.33333333333333D+00  0.00000000000000D+00 -0.41666666666667D+00
           -0.25000000000000D+00  0.00000000000000D+00 -0.33333333333333D+00
           -0.16666666666667D+00  0.00000000000000D+00 -0.25000000000000D+00
           -0.83333333333334D-01  0.00000000000000D+00 -0.16666666666667D+00
            0.00000000000000D+00  0.16666666666667D+00  0.83333333333333D-01
            0.00000000000000D+00  0.25000000000000D+00  0.16666666666667D+00
            0.00000000000000D+00  0.33333333333333D+00  0.25000000000000D+00
            0.00000000000000D+00  0.41666666666667D+00  0.33333333333333D+00
            0.00000000000000D+00  0.50000000000000D+00  0.41666666666667D+00
            0.00000000000000D+00 -0.41666666666667D+00  0.50000000000000D+00
            0.00000000000000D+00 -0.33333333333333D+00 -0.41666666666667D+00
            0.00000000000000D+00 -0.25000000000000D+00 -0.33333333333333D+00
            0.00000000000000D+00 -0.16666666666667D+00 -0.25000000000000D+00
            0.00000000000000D+00 -0.83333333333334D-01 -0.16666666666667D+00
            0.00000000000000D+00  0.00000000000000D+00  0.83333333333333D-01
            0.00000000000000D+00  0.00000000000000D+00  0.25000000000000D+00
            0.00000000000000D+00  0.00000000000000D+00  0.41666666666667D+00
    kptnrm  0.10000000000000D+01
     ngfft        12   12   12
    nspden         1
   nspinor         1
       occ  0.20000000000000D+01  0.20000000000000D+01  0.20000000000000D+01
            0.20000000000000D+01
     rprim  0.00000000000000D+00  0.50000000000000D+00  0.50000000000000D+00
            0.50000000000000D+00  0.00000000000000D+00  0.50000000000000D+00
            0.50000000000000D+00  0.50000000000000D+00  0.00000000000000D+00
     sciss  0.00000000000000D+00
    spinat  0.00000000000000D+00  0.00000000000000D+00  0.00000000000000D+00
            0.00000000000000D+00  0.00000000000000D+00  0.00000000000000D+00
    symafm         1    1    1    1    1    1    1    1    1    1    1    1
                   1    1    1    1    1    1    1    1    1    1    1    1
    symrel         1    0    0    0    1    0    0    0    1
                   0   -1    1    0   -1    0    1   -1    0
                  -1    0    0   -1    0    1   -1    1    0
                   0    1   -1    1    0   -1    0    0   -1
                  -1    0    0   -1    1    0   -1    0    1
                   0   -1    1    1   -1    0    0   -1    0
                   1    0    0    0    0    1    0    1    0
                   0    1   -1    0    0   -1    1    0   -1
                  -1    0    1   -1    1    0   -1    0    0
                   0   -1    0    1   -1    0    0   -1    1
                   1    0   -1    0    0   -1    0    1   -1
                   0    1    0    0    0    1    1    0    0
                   1    0   -1    0    1   -1    0    0   -1
                   0   -1    0    0   -1    1    1   -1    0
                  -1    0    1   -1    0    0   -1    1    0
                   0    1    0    1    0    0    0    0    1
                   0    0   -1    0    1   -1    1    0   -1
                   1   -1    0    0   -1    1    0   -1    0
                   0    0    1    1    0    0    0    1    0
                  -1    1    0   -1    0    0   -1    0    1
                   0    0    1    0    1    0    1    0    0
                   1   -1    0    0   -1    0    0   -1    1
                   0    0   -1    1    0   -1    0    1   -1
                  -1    1    0   -1    0    1   -1    0    0
     tnons  0.00000000000000D+00  0.00000000000000D+00  0.00000000000000D+00
            0.00000000000000D+00  0.00000000000000D+00  0.00000000000000D+00
            0.00000000000000D+00  0.00000000000000D+00  0.00000000000000D+00
            0.00000000000000D+00  0.00000000000000D+00  0.00000000000000D+00
            0.00000000000000D+00  0.00000000000000D+00  0.00000000000000D+00
            0.00000000000000D+00  0.00000000000000D+00  0.00000000000000D+00
            0.00000000000000D+00  0.00000000000000D+00  0.00000000000000D+00
            0.00000000000000D+00  0.00000000000000D+00  0.00000000000000D+00
            0.00000000000000D+00  0.00000000000000D+00  0.00000000000000D+00
            0.00000000000000D+00  0.00000000000000D+00  0.00000000000000D+00
            0.00000000000000D+00  0.00000000000000D+00  0.00000000000000D+00
            0.00000000000000D+00  0.00000000000000D+00  0.00000000000000D+00
            0.00000000000000D+00  0.00000000000000D+00  0.00000000000000D+00
            0.00000000000000D+00  0.00000000000000D+00  0.00000000000000D+00
            0.00000000000000D+00  0.00000000000000D+00  0.00000000000000D+00
            0.00000000000000D+00  0.00000000000000D+00  0.00000000000000D+00
            0.00000000000000D+00  0.00000000000000D+00  0.00000000000000D+00
            0.00000000000000D+00  0.00000000000000D+00  0.00000000000000D+00
            0.00000000000000D+00  0.00000000000000D+00  0.00000000000000D+00
            0.00000000000000D+00  0.00000000000000D+00  0.00000000000000D+00
            0.00000000000000D+00  0.00000000000000D+00  0.00000000000000D+00
            0.00000000000000D+00  0.00000000000000D+00  0.00000000000000D+00
            0.00000000000000D+00  0.00000000000000D+00  0.00000000000000D+00
            0.00000000000000D+00  0.00000000000000D+00  0.00000000000000D+00
    tolwfr  0.10000000000000D+01
   tphysel  0.00000000000000D+00
    tsmear  0.40000000000000D-01
     typat         1    2
       wtk  0.23148148148148D-02  0.23148148148148D-02  0.23148148148148D-02
            0.23148148148148D-02  0.23148148148148D-02  0.23148148148148D-02
            0.23148148148148D-02  0.23148148148148D-02  0.23148148148148D-02
            0.23148148148148D-02  0.23148148148148D-02  0.23148148148148D-02
            0.23148148148148D-02  0.23148148148148D-02  0.23148148148148D-02
            0.23148148148148D-02  0.23148148148148D-02  0.23148148148148D-02
            0.23148148148148D-02  0.23148148148148D-02  0.23148148148148D-02
            0.23148148148148D-02  0.23148148148148D-02  0.23148148148148D-02
            0.23148148148148D-02  0.23148148148148D-02  0.23148148148148D-02
            0.23148148148148D-02  0.23148148148148D-02  0.23148148148148D-02
            0.23148148148148D-02  0.23148148148148D-02  0.23148148148148D-02
            0.23148148148148D-02  0.23148148148148D-02  0.23148148148148D-02
            0.23148148148148D-02  0.23148148148148D-02  0.23148148148148D-02
            0.23148148148148D-02  0.23148148148148D-02  0.23148148148148D-02
            0.23148148148148D-02  0.23148148148148D-02  0.23148148148148D-02
            0.23148148148148D-02  0.23148148148148D-02  0.23148148148148D-02
            0.23148148148148D-02  0.23148148148148D-02  0.23148148148148D-02
            0.23148148148148D-02  0.23148148148148D-02  0.23148148148148D-02
            0.23148148148148D-02  0.23148148148148D-02  0.23148148148148D-02
            0.23148148148148D-02  0.23148148148148D-02  0.23148148148148D-02
            0.23148148148148D-02  0.23148148148148D-02  0.23148148148148D-02
            0.23148148148148D-02  0.23148148148148D-02  0.23148148148148D-02
            0.23148148148148D-02  0.23148148148148D-02  0.23148148148148D-02
            0.23148148148148D-02  0.23148148148148D-02  0.23148148148148D-02
            0.23148148148148D-02  0.23148148148148D-02  0.23148148148148D-02
            0.23148148148148D-02  0.23148148148148D-02  0.23148148148148D-02
            0.23148148148148D-02  0.23148148148148D-02  0.23148148148148D-02
            0.23148148148148D-02  0.23148148148148D-02  0.23148148148148D-02
            0.23148148148148D-02  0.23148148148148D-02  0.23148148148148D-02
            0.23148148148148D-02  0.23148148148148D-02  0.23148148148148D-02
            0.23148148148148D-02  0.23148148148148D-02  0.23148148148148D-02
            0.23148148148148D-02  0.23148148148148D-02  0.23148148148148D-02
            0.23148148148148D-02  0.23148148148148D-02  0.23148148148148D-02
            0.23148148148148D-02  0.23148148148148D-02  0.23148148148148D-02
            0.23148148148148D-02  0.23148148148148D-02  0.23148148148148D-02
            0.23148148148148D-02  0.23148148148148D-02  0.23148148148148D-02
            0.23148148148148D-02  0.23148148148148D-02  0.23148148148148D-02
            0.23148148148148D-02  0.23148148148148D-02  0.23148148148148D-02
            0.23148148148148D-02  0.23148148148148D-02  0.23148148148148D-02
            0.23148148148148D-02  0.23148148148148D-02  0.23148148148148D-02
            0.23148148148148D-02  0.23148148148148D-02  0.23148148148148D-02
            0.23148148148148D-02  0.23148148148148D-02  0.23148148148148D-02
            0.23148148148148D-02  0.23148148148148D-02  0.23148148148148D-02
            0.23148148148148D-02  0.23148148148148D-02  0.23148148148148D-02
            0.23148148148148D-02  0.23148148148148D-02  0.23148148148148D-02
            0.23148148148148D-02  0.23148148148148D-02  0.23148148148148D-02
            0.23148148148148D-02  0.23148148148148D-02  0.23148148148148D-02
            0.23148148148148D-02  0.23148148148148D-02  0.23148148148148D-02
            0.23148148148148D-02  0.23148148148148D-02  0.23148148148148D-02
            0.23148148148148D-02  0.23148148148148D-02  0.23148148148148D-02
            0.23148148148148D-02  0.23148148148148D-02  0.23148148148148D-02
            0.23148148148148D-02  0.23148148148148D-02  0.23148148148148D-02
            0.23148148148148D-02  0.23148148148148D-02  0.23148148148148D-02
            0.23148148148148D-02  0.23148148148148D-02  0.23148148148148D-02
            0.23148148148148D-02  0.23148148148148D-02  0.23148148148148D-02
            0.23148148148148D-02  0.23148148148148D-02  0.23148148148148D-02
            0.23148148148148D-02  0.23148148148148D-02  0.23148148148148D-02
            0.23148148148148D-02  0.23148148148148D-02  0.23148148148148D-02
            0.23148148148148D-02  0.23148148148148D-02  0.23148148148148D-02
            0.23148148148148D-02  0.23148148148148D-02  0.23148148148148D-02
            0.23148148148148D-02  0.23148148148148D-02  0.23148148148148D-02
            0.23148148148148D-02  0.23148148148148D-02  0.23148148148148D-02
            0.23148148148148D-02  0.23148148148148D-02  0.23148148148148D-02
            0.23148148148148D-02  0.23148148148148D-02  0.23148148148148D-02
            0.23148148148148D-02  0.23148148148148D-02  0.23148148148148D-02
            0.23148148148148D-02  0.23148148148148D-02  0.23148148148148D-02
            0.23148148148148D-02  0.23148148148148D-02  0.23148148148148D-02
            0.23148148148148D-02  0.23148148148148D-02  0.23148148148148D-02
            0.23148148148148D-02  0.23148148148148D-02  0.23148148148148D-02
            0.23148148148148D-02  0.23148148148148D-02  0.23148148148148D-02
            0.23148148148148D-02  0.23148148148148D-02  0.23148148148148D-02
            0.23148148148148D-02  0.23148148148148D-02  0.23148148148148D-02
            0.23148148148148D-02  0.23148148148148D-02  0.23148148148148D-02
            0.23148148148148D-02  0.23148148148148D-02  0.23148148148148D-02
            0.23148148148148D-02  0.23148148148148D-02  0.23148148148148D-02
            0.23148148148148D-02  0.23148148148148D-02  0.23148148148148D-02
            0.23148148148148D-02  0.23148148148148D-02  0.23148148148148D-02
            0.23148148148148D-02  0.23148148148148D-02  0.23148148148148D-02
            0.23148148148148D-02  0.23148148148148D-02  0.23148148148148D-02
            0.23148148148148D-02  0.23148148148148D-02  0.23148148148148D-02
            0.23148148148148D-02  0.23148148148148D-02  0.23148148148148D-02
            0.23148148148148D-02  0.23148148148148D-02  0.23148148148148D-02
            0.23148148148148D-02  0.23148148148148D-02  0.23148148148148D-02
            0.23148148148148D-02  0.23148148148148D-02  0.23148148148148D-02
            0.23148148148148D-02  0.23148148148148D-02  0.23148148148148D-02
            0.23148148148148D-02  0.23148148148148D-02  0.23148148148148D-02
            0.23148148148148D-02  0.23148148148148D-02  0.23148148148148D-02
            0.23148148148148D-02  0.23148148148148D-02  0.23148148148148D-02
            0.23148148148148D-02  0.23148148148148D-02  0.23148148148148D-02
            0.23148148148148D-02  0.23148148148148D-02  0.23148148148148D-02
            0.23148148148148D-02  0.23148148148148D-02  0.23148148148148D-02
            0.23148148148148D-02  0.23148148148148D-02  0.23148148148148D-02
            0.23148148148148D-02  0.23148148148148D-02  0.23148148148148D-02
            0.23148148148148D-02  0.23148148148148D-02  0.23148148148148D-02
            0.23148148148148D-02  0.23148148148148D-02  0.23148148148148D-02
            0.23148148148148D-02  0.23148148148148D-02  0.23148148148148D-02
            0.23148148148148D-02  0.23148148148148D-02  0.23148148148148D-02
            0.23148148148148D-02  0.23148148148148D-02  0.23148148148148D-02
            0.23148148148148D-02  0.23148148148148D-02  0.23148148148148D-02
            0.23148148148148D-02  0.23148148148148D-02  0.23148148148148D-02
            0.23148148148148D-02  0.23148148148148D-02  0.23148148148148D-02
            0.23148148148148D-02  0.23148148148148D-02  0.23148148148148D-02
            0.23148148148148D-02  0.23148148148148D-02  0.23148148148148D-02
            0.23148148148148D-02  0.23148148148148D-02  0.23148148148148D-02
            0.23148148148148D-02  0.23148148148148D-02  0.23148148148148D-02
            0.23148148148148D-02  0.23148148148148D-02  0.23148148148148D-02
            0.23148148148148D-02  0.23148148148148D-02  0.23148148148148D-02
            0.23148148148148D-02  0.23148148148148D-02  0.23148148148148D-02
            0.23148148148148D-02  0.23148148148148D-02  0.23148148148148D-02
            0.23148148148148D-02  0.23148148148148D-02  0.23148148148148D-02
            0.23148148148148D-02  0.23148148148148D-02  0.23148148148148D-02
            0.23148148148148D-02  0.23148148148148D-02  0.23148148148148D-02
            0.23148148148148D-02  0.23148148148148D-02  0.23148148148148D-02
            0.23148148148148D-02  0.23148148148148D-02  0.23148148148148D-02
            0.23148148148148D-02  0.23148148148148D-02  0.23148148148148D-02
            0.23148148148148D-02  0.23148148148148D-02  0.23148148148148D-02
            0.23148148148148D-02  0.23148148148148D-02  0.23148148148148D-02
            0.23148148148148D-02  0.23148148148148D-02  0.23148148148148D-02
            0.23148148148148D-02  0.23148148148148D-02  0.23148148148148D-02
            0.23148148148148D-02  0.23148148148148D-02  0.23148148148148D-02
            0.23148148148148D-02  0.23148148148148D-02  0.23148148148148D-02
            0.23148148148148D-02  0.23148148148148D-02  0.23148148148148D-02
            0.23148148148148D-02  0.23148148148148D-02  0.23148148148148D-02
            0.23148148148148D-02  0.23148148148148D-02  0.23148148148148D-02
            0.23148148148148D-02  0.23148148148148D-02  0.23148148148148D-02
            0.23148148148148D-02  0.23148148148148D-02  0.23148148148148D-02
            0.23148148148148D-02  0.23148148148148D-02  0.23148148148148D-02
            0.23148148148148D-02  0.23148148148148D-02  0.23148148148148D-02
            0.23148148148148D-02  0.23148148148148D-02  0.23148148148148D-02
            0.23148148148148D-02  0.23148148148148D-02  0.23148148148148D-02
            0.23148148148148D-02  0.23148148148148D-02  0.23148148148148D-02
            0.23148148148148D-02  0.23148148148148D-02  0.23148148148148D-02
            0.23148148148148D-02  0.23148148148148D-02  0.23148148148148D-02
            0.23148148148148D-02  0.23148148148148D-02  0.23148148148148D-02
            0.23148148148148D-02  0.23148148148148D-02  0.23148148148148D-02
            0.23148148148148D-02  0.23148148148148D-02  0.23148148148148D-02
            0.23148148148148D-02  0.23148148148148D-02  0.23148148148148D-02
            0.23148148148148D-02  0.23148148148148D-02  0.23148148148148D-02
            0.23148148148148D-02  0.23148148148148D-02  0.23148148148148D-02
            0.23148148148148D-02  0.23148148148148D-02  0.23148148148148D-02
            0.23148148148148D-02  0.23148148148148D-02  0.23148148148148D-02
            0.23148148148148D-02  0.23148148148148D-02  0.23148148148148D-02
            0.23148148148148D-02  0.23148148148148D-02  0.23148148148148D-02
            0.23148148148148D-02  0.23148148148148D-02  0.23148148148148D-02
      xred  0.00000000000000D+00  0.00000000000000D+00  0.00000000000000D+00
            0.25000000000000D+00  0.25000000000000D+00  0.25000000000000D+00
     znucl  0.13000000000000D+02  0.33000000000000D+02
      zion  0.30000000000000D+01  0.50000000000000D+01
 
  Description of the potentials (KB energies)
  vrsio8 (for pseudopotentials)=100401
  usepaw =  0
  dimekb =  2       lmnmax=  2
  Atom type=    1   pspso=  0   nekb=   2
  iln lpsang iproj  ekb(:)
     1     0     1     2.5406576E+00  0.0000000E+00
     2     1     1     0.0000000E+00  1.3538152E+00
  Atom type=    2   pspso=  0   nekb=   1
  iln lpsang iproj  ekb(:)
     1     0     1     8.3875106E-01
 
 **** Database of total energy derivatives ****
 Number of data blocks=    2
  
 2nd derivatives (non-stat.)  - # elements :     171
 qpt  0.00000000E+00  0.00000000E+00  0.00000000E+00   1.0
   1   1   1   1  0.56805293642396D+01  0.00000000000000D+00
   2   1   1   1  0.28402646821198D+01  0.00000000000000D+00
   3   1   1   1  0.28402646821198D+01  0.00000000000000D+00
   1   2   1   1 -0.56804697252914D+01  0.10609217852900D-16
   2   2   1   1 -0.28402348626457D+01 -0.35039621518383D-17
   3   2   1   1 -0.28402348626457D+01 -0.92150060663450D-17
   1   4   1   1 -0.60133644746143D+01  0.00000000000000D+00
   2   4   1   1  0.00000000000000D+00  0.00000000000000D+00
   3   4   1   1  0.00000000000000D+00  0.00000000000000D+00
   1   1   2   1  0.28402646821198D+01  0.00000000000000D+00
   2   1   2   1  0.56805293642396D+01  0.00000000000000D+00
   3   1   2   1  0.28402646821198D+01  0.00000000000000D+00
   1   2   2   1 -0.28402348626457D+01 -0.35039621518383D-17
   2   2   2   1 -0.56804697252914D+01 -0.16526290774893D-16
   3   2   2   1 -0.28402348626457D+01 -0.48594791817280D-17
   1   4   2   1  0.00000000000000D+00  0.00000000000000D+00
   2   4   2   1 -0.60133644746143D+01  0.00000000000000D+00
   3   4   2   1  0.00000000000000D+00  0.00000000000000D+00
   1   1   3   1  0.28402646821198D+01  0.00000000000000D+00
   2   1   3   1  0.28402646821198D+01  0.00000000000000D+00
   3   1   3   1  0.56805293642396D+01  0.00000000000000D+00
   1   2   3   1 -0.28402348626457D+01 -0.92150060663450D-17
   2   2   3   1 -0.28402348626457D+01 -0.48594791817280D-17
   3   2   3   1 -0.56804697252914D+01 -0.15165219042283D-17
   1   4   3   1  0.00000000000000D+00  0.00000000000000D+00
   2   4   3   1  0.00000000000000D+00  0.00000000000000D+00
   3   4   3   1 -0.60133644746143D+01  0.00000000000000D+00
   1   1   1   2 -0.56804700402098D+01 -0.10609217852900D-16
   2   1   1   2 -0.28402350201049D+01  0.35039621518383D-17
   3   1   1   2 -0.28402350201049D+01  0.92150060663450D-17
   1   2   1   2  0.56805600054312D+01  0.00000000000000D+00
   2   2   1   2  0.28402800027156D+01  0.00000000000000D+00
   3   2   1   2  0.28402800027156D+01  0.00000000000000D+00
   1   4   1   2 -0.44276048818914D+02  0.00000000000000D+00
   2   4   1   2  0.00000000000000D+00  0.00000000000000D+00
   3   4   1   2  0.00000000000000D+00  0.00000000000000D+00
   1   1   2   2 -0.28402350201049D+01  0.35039621518383D-17
   2   1   2   2 -0.56804700402098D+01  0.16526290774893D-16
   3   1   2   2 -0.28402350201049D+01  0.48594791817280D-17
   1   2   2   2  0.28402800027156D+01  0.00000000000000D+00
   2   2   2   2  0.56805600054312D+01  0.00000000000000D+00
   3   2   2   2  0.28402800027156D+01  0.00000000000000D+00
   1   4   2   2  0.00000000000000D+00  0.00000000000000D+00
   2   4   2   2 -0.44276048818914D+02  0.00000000000000D+00
   3   4   2   2  0.00000000000000D+00  0.00000000000000D+00
   1   1   3   2 -0.28402350201049D+01  0.92150060663450D-17
   2   1   3   2 -0.28402350201049D+01  0.48594791817280D-17
   3   1   3   2 -0.56804700402098D+01  0.15165219042283D-17
   1   2   3   2  0.28402800027156D+01  0.00000000000000D+00
   2   2   3   2  0.28402800027156D+01  0.00000000000000D+00
   3   2   3   2  0.56805600054312D+01  0.00000000000000D+00
   1   4   3   2  0.00000000000000D+00  0.00000000000000D+00
   2   4   3   2  0.00000000000000D+00  0.00000000000000D+00
   3   4   3   2 -0.44276048818914D+02  0.00000000000000D+00
   1   1   1   4 -0.60133645159962D+01  0.00000000000000D+00
   2   1   1   4  0.00000000000000D+00  0.00000000000000D+00
   3   1   1   4  0.00000000000000D+00  0.00000000000000D+00
   1   2   1   4 -0.44276048801341D+02  0.00000000000000D+00
   2   2   1   4  0.00000000000000D+00  0.00000000000000D+00
   3   2   1   4  0.00000000000000D+00  0.00000000000000D+00
   1   4   1   4 -0.20349757389167D+03  0.00000000000000D+00
   2   4   1   4  0.67832524630556D+02  0.00000000000000D+00
   3   4   1   4  0.67832524630556D+02  0.00000000000000D+00
   1   1   2   4  0.00000000000000D+00  0.00000000000000D+00
   2   1   2   4 -0.60133645159962D+01  0.00000000000000D+00
   3   1   2   4  0.00000000000000D+00  0.00000000000000D+00
   1   2   2   4  0.00000000000000D+00  0.00000000000000D+00
   2   2   2   4 -0.44276048801341D+02  0.00000000000000D+00
   3   2   2   4  0.00000000000000D+00  0.00000000000000D+00
   1   4   2   4  0.67832524630556D+02  0.00000000000000D+00
   2   4   2   4 -0.20349757389167D+03  0.00000000000000D+00
   3   4   2   4  0.67832524630556D+02  0.00000000000000D+00
   1   1   3   4  0.00000000000000D+00  0.00000000000000D+00
   2   1   3   4  0.00000000000000D+00  0.00000000000000D+00
   3   1   3   4 -0.60133645159962D+01  0.00000000000000D+00
   1   2   3   4  0.00000000000000D+00  0.00000000000000D+00
   2   2   3   4  0.00000000000000D+00  0.00000000000000D+00
   3   2   3   4 -0.44276048801341D+02  0.00000000000000D+00
   1   4   3   4  0.67832524630556D+02  0.00000000000000D+00
   2   4   3   4  0.67832524630556D+02  0.00000000000000D+00
   3   4   3   4 -0.20349757389167D+03  0.00000000000000D+00
   1   1   1   5  0.21885537782479D-10  0.00000000000000D+00
   2   1   1   5 -0.25512707999168D-11  0.00000000000000D+00
   3   1   1   5 -0.24414440816033D-10  0.00000000000000D+00
   1   2   1   5 -0.22592714859581D-11  0.00000000000000D+00
   2   2   1   5 -0.20762984002389D-12  0.00000000000000D+00
   3   2   1   5  0.20848700144860D-11  0.00000000000000D+00
   1   4   1   5  0.00000000000000D+00  0.00000000000000D+00
   2   4   1   5  0.00000000000000D+00  0.00000000000000D+00
   3   4   1   5 -0.17347234759768D-17  0.00000000000000D+00
   1   5   1   5  0.12145529978157D+01  0.00000000000000D+00
   2   5   1   5  0.62986079842635D+00  0.00000000000000D+00
   3   5   1   5  0.62986079784593D+00  0.00000000000000D+00
   1   6   1   5 -0.75003079624895D-09  0.00000000000000D+00
   2   6   1   5  0.11478138914409D-13  0.00000000000000D+00
   3   6   1   5  0.19275462588350D-08  0.00000000000000D+00
   1   1   2   5  0.21876251898028D-10  0.00000000000000D+00
   2   1   2   5  0.28097863755530D-13  0.00000000000000D+00
   3   1   2   5 -0.21833086373928D-10  0.00000000000000D+00
   1   2   2   5 -0.21341165640290D-11  0.00000000000000D+00
   2   2   2   5  0.75240942270602D-13  0.00000000000000D+00
   3   2   2   5  0.23756610889229D-11  0.00000000000000D+00
   1   4   2   5  0.00000000000000D+00  0.00000000000000D+00
   2   4   2   5  0.86736173798840D-18  0.00000000000000D+00
   3   4   2   5  0.00000000000000D+00  0.00000000000000D+00
   1   5   2   5  0.62986070257167D+00  0.00000000000000D+00
   2   5   2   5  0.12145529098128D+01  0.00000000000000D+00
   3   5   2   5  0.62986070141086D+00  0.00000000000000D+00
   1   6   2   5 -0.19275024378308D-08  0.00000000000000D+00
   2   6   2   5  0.20472054402283D-14  0.00000000000000D+00
   3   6   2   5  0.19275333529059D-08  0.00000000000000D+00
   1   1   3   5  0.24454421833811D-10  0.00000000000000D+00
   2   1   3   5  0.26077214564831D-11  0.00000000000000D+00
   3   1   3   5 -0.21835531247050D-10  0.00000000000000D+00
   1   2   3   5 -0.19590915466053D-11  0.00000000000000D+00
   2   2   3   5  0.22823697687096D-12  0.00000000000000D+00
   3   2   3   5  0.23726961557120D-11  0.00000000000000D+00
   1   4   3   5  0.00000000000000D+00  0.00000000000000D+00
   2   4   3   5  0.00000000000000D+00  0.00000000000000D+00
   3   4   3   5  0.00000000000000D+00  0.00000000000000D+00
   1   5   3   5  0.62986076327128D+00  0.00000000000000D+00
   2   5   3   5  0.62986076269088D+00  0.00000000000000D+00
   3   5   3   5  0.12145529865787D+01  0.00000000000000D+00
   1   6   3   5 -0.19274911977089D-08  0.00000000000000D+00
   2   6   3   5 -0.27214657218321D-14  0.00000000000000D+00
   3   6   3   5  0.75004218877917D-09  0.00000000000000D+00
   1   1   1   6 -0.16181457278761D-11  0.00000000000000D+00
   2   1   1   6 -0.92643103656591D+00  0.00000000000000D+00
   3   1   1   6 -0.92643103656754D+00  0.00000000000000D+00
   1   2   1   6  0.21010057176424D-13  0.00000000000000D+00
   2   2   1   6  0.92642383587258D+00  0.00000000000000D+00
   3   2   1   6  0.92642383587244D+00  0.00000000000000D+00
   1   4   1   6  0.19796105332020D+01  0.00000000000000D+00
   2   4   1   6 -0.19796105332020D+01  0.00000000000000D+00
   3   4   1   6 -0.19796105332020D+01  0.00000000000000D+00
   1   5   1   6  0.35039494202396D-07  0.00000000000000D+00
   2   5   1   6  0.36242682374289D-07  0.00000000000000D+00
   3   5   1   6  0.36242694604647D-07  0.00000000000000D+00
   1   6   1   6  0.87057790306389D+00  0.00000000000000D+00
   2   6   1   6  0.76125973130938D-09  0.00000000000000D+00
   3   6   1   6  0.17809578732579D-14  0.00000000000000D+00
   1   1   2   6 -0.92643107353642D+00  0.00000000000000D+00
   2   1   2   6  0.23159043273130D-15  0.00000000000000D+00
   3   1   2   6 -0.92643107353964D+00  0.00000000000000D+00
   1   2   2   6  0.92642365899767D+00  0.00000000000000D+00
   2   2   2   6 -0.53708403918685D-14  0.00000000000000D+00
   3   2   2   6  0.92642365899740D+00  0.00000000000000D+00
   1   4   2   6 -0.19796106698397D+01  0.00000000000000D+00
   2   4   2   6  0.19796106698397D+01  0.00000000000000D+00
   3   4   2   6 -0.19796106698397D+01  0.00000000000000D+00
   1   5   2   6  0.16192025035756D-07  0.00000000000000D+00
   2   5   2   6  0.16012603689158D-07  0.00000000000000D+00
   3   5   2   6  0.16192008657113D-07  0.00000000000000D+00
   1   6   2   6  0.76125999425088D-09  0.00000000000000D+00
   2   6   2   6  0.87057790325899D+00  0.00000000000000D+00
   3   6   2   6 -0.76125338970706D-09  0.00000000000000D+00
   1   1   3   6 -0.92643108446832D+00  0.00000000000000D+00
   2   1   3   6 -0.92643108446992D+00  0.00000000000000D+00
   3   1   3   6  0.16206988555330D-11  0.00000000000000D+00
   1   2   3   6  0.92642357384672D+00  0.00000000000000D+00
   2   2   3   6  0.92642357384659D+00  0.00000000000000D+00
   3   2   3   6  0.13943949908727D-12  0.00000000000000D+00
   1   4   3   6 -0.19796107131636D+01  0.00000000000000D+00
   2   4   3   6 -0.19796107131636D+01  0.00000000000000D+00
   3   4   3   6  0.19796107131636D+01  0.00000000000000D+00
   1   5   3   6  0.30067437976354D-08  0.00000000000000D+00
   2   5   3   6  0.30067324037419D-08  0.00000000000000D+00
   3   5   3   6  0.41436513230285D-08  0.00000000000000D+00
   1   6   3   6  0.18196376655913D-14  0.00000000000000D+00
   2   6   3   6 -0.76125356975670D-09  0.00000000000000D+00
   3   6   3   6  0.87057788370004D+00  0.00000000000000D+00
  
 3rd derivatives              - # elements :     189
 qpt  0.00000000E+00  0.00000000E+00  0.00000000E+00   1.0
      0.00000000E+00  0.00000000E+00  0.00000000E+00   1.0
      0.00000000E+00  0.00000000E+00  0.00000000E+00   1.0
   1   4   1   4   1   1 -0.26103696163837D+02  0.00000000000000D+00
   2   4   1   4   1   1  0.13051848125946D+02  0.00000000000000D+00
   3   4   1   4   1   1  0.13051848125946D+02  0.00000000000000D+00
   1   4   2   4   1   1  0.13051848138944D+02  0.00000000000000D+00
   2   4   2   4   1   1  0.00000000000000D+00  0.00000000000000D+00
   3   4   2   4   1   1  0.00000000000000D+00  0.00000000000000D+00
   1   4   3   4   1   1  0.13051848138944D+02  0.00000000000000D+00
   2   4   3   4   1   1  0.00000000000000D+00  0.00000000000000D+00
   3   4   3   4   1   1  0.00000000000000D+00  0.00000000000000D+00
   1   4   1   4   2   1  0.00000000000000D+00  0.00000000000000D+00
   2   4   1   4   2   1  0.13051848011896D+02  0.00000000000000D+00
   3   4   1   4   2   1  0.00000000000000D+00  0.00000000000000D+00
   1   4   2   4   2   1  0.13051848125946D+02  0.00000000000000D+00
   2   4   2   4   2   1 -0.26103696163837D+02  0.00000000000000D+00
   3   4   2   4   2   1  0.13051848125946D+02  0.00000000000000D+00
   1   4   3   4   2   1  0.00000000000000D+00  0.00000000000000D+00
   2   4   3   4   2   1  0.13051848138944D+02  0.00000000000000D+00
   3   4   3   4   2   1  0.00000000000000D+00  0.00000000000000D+00
   1   4   1   4   3   1  0.00000000000000D+00  0.00000000000000D+00
   2   4   1   4   3   1  0.00000000000000D+00  0.00000000000000D+00
   3   4   1   4   3   1  0.13051848138944D+02  0.00000000000000D+00
   1   4   2   4   3   1  0.00000000000000D+00  0.00000000000000D+00
   2   4   2   4   3   1  0.00000000000000D+00  0.00000000000000D+00
   3   4   2   4   3   1  0.13051848011896D+02  0.00000000000000D+00
   1   4   3   4   3   1  0.13051848125946D+02  0.00000000000000D+00
   2   4   3   4   3   1  0.13051848125946D+02  0.00000000000000D+00
   3   4   3   4   3   1 -0.26103696163837D+02  0.00000000000000D+00
   1   4   1   4   1   2  0.19826410659019D+02  0.00000000000000D+00
   2   4   1   4   1   2 -0.99132051033201D+01  0.00000000000000D+00
   3   4   1   4   1   2 -0.99132051033201D+01  0.00000000000000D+00
   1   4   2   4   1   2 -0.99132051124260D+01  0.00000000000000D+00
   2   4   2   4   1   2  0.00000000000000D+00  0.00000000000000D+00
   3   4   2   4   1   2  0.00000000000000D+00  0.00000000000000D+00
   1   4   3   4   1   2 -0.99132051124260D+01  0.00000000000000D+00
   2   4   3   4   1   2  0.00000000000000D+00  0.00000000000000D+00
   3   4   3   4   1   2  0.00000000000000D+00  0.00000000000000D+00
   1   4   1   4   2   2  0.00000000000000D+00  0.00000000000000D+00
   2   4   1   4   2   2 -0.99132055374867D+01  0.00000000000000D+00
   3   4   1   4   2   2  0.00000000000000D+00  0.00000000000000D+00
   1   4   2   4   2   2 -0.99132051033201D+01  0.00000000000000D+00
   2   4   2   4   2   2  0.19826410659019D+02  0.00000000000000D+00
   3   4   2   4   2   2 -0.99132051033201D+01  0.00000000000000D+00
   1   4   3   4   2   2  0.00000000000000D+00  0.00000000000000D+00
   2   4   3   4   2   2 -0.99132051124260D+01  0.00000000000000D+00
   3   4   3   4   2   2  0.00000000000000D+00  0.00000000000000D+00
   1   4   1   4   3   2  0.00000000000000D+00  0.00000000000000D+00
   2   4   1   4   3   2  0.00000000000000D+00  0.00000000000000D+00
   3   4   1   4   3   2 -0.99132051124260D+01  0.00000000000000D+00
   1   4   2   4   3   2  0.00000000000000D+00  0.00000000000000D+00
   2   4   2   4   3   2  0.00000000000000D+00  0.00000000000000D+00
   3   4   2   4   3   2 -0.99132055374867D+01  0.00000000000000D+00
   1   4   3   4   3   2 -0.99132051033201D+01  0.00000000000000D+00
   2   4   3   4   3   2 -0.99132051033201D+01  0.00000000000000D+00
   3   4   3   4   3   2  0.19826410659019D+02  0.00000000000000D+00
   1   4   1   1   1   4 -0.51319519720047D+02  0.00000000000000D+00
   2   4   1   1   1   4  0.25659759761218D+02  0.00000000000000D+00
   3   4   1   1   1   4  0.25659759761218D+02  0.00000000000000D+00
   1   4   2   1   1   4  0.00000000000000D+00  0.00000000000000D+00
   2   4   2   1   1   4  0.25659759958828D+02  0.00000000000000D+00
   3   4   2   1   1   4  0.00000000000000D+00  0.00000000000000D+00
   1   4   3   1   1   4  0.00000000000000D+00  0.00000000000000D+00
   2   4   3   1   1   4  0.00000000000000D+00  0.00000000000000D+00
   3   4   3   1   1   4  0.25659759761218D+02  0.00000000000000D+00
   1   4   1   2   1   4  0.63626758135551D+02  0.00000000000000D+00
   2   4   1   2   1   4 -0.31813379425900D+02  0.00000000000000D+00
   3   4   1   2   1   4 -0.31813379425900D+02  0.00000000000000D+00
   1   4   2   2   1   4  0.00000000000000D+00  0.00000000000000D+00
   2   4   2   2   1   4 -0.31813378709651D+02  0.00000000000000D+00
   3   4   2   2   1   4  0.00000000000000D+00  0.00000000000000D+00
   1   4   3   2   1   4  0.00000000000000D+00  0.00000000000000D+00
   2   4   3   2   1   4  0.00000000000000D+00  0.00000000000000D+00
   3   4   3   2   1   4 -0.31813379425900D+02  0.00000000000000D+00
   1   1   1   4   1   4 -0.26103696163837D+02  0.00000000000000D+00
   2   1   1   4   1   4  0.00000000000000D+00  0.00000000000000D+00
   3   1   1   4   1   4  0.00000000000000D+00  0.00000000000000D+00
   1   2   1   4   1   4  0.19826410659019D+02  0.00000000000000D+00
   2   2   1   4   1   4  0.00000000000000D+00  0.00000000000000D+00
   3   2   1   4   1   4  0.00000000000000D+00  0.00000000000000D+00
   1   4   1   4   1   4  0.21493799421029D+03  0.00000000000000D+00
   2   4   1   4   1   4 -0.71645997838137D+02  0.00000000000000D+00
   3   4   1   4   1   4 -0.71645998045414D+02  0.00000000000000D+00
   1   1   2   4   1   4  0.13051848138944D+02  0.00000000000000D+00
   2   1   2   4   1   4  0.13051848050889D+02  0.00000000000000D+00
   3   1   2   4   1   4  0.00000000000000D+00  0.00000000000000D+00
   1   2   2   4   1   4 -0.99132051124260D+01  0.00000000000000D+00
   2   2   2   4   1   4 -0.99132055648045D+01  0.00000000000000D+00
   3   2   2   4   1   4  0.00000000000000D+00  0.00000000000000D+00
   1   4   2   4   1   4 -0.71645998068001D+02  0.00000000000000D+00
   2   4   2   4   1   4 -0.71645998275279D+02  0.00000000000000D+00
   3   4   2   4   1   4  0.71645998025164D+02  0.00000000000000D+00
   1   1   3   4   1   4  0.13051848138944D+02  0.00000000000000D+00
   2   1   3   4   1   4  0.00000000000000D+00  0.00000000000000D+00
   3   1   3   4   1   4  0.13051848125946D+02  0.00000000000000D+00
   1   2   3   4   1   4 -0.99132051124260D+01  0.00000000000000D+00
   2   2   3   4   1   4  0.00000000000000D+00  0.00000000000000D+00
   3   2   3   4   1   4 -0.99132051033201D+01  0.00000000000000D+00
   1   4   3   4   1   4 -0.71645998068001D+02  0.00000000000000D+00
   2   4   3   4   1   4  0.71645998318116D+02  0.00000000000000D+00
   3   4   3   4   1   4 -0.71645998096877D+02  0.00000000000000D+00
   1   4   1   1   2   4  0.25659759761218D+02  0.00000000000000D+00
   2   4   1   1   2   4  0.00000000000000D+00  0.00000000000000D+00
   3   4   1   1   2   4  0.00000000000000D+00  0.00000000000000D+00
   1   4   2   1   2   4  0.25659759761218D+02  0.00000000000000D+00
   2   4   2   1   2   4 -0.51319519720047D+02  0.00000000000000D+00
   3   4   2   1   2   4  0.25659759761218D+02  0.00000000000000D+00
   1   4   3   1   2   4  0.00000000000000D+00  0.00000000000000D+00
   2   4   3   1   2   4  0.00000000000000D+00  0.00000000000000D+00
   3   4   3   1   2   4  0.25659759958828D+02  0.00000000000000D+00
   1   4   1   2   2   4 -0.31813379425900D+02  0.00000000000000D+00
   2   4   1   2   2   4  0.00000000000000D+00  0.00000000000000D+00
   3   4   1   2   2   4  0.00000000000000D+00  0.00000000000000D+00
   1   4   2   2   2   4 -0.31813379425900D+02  0.00000000000000D+00
   2   4   2   2   2   4  0.63626758135551D+02  0.00000000000000D+00
   3   4   2   2   2   4 -0.31813379425900D+02  0.00000000000000D+00
   1   4   3   2   2   4  0.00000000000000D+00  0.00000000000000D+00
   2   4   3   2   2   4  0.00000000000000D+00  0.00000000000000D+00
   3   4   3   2   2   4 -0.31813378709651D+02  0.00000000000000D+00
   1   1   1   4   2   4  0.13051848125946D+02  0.00000000000000D+00
   2   1   1   4   2   4  0.13051848138944D+02  0.00000000000000D+00
   3   1   1   4   2   4  0.00000000000000D+00  0.00000000000000D+00
   1   2   1   4   2   4 -0.99132051033201D+01  0.00000000000000D+00
   2   2   1   4   2   4 -0.99132051124260D+01  0.00000000000000D+00
   3   2   1   4   2   4  0.00000000000000D+00  0.00000000000000D+00
   1   4   1   4   2   4 -0.71645997838137D+02  0.00000000000000D+00
   2   4   1   4   2   4 -0.71645998074290D+02  0.00000000000000D+00
   3   4   1   4   2   4  0.71645997795300D+02  0.00000000000000D+00
   1   1   2   4   2   4  0.00000000000000D+00  0.00000000000000D+00
   2   1   2   4   2   4 -0.26103696163837D+02  0.00000000000000D+00
   3   1   2   4   2   4  0.00000000000000D+00  0.00000000000000D+00
   1   2   2   4   2   4  0.00000000000000D+00  0.00000000000000D+00
   2   2   2   4   2   4  0.19826410659019D+02  0.00000000000000D+00
   3   2   2   4   2   4  0.00000000000000D+00  0.00000000000000D+00
   1   4   2   4   2   4 -0.71645998275279D+02  0.00000000000000D+00
   2   4   2   4   2   4  0.21493799421029D+03  0.00000000000000D+00
   3   4   2   4   2   4 -0.71645997838137D+02  0.00000000000000D+00
   1   1   3   4   2   4  0.00000000000000D+00  0.00000000000000D+00
   2   1   3   4   2   4  0.13051848138944D+02  0.00000000000000D+00
   3   1   3   4   2   4  0.13051848050889D+02  0.00000000000000D+00
   1   2   3   4   2   4  0.00000000000000D+00  0.00000000000000D+00
   2   2   3   4   2   4 -0.99132051124260D+01  0.00000000000000D+00
   3   2   3   4   2   4 -0.99132055648045D+01  0.00000000000000D+00
   1   4   3   4   2   4  0.71645998318116D+02  0.00000000000000D+00
   2   4   3   4   2   4 -0.71645998068001D+02  0.00000000000000D+00
   3   4   3   4   2   4 -0.71645998275279D+02  0.00000000000000D+00
   1   4   1   1   3   4  0.25659759761218D+02  0.00000000000000D+00
   2   4   1   1   3   4  0.00000000000000D+00  0.00000000000000D+00
   3   4   1   1   3   4  0.00000000000000D+00  0.00000000000000D+00
   1   4   2   1   3   4  0.00000000000000D+00  0.00000000000000D+00
   2   4   2   1   3   4  0.25659759761218D+02  0.00000000000000D+00
   3   4   2   1   3   4  0.00000000000000D+00  0.00000000000000D+00
   1   4   3   1   3   4  0.25659759761218D+02  0.00000000000000D+00
   2   4   3   1   3   4  0.25659759761218D+02  0.00000000000000D+00
   3   4   3   1   3   4 -0.51319519720047D+02  0.00000000000000D+00
   1   4   1   2   3   4 -0.31813379425900D+02  0.00000000000000D+00
   2   4   1   2   3   4  0.00000000000000D+00  0.00000000000000D+00
   3   4   1   2   3   4  0.00000000000000D+00  0.00000000000000D+00
   1   4   2   2   3   4  0.00000000000000D+00  0.00000000000000D+00
   2   4   2   2   3   4 -0.31813379425900D+02  0.00000000000000D+00
   3   4   2   2   3   4  0.00000000000000D+00  0.00000000000000D+00
   1   4   3   2   3   4 -0.31813379425900D+02  0.00000000000000D+00
   2   4   3   2   3   4 -0.31813379425900D+02  0.00000000000000D+00
   3   4   3   2   3   4  0.63626758135551D+02  0.00000000000000D+00
   1   1   1   4   3   4  0.13051848125946D+02  0.00000000000000D+00
   2   1   1   4   3   4  0.00000000000000D+00  0.00000000000000D+00
   3   1   1   4   3   4  0.13051848138944D+02  0.00000000000000D+00
   1   2   1   4   3   4 -0.99132051033201D+01  0.00000000000000D+00
   2   2   1   4   3   4  0.00000000000000D+00  0.00000000000000D+00
   3   2   1   4   3   4 -0.99132051124260D+01  0.00000000000000D+00
   1   4   1   4   3   4 -0.71645998275279D+02  0.00000000000000D+00
   2   4   1   4   3   4  0.71645997795300D+02  0.00000000000000D+00
   3   4   1   4   3   4 -0.71645998068001D+02  0.00000000000000D+00
   1   1   2   4   3   4  0.00000000000000D+00  0.00000000000000D+00
   2   1   2   4   3   4  0.13051848125946D+02  0.00000000000000D+00
   3   1   2   4   3   4  0.13051848138944D+02  0.00000000000000D+00
   1   2   2   4   3   4  0.00000000000000D+00  0.00000000000000D+00
   2   2   2   4   3   4 -0.99132051033201D+01  0.00000000000000D+00
   3   2   2   4   3   4 -0.99132051124260D+01  0.00000000000000D+00
   1   4   2   4   3   4  0.71645998025164D+02  0.00000000000000D+00
   2   4   2   4   3   4 -0.71645997838137D+02  0.00000000000000D+00
   3   4   2   4   3   4 -0.71645998074290D+02  0.00000000000000D+00
   1   1   3   4   3   4  0.00000000000000D+00  0.00000000000000D+00
   2   1   3   4   3   4  0.00000000000000D+00  0.00000000000000D+00
   3   1   3   4   3   4 -0.26103696163837D+02  0.00000000000000D+00
   1   2   3   4   3   4  0.00000000000000D+00  0.00000000000000D+00
   2   2   3   4   3   4  0.00000000000000D+00  0.00000000000000D+00
   3   2   3   4   3   4  0.19826410659019D+02  0.00000000000000D+00
   1   4   3   4   3   4 -0.71645997838137D+02  0.00000000000000D+00
   2   4   3   4   3   4 -0.71645998275279D+02  0.00000000000000D+00
   3   4   3   4   3   4  0.21493799421029D+03  0.00000000000000D+00

 List of bloks and their characteristics 
  
 2nd derivatives (non-stat.)  - # elements :     171
 qpt  0.00000000E+00  0.00000000E+00  0.00000000E+00   1.0
  
 3rd derivatives              - # elements :     189
 qpt  0.00000000E+00  0.00000000E+00  0.00000000E+00   1.0
      0.00000000E+00  0.00000000E+00  0.00000000E+00   1.0
      0.00000000E+00  0.00000000E+00  0.00000000E+00   1.0
