
.Version 7.10.4 of ABINIT 
.(MPI version, prepared for a x86_64_linux_gnu4.7 computer) 

.Copyright (C) 1998-2014 ABINIT group . 
 ABINIT comes with ABSOLUTELY NO WARRANTY.
 It is free software, and you are welcome to redistribute it
 under certain conditions (GNU General Public License,
 see ~abinit/COPYING or http://www.gnu.org/copyleft/gpl.txt).

 ABINIT is a project of the Universite Catholique de Louvain,
 Corning Inc. and other collaborators, see ~abinit/doc/developers/contributors.txt .
 Please read ~abinit/doc/users/acknowledgments.html for suggested
 acknowledgments of the ABINIT effort.
 For more information, see http://www.abinit.org .

.Starting date : Sun  1 Feb 2015.
- ( at 15h03 )
  
- input  file    -> trf1_1.in
- output file    -> trf1_1.out
- root for input  files -> trf1_1i
- root for output files -> trf1_1o


 Symmetries : space group F-4 3 m (#216); Bravais cF (face-center cubic)
================================================================================
 Values of the parameters that define the memory need of the present run
   intxc =         0  ionmov =         0    iscf =         5 xclevel =         1
  lmnmax =         3   lnmax =         3   mband =         4  mffmem =         1
P  mgfft =        12   mkmem =        10 mpssoang=         3     mpw =        77
  mqgrid =      3001   natom =         2    nfft =      1728    nkpt =        10
  nloalg =         4  nspden =         1 nspinor =         1  nsppol =         1
    nsym =        24  n1xccc =      2501  ntypat =         2  occopt =         1
================================================================================
P This job should need less than                       1.383 Mbytes of memory.
  Rough estimation (10% accuracy) of disk space for files :
_ WF disk file :      0.049 Mbytes ; DEN or POT disk file :      0.015 Mbytes.
================================================================================

--------------------------------------------------------------------------------
------------- Echo of variables that govern the present computation ------------
--------------------------------------------------------------------------------
-
- outvars: echo of selected default values                                      
-   accesswff0 =  0 , fftalg0 =112 , wfoptalg0 =  0
-
- outvars: echo of global parameters not present in the input file              
-  max_nthreads =    0
-
 -outvars: echo values of preprocessed input variables --------
            acell      1.0610000000E+01  1.0610000000E+01  1.0610000000E+01 Bohr
              amu      2.69815390E+01  7.49215900E+01
           diemac      9.00000000E+00
             ecut      3.00000000E+00 Hartree
-          fftalg         112
             iscf           5
              kpt      0.00000000E+00  0.00000000E+00 -1.25000000E-01
                       0.00000000E+00  0.00000000E+00 -3.75000000E-01
                       0.00000000E+00  1.25000000E-01 -2.50000000E-01
                       1.25000000E-01  1.25000000E-01 -1.25000000E-01
                       0.00000000E+00  1.25000000E-01  5.00000000E-01
                       0.00000000E+00  2.50000000E-01 -3.75000000E-01
                       1.25000000E-01  2.50000000E-01 -2.50000000E-01
                       2.50000000E-01  2.50000000E-01 -1.25000000E-01
                       0.00000000E+00  3.75000000E-01  5.00000000E-01
                       1.25000000E-01  3.75000000E-01 -3.75000000E-01
         kptrlatt       -4    4    4      4   -4    4      4    4   -4
          kptrlen      4.24400000E+01
P           mkmem          10
            natom           2
            nband           4
            ngfft          12      12      12
             nkpt          10
            nstep          15
             nsym          24
           ntypat           2
              occ      2.000000  2.000000  2.000000  2.000000
        optforces           1
            rprim      0.0000000000E+00  5.0000000000E-01  5.0000000000E-01
                       5.0000000000E-01  0.0000000000E+00  5.0000000000E-01
                       5.0000000000E-01  5.0000000000E-01  0.0000000000E+00
           shiftk      5.00000000E-01  5.00000000E-01  5.00000000E-01
          spgroup         216
           symrel      1  0  0   0  1  0   0  0  1       0 -1  1   0 -1  0   1 -1  0
                      -1  0  0  -1  0  1  -1  1  0       0  1 -1   1  0 -1   0  0 -1
                      -1  0  0  -1  1  0  -1  0  1       0 -1  1   1 -1  0   0 -1  0
                       1  0  0   0  0  1   0  1  0       0  1 -1   0  0 -1   1  0 -1
                      -1  0  1  -1  1  0  -1  0  0       0 -1  0   1 -1  0   0 -1  1
                       1  0 -1   0  0 -1   0  1 -1       0  1  0   0  0  1   1  0  0
                       1  0 -1   0  1 -1   0  0 -1       0 -1  0   0 -1  1   1 -1  0
                      -1  0  1  -1  0  0  -1  1  0       0  1  0   1  0  0   0  0  1
                       0  0 -1   0  1 -1   1  0 -1       1 -1  0   0 -1  1   0 -1  0
                       0  0  1   1  0  0   0  1  0      -1  1  0  -1  0  0  -1  0  1
                       0  0  1   0  1  0   1  0  0       1 -1  0   0 -1  0   0 -1  1
                       0  0 -1   1  0 -1   0  1 -1      -1  1  0  -1  0  1  -1  0  0
           tolvrs      1.00000000E-18
            typat      1  2
              wtk        0.03125    0.03125    0.09375    0.09375    0.09375    0.09375
                         0.18750    0.09375    0.09375    0.18750
           xangst      0.0000000000E+00  0.0000000000E+00  0.0000000000E+00
                       1.4036425458E+00  1.4036425458E+00  1.4036425458E+00
            xcart      0.0000000000E+00  0.0000000000E+00  0.0000000000E+00
                       2.6525000000E+00  2.6525000000E+00  2.6525000000E+00
             xred      0.0000000000E+00  0.0000000000E+00  0.0000000000E+00
                       2.5000000000E-01  2.5000000000E-01  2.5000000000E-01
            znucl       13.00000   33.00000

================================================================================

 chkinp: Checking input parameters for consistency.

================================================================================
== DATASET  1 ==================================================================
-   nproc =    1

 Exchange-correlation functional for the present dataset will be:
  LDA: new Teter (4/93) with spin-polarized option - ixc=1
 Citation for XC functional:
  S. Goedecker, M. Teter, J. Huetter, PRB 54, 1703 (1996)

 Real(R)+Recip(G) space primitive vectors, cartesian coordinates (Bohr,Bohr^-1):
 R(1)=  0.0000000  5.3050000  5.3050000  G(1)= -0.0942507  0.0942507  0.0942507
 R(2)=  5.3050000  0.0000000  5.3050000  G(2)=  0.0942507 -0.0942507  0.0942507
 R(3)=  5.3050000  5.3050000  0.0000000  G(3)=  0.0942507  0.0942507 -0.0942507
 Unit cell volume ucvol=  2.9859750E+02 bohr^3
 Angles (23,13,12)=  6.00000000E+01  6.00000000E+01  6.00000000E+01 degrees

 getcut: wavevector=  0.0000  0.0000  0.0000  ngfft=  12  12  12
         ecut(hartree)=      3.000   => boxcut(ratio)=   2.05142

--- Pseudopotential description ------------------------------------------------
- pspini: atom type   1  psp file is /data/ABINIT/testf_gcc47/trunk_7.10.4-training/tests/Psps_for_tests/13al.981214.fhi
- pspatm: opening atomic psp file    /data/ABINIT/testf_gcc47/trunk_7.10.4-training/tests/Psps_for_tests/13al.981214.fhi
- Aluminum, fhi98PP : Hamann-type, LDA CA PerdewWang, l=2 local
- 13.00000   3.00000    981214                znucl, zion, pspdat
    6    7    2    2       493   0.00000      pspcod,pspxc,lmax,lloc,mmax,r2well
  No XC core correction.
  1.024700          amesh (Hamman grid)
 pspatm: epsatm=    1.36305739
         --- l  ekb(1:nproj) -->
             0    1.768744
             1    0.900554
 pspatm: atomic psp has been read  and splines computed

- pspini: atom type   2  psp file is /data/ABINIT/testf_gcc47/trunk_7.10.4-training/tests/Psps_for_tests/33as.pspnc
- pspatm: opening atomic psp file    /data/ABINIT/testf_gcc47/trunk_7.10.4-training/tests/Psps_for_tests/33as.pspnc
-  Troullier-Martins psp for element  As        Thu Oct 27 17:37:14 EDT 1994
- 33.00000   5.00000    940714                znucl, zion, pspdat
    1    1    1    1      2001   0.00000      pspcod,pspxc,lmax,lloc,mmax,r2well
    0   4.772  10.829    1   2.5306160        l,e99.0,e99.9,nproj,rcpsp
   0.00000000   0.00000000   0.00000000   0.00000000     rms, ekb1, ekb2, epsatm
    1   2.745   5.580    0   2.5306160        l,e99.0,e99.9,nproj,rcpsp
   0.00000000   0.00000000   0.00000000   0.00000000     rms, ekb1, ekb2, epsatm
    2.05731715564010    0.36322996461007    2.76014815959125   rchrg,fchrg,qchrg
 pspatm: epsatm=   27.20579911
         --- l  ekb(1:nproj) -->
             0    0.838751
 pspatm: atomic psp has been read  and splines computed

   2.28550852E+02                                ecore*ucvol(ha*bohr**3)
--------------------------------------------------------------------------------

P newkpt: treating      4 bands with npw=      65 for ikpt=   1 by node    0
P newkpt: treating      4 bands with npw=      74 for ikpt=   2 by node    0
P newkpt: treating      4 bands with npw=      74 for ikpt=   3 by node    0
P newkpt: treating      4 bands with npw=      69 for ikpt=   4 by node    0
P newkpt: treating      4 bands with npw=      74 for ikpt=   5 by node    0
P newkpt: treating      4 bands with npw=      76 for ikpt=   6 by node    0
P newkpt: treating      4 bands with npw=      76 for ikpt=   7 by node    0
P newkpt: treating      4 bands with npw=      77 for ikpt=   8 by node    0
P newkpt: treating      4 bands with npw=      76 for ikpt=   9 by node    0
P newkpt: treating      4 bands with npw=      75 for ikpt=  10 by node    0

_setup2: Arith. and geom. avg. npw (full set) are      74.469      74.418

================================================================================

     iter   Etot(hartree)      deltaE(h)  residm     vres2    diffor    maxfor
 ETOT  1  -9.7581651356197    -9.758E+00 6.703E-04 9.217E-01 0.000E+00 0.000E+00
 ETOT  2  -9.7624319188766    -4.267E-03 1.991E-10 5.211E-02 6.295E-29 6.295E-29
 ETOT  3  -9.7625326816512    -1.008E-04 6.766E-07 4.327E-02 7.233E-29 1.420E-29
 ETOT  4  -9.7626759509537    -1.433E-04 8.866E-07 2.789E-03 3.442E-29 4.863E-29
 ETOT  5  -9.7626832864061    -7.335E-06 6.359E-08 1.763E-04 6.766E-29 3.231E-29
 ETOT  6  -9.7626836926658    -4.063E-07 2.716E-09 2.125E-05 2.437E-29 7.931E-30
 ETOT  7  -9.7626837414641    -4.880E-08 4.941E-10 1.494E-06 7.807E-30 2.726E-31
 ETOT  8  -9.7626837445728    -3.109E-09 1.850E-11 1.886E-07 7.187E-31 5.948E-31
 ETOT  9  -9.7626837449722    -3.993E-10 3.628E-12 1.434E-08 6.815E-31 8.674E-32
 ETOT 10  -9.7626837449988    -2.669E-11 1.322E-13 1.875E-09 8.674E-32 0.000E+00
 ETOT 11  -9.7626837450025    -3.679E-12 2.725E-14 1.571E-10 5.886E-32 5.886E-32
 ETOT 12  -9.7626837450028    -2.647E-13 9.828E-16 2.112E-11 5.886E-32 0.000E+00
 ETOT 13  -9.7626837450028    -1.421E-14 1.201E-17 1.515E-11 0.000E+00 0.000E+00
 ETOT 14  -9.7626837450028    -1.954E-14 3.803E-16 1.083E-12 0.000E+00 0.000E+00
 ETOT 15  -9.7626837450028     4.441E-14 1.292E-17 5.898E-15 0.000E+00 0.000E+00

 Cartesian components of stress tensor (hartree/bohr^3)
  sigma(1 1)=  2.88203320E-04  sigma(3 2)=  0.00000000E+00
  sigma(2 2)=  2.88203320E-04  sigma(3 1)=  0.00000000E+00
  sigma(3 3)=  2.88203320E-04  sigma(2 1)=  0.00000000E+00


 scprqt:  WARNING -
  nstep=   15 was not enough SCF cycles to converge;
  potential residual=  5.898E-15 exceeds tolvrs=  1.000E-18

================================================================================

 ----iterations are completed or convergence reached----

 Mean square residual over all n,k,spin=   5.2085E-18; max=  1.2924E-17
   0.0000  0.0000 -0.1250    1  6.92433E-18 kpt; spin; max resid(k); each band:
  6.57E-18 6.92E-18 1.15E-19 1.15E-19
   0.0000  0.0000 -0.3750    1  4.77416E-18 kpt; spin; max resid(k); each band:
  4.77E-18 4.75E-18 1.22E-19 1.22E-19
   0.0000  0.1250 -0.2500    1  1.10758E-17 kpt; spin; max resid(k); each band:
  9.10E-18 1.11E-17 5.17E-18 9.60E-20
   0.1250  0.1250 -0.1250    1  1.12917E-17 kpt; spin; max resid(k); each band:
  1.13E-17 1.08E-17 8.63E-20 4.09E-18
   0.0000  0.1250  0.5000    1  7.76458E-18 kpt; spin; max resid(k); each band:
  7.76E-18 5.49E-18 7.69E-18 9.23E-20
   0.0000  0.2500 -0.3750    1  8.47696E-18 kpt; spin; max resid(k); each band:
  5.37E-18 8.45E-18 8.48E-18 6.66E-19
   0.1250  0.2500 -0.2500    1  1.19818E-17 kpt; spin; max resid(k); each band:
  9.46E-18 1.20E-17 6.75E-18 2.91E-18
   0.2500  0.2500 -0.1250    1  1.29239E-17 kpt; spin; max resid(k); each band:
  1.24E-17 1.29E-17 3.68E-18 5.60E-19
   0.0000  0.3750  0.5000    1  3.97523E-18 kpt; spin; max resid(k); each band:
  3.36E-18 3.98E-18 2.55E-18 3.28E-19
   0.1250  0.3750 -0.3750    1  5.62197E-18 kpt; spin; max resid(k); each band:
  3.56E-18 5.62E-18 5.22E-18 3.85E-18
 reduced coordinates (array xred) for    2 atoms
       0.000000000000      0.000000000000      0.000000000000
       0.250000000000      0.250000000000      0.250000000000
 rms dE/dt=  0.0000E+00; max dE/dt=  0.0000E+00; dE/dt below (all hartree)
    1       0.000000000000      0.000000000000      0.000000000000
    2       0.000000000000      0.000000000000      0.000000000000

 cartesian coordinates (angstrom) at end:
    1      0.00000000000000     0.00000000000000     0.00000000000000
    2      1.40364254578497     1.40364254578497     1.40364254578497

 cartesian forces (hartree/bohr) at end:
    1     -0.00000000000000    -0.00000000000000    -0.00000000000000
    2     -0.00000000000000    -0.00000000000000    -0.00000000000000
 frms,max,avg= 0.0000000E+00 0.0000000E+00   0.000E+00  0.000E+00  0.000E+00 h/b

 cartesian forces (eV/Angstrom) at end:
    1     -0.00000000000000    -0.00000000000000    -0.00000000000000
    2     -0.00000000000000    -0.00000000000000    -0.00000000000000
 frms,max,avg= 0.0000000E+00 0.0000000E+00   0.000E+00  0.000E+00  0.000E+00 e/A
 length scales= 10.610000000000 10.610000000000 10.610000000000 bohr
              =  5.614570183140  5.614570183140  5.614570183140 angstroms
 prteigrs : about to open file trf1_1o_EIG
 Fermi (or HOMO) energy (hartree) =   0.07884   Average Vxc (hartree)=  -0.33469
 Eigenvalues (hartree) for nkpt=  10  k points:
 kpt#   1, nband=  4, wtk=  0.03125, kpt=  0.0000  0.0000 -0.1250 (reduced coord)
  -0.34831   0.03299   0.07884   0.07884
 kpt#   2, nband=  4, wtk=  0.03125, kpt=  0.0000  0.0000 -0.3750 (reduced coord)
  -0.31097  -0.10010   0.05564   0.05564
 kpt#   3, nband=  4, wtk=  0.09375, kpt=  0.0000  0.1250 -0.2500 (reduced coord)
  -0.32072  -0.06308   0.01995   0.06499
 kpt#   4, nband=  4, wtk=  0.09375, kpt=  0.1250  0.1250 -0.1250 (reduced coord)
  -0.33314  -0.02143   0.05015   0.05249
 kpt#   5, nband=  4, wtk=  0.09375, kpt=  0.0000  0.1250  0.5000 (reduced coord)
  -0.29747  -0.11672   0.01923   0.04186
 kpt#   6, nband=  4, wtk=  0.09375, kpt=  0.0000  0.2500 -0.3750 (reduced coord)
  -0.28877  -0.10539  -0.03600   0.03149
 kpt#   7, nband=  4, wtk=  0.18750, kpt=  0.1250  0.2500 -0.2500 (reduced coord)
  -0.29952  -0.09297  -0.01299   0.03113
 kpt#   8, nband=  4, wtk=  0.09375, kpt=  0.2500  0.2500 -0.1250 (reduced coord)
  -0.30791  -0.07156   0.00805   0.02143
 kpt#   9, nband=  4, wtk=  0.09375, kpt=  0.0000  0.3750  0.5000 (reduced coord)
  -0.28309  -0.10667  -0.01759   0.00608
 kpt#  10, nband=  4, wtk=  0.18750, kpt=  0.1250  0.3750 -0.3750 (reduced coord)
  -0.28170  -0.10282  -0.03908  -0.00164
 Total charge density [el/Bohr^3]
,     Maximum=    9.2541E-02  at reduced coord.    0.1667    0.1667    0.5000
,Next maximum=    9.2541E-02  at reduced coord.    0.1667    0.5000    0.1667
,     Minimum=    2.9515E-03  at reduced coord.    0.7500    0.7500    0.7500
,Next minimum=    3.3927E-03  at reduced coord.    0.7500    0.7500    0.6667
,  Integrated=    8.0000E+00

--------------------------------------------------------------------------------
 Components of total free energy (in Hartree) :

    Kinetic energy  =  2.91979676883075E+00
    Hartree energy  =  7.88574633743695E-01
    XC energy       = -3.93301605978560E+00
    Ewald energy    = -8.47989583509473E+00
    PspCore energy  =  7.65414498117115E-01
    Loc. psp. energy= -2.41963687424183E+00
    NL   psp  energy=  5.96079123427828E-01
    >>>>>>>>> Etotal= -9.76268374500278E+00

 Other information on the energy :
    Total energy(eV)= -2.65656134889053E+02 ; Band energy (Ha)=  -7.1353552528E-01
--------------------------------------------------------------------------------

 Cartesian components of stress tensor (hartree/bohr^3)
  sigma(1 1)=  2.88203320E-04  sigma(3 2)=  0.00000000E+00
  sigma(2 2)=  2.88203320E-04  sigma(3 1)=  0.00000000E+00
  sigma(3 3)=  2.88203320E-04  sigma(2 1)=  0.00000000E+00

-Cartesian components of stress tensor (GPa)         [Pressure= -8.4792E+00 GPa]
- sigma(1 1)=  8.47923299E+00  sigma(3 2)=  0.00000000E+00
- sigma(2 2)=  8.47923299E+00  sigma(3 1)=  0.00000000E+00
- sigma(3 3)=  8.47923299E+00  sigma(2 1)=  0.00000000E+00

== END DATASET(S) ==============================================================
================================================================================
  
 -outvars: echo values of variables after computation  --------
            acell      1.0610000000E+01  1.0610000000E+01  1.0610000000E+01 Bohr
              amu      2.69815390E+01  7.49215900E+01
           diemac      9.00000000E+00
             ecut      3.00000000E+00 Hartree
           etotal     -9.7626837450E+00
            fcart     -0.0000000000E+00 -0.0000000000E+00 -0.0000000000E+00
                      -0.0000000000E+00 -0.0000000000E+00 -0.0000000000E+00
-          fftalg         112
             iscf           5
              kpt      0.00000000E+00  0.00000000E+00 -1.25000000E-01
                       0.00000000E+00  0.00000000E+00 -3.75000000E-01
                       0.00000000E+00  1.25000000E-01 -2.50000000E-01
                       1.25000000E-01  1.25000000E-01 -1.25000000E-01
                       0.00000000E+00  1.25000000E-01  5.00000000E-01
                       0.00000000E+00  2.50000000E-01 -3.75000000E-01
                       1.25000000E-01  2.50000000E-01 -2.50000000E-01
                       2.50000000E-01  2.50000000E-01 -1.25000000E-01
                       0.00000000E+00  3.75000000E-01  5.00000000E-01
                       1.25000000E-01  3.75000000E-01 -3.75000000E-01
         kptrlatt       -4    4    4      4   -4    4      4    4   -4
          kptrlen      4.24400000E+01
P           mkmem          10
            natom           2
            nband           4
            ngfft          12      12      12
             nkpt          10
            nstep          15
             nsym          24
           ntypat           2
              occ      2.000000  2.000000  2.000000  2.000000
        optforces           1
            rprim      0.0000000000E+00  5.0000000000E-01  5.0000000000E-01
                       5.0000000000E-01  0.0000000000E+00  5.0000000000E-01
                       5.0000000000E-01  5.0000000000E-01  0.0000000000E+00
           shiftk      5.00000000E-01  5.00000000E-01  5.00000000E-01
          spgroup         216
           strten      2.8820332009E-04  2.8820332009E-04  2.8820332009E-04
                       0.0000000000E+00  0.0000000000E+00  0.0000000000E+00
           symrel      1  0  0   0  1  0   0  0  1       0 -1  1   0 -1  0   1 -1  0
                      -1  0  0  -1  0  1  -1  1  0       0  1 -1   1  0 -1   0  0 -1
                      -1  0  0  -1  1  0  -1  0  1       0 -1  1   1 -1  0   0 -1  0
                       1  0  0   0  0  1   0  1  0       0  1 -1   0  0 -1   1  0 -1
                      -1  0  1  -1  1  0  -1  0  0       0 -1  0   1 -1  0   0 -1  1
                       1  0 -1   0  0 -1   0  1 -1       0  1  0   0  0  1   1  0  0
                       1  0 -1   0  1 -1   0  0 -1       0 -1  0   0 -1  1   1 -1  0
                      -1  0  1  -1  0  0  -1  1  0       0  1  0   1  0  0   0  0  1
                       0  0 -1   0  1 -1   1  0 -1       1 -1  0   0 -1  1   0 -1  0
                       0  0  1   1  0  0   0  1  0      -1  1  0  -1  0  0  -1  0  1
                       0  0  1   0  1  0   1  0  0       1 -1  0   0 -1  0   0 -1  1
                       0  0 -1   1  0 -1   0  1 -1      -1  1  0  -1  0  1  -1  0  0
           tolvrs      1.00000000E-18
            typat      1  2
              wtk        0.03125    0.03125    0.09375    0.09375    0.09375    0.09375
                         0.18750    0.09375    0.09375    0.18750
           xangst      0.0000000000E+00  0.0000000000E+00  0.0000000000E+00
                       1.4036425458E+00  1.4036425458E+00  1.4036425458E+00
            xcart      0.0000000000E+00  0.0000000000E+00  0.0000000000E+00
                       2.6525000000E+00  2.6525000000E+00  2.6525000000E+00
             xred      0.0000000000E+00  0.0000000000E+00  0.0000000000E+00
                       2.5000000000E-01  2.5000000000E-01  2.5000000000E-01
            znucl       13.00000   33.00000

================================================================================


- Timing analysis has been suppressed with timopt=0



================================================================================

 Suggested references for the acknowledgment of ABINIT usage.

 The users of ABINIT have little formal obligations with respect to the ABINIT group
 (those specified in the GNU General Public License, http://www.gnu.org/copyleft/gpl.txt).
 However, it is common practice in the scientific literature,
 to acknowledge the efforts of people that have made the research possible.
 In this spirit, please find below suggested citations of work written by ABINIT developers,
 corresponding to implementations inside of ABINIT that you have used in the present run.
 Note also that it will be of great value to readers of publications presenting these results,
 to read papers enabling them to understand the theoretical formalism and details
 of the ABINIT implementation.
 For information on why they are suggested, see also http://www.abinit.org/about/?text=acknowledgments.

 [1] Ab initio pseudopotentials for electronic structure calculations of poly-atomic systems, 
 using density-functional theory.
 M. Fuchs, M. Scheffler, Comput. Phys. Commun. 119, 67 (1999).
 Comment : Some pseudopotential generated using the FHI code were used.

 [2] ABINIT : First-principles approach of materials and nanosystem properties.
 X. Gonze, B. Amadon, P.-M. Anglade, J.-M. Beuken, F. Bottin, P. Boulanger, F. Bruneval,
 D. Caliste, R. Caracas, M. Cote, T. Deutsch, L. Genovese, Ph. Ghosez, M. Giantomassi
 S. Goedecker, D.R. Hamann, P. Hermet, F. Jollet, G. Jomard, S. Leroux, M. Mancini, S. Mazevet,
 M.J.T. Oliveira, G. Onida, Y. Pouillon, T. Rangel, G.-M. Rignanese, D. Sangalli, R. Shaltaf,
 M. Torrent, M.J. Verstraete, G. Zerah, J.W. Zwanziger
 Computer Phys. Comm. 180, 2582-2615 (2009).
 Comment : the third generic paper describing the ABINIT project.
 Note that a version of this paper, that is not formatted for Computer Phys. Comm. 
 is available at http://www.abinit.org/about/ABINIT_CPC_v10.pdf .
 The licence allows the authors to put it on the Web.

 [3] A brief introduction to the ABINIT software package.
 X. Gonze, G.-M. Rignanese, M. Verstraete, J.-M. Beuken, Y. Pouillon, R. Caracas, F. Jollet,
 M. Torrent, G. Zerah, M. Mikami, Ph. Ghosez, M. Veithen, J.-Y. Raty, V. Olevano, F. Bruneval,
 L. Reining, R. Godby, G. Onida, D.R. Hamann, and D.C. Allan.
 Z. Kristallogr. 220, 558-562 (2005).
 Comment : the second generic paper describing the ABINIT project. Note that this paper
 should be cited especially if you are using the GW part of ABINIT, as several authors
 of this part are not in the list of authors of the first or third paper.
 The .pdf of the latter paper is available at http://www.abinit.org/about/zfk_0505-06_558-562.pdf.
 Note that it should not redistributed (Copyright by Oldenburg Wissenshaftverlag,
 the licence allows the authors to put it on the Web).


 And optionally :

 [4] First-principles computation of material properties : the ABINIT software project. 
 X. Gonze, J.-M. Beuken, R. Caracas, F. Detraux, M. Fuchs, G.-M. Rignanese, L. Sindic,
 M. Verstraete, G. Zerah, F. Jollet, M. Torrent, A. Roy, M. Mikami, Ph. Ghosez, J.-Y. Raty, D.C. Allan.
 Computational Materials Science 25, 478-492 (2002). http://dx.doi.org/10.1016/S0927-0256(02)00325-7
 Comment : the original paper describing the ABINIT project.

 [5] Fast radix 2, 3, 4 and 5 kernels for Fast Fourier Transformations
 on computers with overlapping multiply-add instructions.
 S. Goedecker, SIAM J. on Scientific Computing 18, 1605 (1997).
-
- Proc.   0 individual time (sec): cpu=          0.7  wall=          0.7

================================================================================

 Calculation completed.
.Delivered    8 WARNINGs and   0 COMMENTs to log file.
+Overall time at end (sec) : cpu=          0.7  wall=          0.7
