
.Version 7.9.3 of ABINIT 
.(MPI version, prepared for a x86_64_linux_gnu4.7 computer) 

.Copyright (C) 1998-2014 ABINIT group . 
 ABINIT comes with ABSOLUTELY NO WARRANTY.
 It is free software, and you are welcome to redistribute it
 under certain conditions (GNU General Public License,
 see ~abinit/COPYING or http://www.gnu.org/copyleft/gpl.txt).

 ABINIT is a project of the Universite Catholique de Louvain,
 Corning Inc. and other collaborators, see ~abinit/doc/developers/contributors.txt .
 Please read ~abinit/doc/users/acknowledgments.html for suggested
 acknowledgments of the ABINIT effort.
 For more information, see http://www.abinit.org .

.Starting date : Sat 30 Aug 2014.
- ( at 22h34 )
  
- input  file    -> t85.in
- output file    -> t85.out
- root for input  files -> t85i
- root for output files -> t85o


 DATASET    1 : space group Fm -3 m (#225); Bravais cF (face-center cubic)
================================================================================
 Values of the parameters that define the memory need for DATASET  1.
   intxc =         0  ionmov =         0    iscf =         5 xclevel =         1
  lmnmax =         2   lnmax =         2   mband =        35  mffmem =         1
P  mgfft =        12   mkmem =         8 mpssoang=         3     mpw =        84
  mqgrid =      3001   natom =         1    nfft =      1728    nkpt =         8
  nloalg =         4  nspden =         1 nspinor =         1  nsppol =         1
    nsym =        48  n1xccc =      2501  ntypat =         1  occopt =         3
================================================================================
P This job should need less than                       2.139 Mbytes of memory.
  Rough estimation (10% accuracy) of disk space for files :
_ WF disk file :      0.361 Mbytes ; DEN or POT disk file :      0.015 Mbytes.
================================================================================


 DATASET    2 : space group Fm -3 m (#225); Bravais cF (face-center cubic)
================================================================================
 Values of the parameters that define the memory need for DATASET  2.
   intxc =         0  ionmov =         0    iscf =         7 xclevel =         1
  lmnmax =         2   lnmax =         2   mband =        20  mffmem =         1
P  mgfft =        12   mkmem =         8 mpssoang=         3     mpw =        70
  mqgrid =      3001   natom =         1    nfft =      1728    nkpt =         8
  nloalg =         4  nspden =         1 nspinor =         1  nsppol =         1
    nsym =        48  n1xccc =      2501  ntypat =         1  occopt =         3
================================================================================
P This job should need less than                       1.988 Mbytes of memory.
  Rough estimation (10% accuracy) of disk space for files :
_ WF disk file :      0.173 Mbytes ; DEN or POT disk file :      0.015 Mbytes.
================================================================================


 DATASET    3 : space group Fm -3 m (#225); Bravais cF (face-center cubic)
================================================================================
 Values of the parameters that define the memory need for DATASET  3.
   intxc =         0  ionmov =         0    iscf =         7 xclevel =         1
  lmnmax =         2   lnmax =         2   mband =        30  mffmem =         1
P  mgfft =        12   mkmem =         8 mpssoang=         3     mpw =        70
  mqgrid =      3001   natom =         1    nfft =      1728    nkpt =         8
  nloalg =         4  nspden =         1 nspinor =         1  nsppol =         1
    nsym =        48  n1xccc =      2501  ntypat =         1  occopt =         3
================================================================================
P This job should need less than                       2.096 Mbytes of memory.
  Rough estimation (10% accuracy) of disk space for files :
_ WF disk file :      0.258 Mbytes ; DEN or POT disk file :      0.015 Mbytes.
================================================================================


 DATASET    4 : space group Fm -3 m (#225); Bravais cF (face-center cubic)
================================================================================
 Values of the parameters that define the memory need for DATASET  4.
   intxc =         0  ionmov =         0    iscf =         7 xclevel =         1
  lmnmax =         2   lnmax =         2   mband =        30  mffmem =         1
P  mgfft =        12   mkmem =         8 mpssoang=         3     mpw =        70
  mqgrid =      3001   natom =         1    nfft =      1728    nkpt =         8
  nloalg =         4  nspden =         1 nspinor =         1  nsppol =         1
    nsym =        48  n1xccc =      2501  ntypat =         1  occopt =         3
================================================================================
P This job should need less than                       2.096 Mbytes of memory.
  Rough estimation (10% accuracy) of disk space for files :
_ WF disk file :      0.258 Mbytes ; DEN or POT disk file :      0.015 Mbytes.
================================================================================

--------------------------------------------------------------------------------
------------- Echo of variables that govern the present computation ------------
--------------------------------------------------------------------------------
-
- outvars: echo of selected default values                                      
-   accesswff0 =  0 , fftalg0 =112 , wfoptalg0 =  0
-
- outvars: echo of global parameters not present in the input file              
-  max_nthreads =    0
-
 -outvars: echo values of preprocessed input variables --------
            acell      7.6520000000E+00  7.6520000000E+00  7.6520000000E+00 Bohr
              amu      2.69815390E+01
             awtr1          1
             awtr2          0
             awtr3          1
             awtr4          1
             bdgw3          1       1       1       2
             bdgw4          1       2       1       2
             ecut1     6.00000000E+00 Hartree
             ecut2     5.39386163E+00 Hartree
             ecut3     5.39386163E+00 Hartree
             ecut4     5.39386163E+00 Hartree
          ecuteps1     0.00000000E+00 Hartree
          ecuteps2     2.69693081E+00 Hartree
          ecuteps3     0.00000000E+00 Hartree
          ecuteps4     0.00000000E+00 Hartree
         ecutsigx1     0.00000000E+00 Hartree
         ecutsigx2     0.00000000E+00 Hartree
         ecutsigx3     3.70827987E+00 Hartree
         ecutsigx4     3.70827987E+00 Hartree
          ecutwfn1     6.00000000E+00 Hartree
          ecutwfn2     5.39386163E+00 Hartree
          ecutwfn3     5.39386163E+00 Hartree
          ecutwfn4     5.39386163E+00 Hartree
           enunit           2
-          fftalg         112
        freqremax1     0.00000000E+00 Hartree
        freqremax2     1.00000000E+00 Hartree
        freqremax3     0.00000000E+00 Hartree
        freqremax4     0.00000000E+00 Hartree
           getkss1          0
           getkss2          1
           getkss3          1
           getkss4          1
           getscr1          0
           getscr2          0
           getscr3          2
           getscr4          2
        gwcalctyp1          0
        gwcalctyp2          2
        gwcalctyp3          0
        gwcalctyp4          2
         icutcoul1          6
         icutcoul2          6
         icutcoul3          3
         icutcoul4          3
             iscf1          5
             iscf2          7
             iscf3          7
             iscf4          7
           istwfk        1    0    1    0    0    0    1    0
           jdtset        1    2    3    4
              kpt      0.00000000E+00  0.00000000E+00  0.00000000E+00
                       2.50000000E-01  0.00000000E+00  0.00000000E+00
                       5.00000000E-01  0.00000000E+00  0.00000000E+00
                       2.50000000E-01  2.50000000E-01  0.00000000E+00
                       5.00000000E-01  2.50000000E-01  0.00000000E+00
                      -2.50000000E-01  2.50000000E-01  0.00000000E+00
                       5.00000000E-01  5.00000000E-01  0.00000000E+00
                      -2.50000000E-01  5.00000000E-01  2.50000000E-01
            kptgw3     0.00000000E+00  0.00000000E+00  0.00000000E+00
                       5.00000000E-01  5.00000000E-01  0.00000000E+00
            kptgw4     0.00000000E+00  0.00000000E+00  0.00000000E+00
                       5.00000000E-01  5.00000000E-01  0.00000000E+00
         kptrlatt        4    0    0      0    4    0      0    0    4
          kptrlen      2.16431244E+01
          kssform1          3
          kssform2          1
          kssform3          1
          kssform4          1
P           mkmem           8
            natom           1
            nband1         35
            nband2         20
            nband3         30
            nband4         30
         nbandkss1         30
         nbandkss2          0
         nbandkss3          0
         nbandkss4          0
           nbdbuf1          5
           nbdbuf2          0
           nbdbuf3          0
           nbdbuf4          0
           ndtset           4
          nfreqim1         -1
          nfreqim2          4
          nfreqim3         -1
          nfreqim4         -1
          nfreqre1         -1
          nfreqre2          5
          nfreqre3         -1
          nfreqre4         -1
            ngfft          12      12      12
             nkpt           8
           nkptgw1          0
           nkptgw2          0
           nkptgw3          2
           nkptgw4          2
           npweps1          0
           npweps2         27
           npweps3          0
           npweps4          0
          npwsigx1          0
          npwsigx2          0
          npwsigx3         51
          npwsigx4         51
           npwwfn1          0
           npwwfn2         65
           npwwfn3         65
           npwwfn4         65
           nsheps1          0
           nsheps2          4
           nsheps3          0
           nsheps4          0
          nshsigx1          0
          nshsigx2          0
          nshsigx3          5
          nshsigx4          5
            nstep         100
             nsym          48
           ntypat           1
              occ1     2.000000  1.000000  0.000000  0.000000  0.000000  0.000000
                       0.000000  0.000000  0.000000  0.000000  0.000000  0.000000
                       0.000000  0.000000  0.000000  0.000000  0.000000  0.000000
                       0.000000  0.000000  0.000000  0.000000  0.000000  0.000000
                       0.000000  0.000000  0.000000  0.000000  0.000000  0.000000
                       0.000000  0.000000  0.000000  0.000000  0.000000
                       2.000000  1.000000  0.000000  0.000000  0.000000  0.000000
                       0.000000  0.000000  0.000000  0.000000  0.000000  0.000000
                       0.000000  0.000000  0.000000  0.000000  0.000000  0.000000
                       0.000000  0.000000  0.000000  0.000000  0.000000  0.000000
                       0.000000  0.000000  0.000000  0.000000  0.000000  0.000000
                       0.000000  0.000000  0.000000  0.000000  0.000000
                       2.000000  1.000000  0.000000  0.000000  0.000000  0.000000
                       0.000000  0.000000  0.000000  0.000000  0.000000  0.000000
                       0.000000  0.000000  0.000000  0.000000  0.000000  0.000000
                       0.000000  0.000000  0.000000  0.000000  0.000000  0.000000
                       0.000000  0.000000  0.000000  0.000000  0.000000  0.000000
                       0.000000  0.000000  0.000000  0.000000  0.000000
                       2.000000  1.000000  0.000000  0.000000  0.000000  0.000000
                       0.000000  0.000000  0.000000  0.000000  0.000000  0.000000
                       0.000000  0.000000  0.000000  0.000000  0.000000  0.000000
                       0.000000  0.000000  0.000000  0.000000  0.000000  0.000000
                       0.000000  0.000000  0.000000  0.000000  0.000000  0.000000
                       0.000000  0.000000  0.000000  0.000000  0.000000
                       2.000000  1.000000  0.000000  0.000000  0.000000  0.000000
                       0.000000  0.000000  0.000000  0.000000  0.000000  0.000000
                       0.000000  0.000000  0.000000  0.000000  0.000000  0.000000
                       0.000000  0.000000  0.000000  0.000000  0.000000  0.000000
                       0.000000  0.000000  0.000000  0.000000  0.000000  0.000000
                       0.000000  0.000000  0.000000  0.000000  0.000000
                       2.000000  1.000000  0.000000  0.000000  0.000000  0.000000
                       0.000000  0.000000  0.000000  0.000000  0.000000  0.000000
                       0.000000  0.000000  0.000000  0.000000  0.000000  0.000000
                       0.000000  0.000000  0.000000  0.000000  0.000000  0.000000
                       0.000000  0.000000  0.000000  0.000000  0.000000  0.000000
                       0.000000  0.000000  0.000000  0.000000  0.000000
                       2.000000  1.000000  0.000000  0.000000  0.000000  0.000000
                       0.000000  0.000000  0.000000  0.000000  0.000000  0.000000
                       0.000000  0.000000  0.000000  0.000000  0.000000  0.000000
                       0.000000  0.000000  0.000000  0.000000  0.000000  0.000000
                       0.000000  0.000000  0.000000  0.000000  0.000000  0.000000
                       0.000000  0.000000  0.000000  0.000000  0.000000
                       2.000000  1.000000  0.000000  0.000000  0.000000  0.000000
                       0.000000  0.000000  0.000000  0.000000  0.000000  0.000000
                       0.000000  0.000000  0.000000  0.000000  0.000000  0.000000
                       0.000000  0.000000  0.000000  0.000000  0.000000  0.000000
                       0.000000  0.000000  0.000000  0.000000  0.000000  0.000000
                       0.000000  0.000000  0.000000  0.000000  0.000000
              occ2     2.000000  1.000000  0.000000  0.000000  0.000000  0.000000
                       0.000000  0.000000  0.000000  0.000000  0.000000  0.000000
                       0.000000  0.000000  0.000000  0.000000  0.000000  0.000000
                       0.000000  0.000000
                       2.000000  1.000000  0.000000  0.000000  0.000000  0.000000
                       0.000000  0.000000  0.000000  0.000000  0.000000  0.000000
                       0.000000  0.000000  0.000000  0.000000  0.000000  0.000000
                       0.000000  0.000000
                       2.000000  1.000000  0.000000  0.000000  0.000000  0.000000
                       0.000000  0.000000  0.000000  0.000000  0.000000  0.000000
                       0.000000  0.000000  0.000000  0.000000  0.000000  0.000000
                       0.000000  0.000000
                       2.000000  1.000000  0.000000  0.000000  0.000000  0.000000
                       0.000000  0.000000  0.000000  0.000000  0.000000  0.000000
                       0.000000  0.000000  0.000000  0.000000  0.000000  0.000000
                       0.000000  0.000000
                       2.000000  1.000000  0.000000  0.000000  0.000000  0.000000
                       0.000000  0.000000  0.000000  0.000000  0.000000  0.000000
                       0.000000  0.000000  0.000000  0.000000  0.000000  0.000000
                       0.000000  0.000000
                       2.000000  1.000000  0.000000  0.000000  0.000000  0.000000
                       0.000000  0.000000  0.000000  0.000000  0.000000  0.000000
                       0.000000  0.000000  0.000000  0.000000  0.000000  0.000000
                       0.000000  0.000000
                       2.000000  1.000000  0.000000  0.000000  0.000000  0.000000
                       0.000000  0.000000  0.000000  0.000000  0.000000  0.000000
                       0.000000  0.000000  0.000000  0.000000  0.000000  0.000000
                       0.000000  0.000000
                       2.000000  1.000000  0.000000  0.000000  0.000000  0.000000
                       0.000000  0.000000  0.000000  0.000000  0.000000  0.000000
                       0.000000  0.000000  0.000000  0.000000  0.000000  0.000000
                       0.000000  0.000000
              occ3     2.000000  1.000000  0.000000  0.000000  0.000000  0.000000
                       0.000000  0.000000  0.000000  0.000000  0.000000  0.000000
                       0.000000  0.000000  0.000000  0.000000  0.000000  0.000000
                       0.000000  0.000000  0.000000  0.000000  0.000000  0.000000
                       0.000000  0.000000  0.000000  0.000000  0.000000  0.000000
                       2.000000  1.000000  0.000000  0.000000  0.000000  0.000000
                       0.000000  0.000000  0.000000  0.000000  0.000000  0.000000
                       0.000000  0.000000  0.000000  0.000000  0.000000  0.000000
                       0.000000  0.000000  0.000000  0.000000  0.000000  0.000000
                       0.000000  0.000000  0.000000  0.000000  0.000000  0.000000
                       2.000000  1.000000  0.000000  0.000000  0.000000  0.000000
                       0.000000  0.000000  0.000000  0.000000  0.000000  0.000000
                       0.000000  0.000000  0.000000  0.000000  0.000000  0.000000
                       0.000000  0.000000  0.000000  0.000000  0.000000  0.000000
                       0.000000  0.000000  0.000000  0.000000  0.000000  0.000000
                       2.000000  1.000000  0.000000  0.000000  0.000000  0.000000
                       0.000000  0.000000  0.000000  0.000000  0.000000  0.000000
                       0.000000  0.000000  0.000000  0.000000  0.000000  0.000000
                       0.000000  0.000000  0.000000  0.000000  0.000000  0.000000
                       0.000000  0.000000  0.000000  0.000000  0.000000  0.000000
                       2.000000  1.000000  0.000000  0.000000  0.000000  0.000000
                       0.000000  0.000000  0.000000  0.000000  0.000000  0.000000
                       0.000000  0.000000  0.000000  0.000000  0.000000  0.000000
                       0.000000  0.000000  0.000000  0.000000  0.000000  0.000000
                       0.000000  0.000000  0.000000  0.000000  0.000000  0.000000
                       2.000000  1.000000  0.000000  0.000000  0.000000  0.000000
                       0.000000  0.000000  0.000000  0.000000  0.000000  0.000000
                       0.000000  0.000000  0.000000  0.000000  0.000000  0.000000
                       0.000000  0.000000  0.000000  0.000000  0.000000  0.000000
                       0.000000  0.000000  0.000000  0.000000  0.000000  0.000000
                       2.000000  1.000000  0.000000  0.000000  0.000000  0.000000
                       0.000000  0.000000  0.000000  0.000000  0.000000  0.000000
                       0.000000  0.000000  0.000000  0.000000  0.000000  0.000000
                       0.000000  0.000000  0.000000  0.000000  0.000000  0.000000
                       0.000000  0.000000  0.000000  0.000000  0.000000  0.000000
                       2.000000  1.000000  0.000000  0.000000  0.000000  0.000000
                       0.000000  0.000000  0.000000  0.000000  0.000000  0.000000
                       0.000000  0.000000  0.000000  0.000000  0.000000  0.000000
                       0.000000  0.000000  0.000000  0.000000  0.000000  0.000000
                       0.000000  0.000000  0.000000  0.000000  0.000000  0.000000
              occ4     2.000000  1.000000  0.000000  0.000000  0.000000  0.000000
                       0.000000  0.000000  0.000000  0.000000  0.000000  0.000000
                       0.000000  0.000000  0.000000  0.000000  0.000000  0.000000
                       0.000000  0.000000  0.000000  0.000000  0.000000  0.000000
                       0.000000  0.000000  0.000000  0.000000  0.000000  0.000000
                       2.000000  1.000000  0.000000  0.000000  0.000000  0.000000
                       0.000000  0.000000  0.000000  0.000000  0.000000  0.000000
                       0.000000  0.000000  0.000000  0.000000  0.000000  0.000000
                       0.000000  0.000000  0.000000  0.000000  0.000000  0.000000
                       0.000000  0.000000  0.000000  0.000000  0.000000  0.000000
                       2.000000  1.000000  0.000000  0.000000  0.000000  0.000000
                       0.000000  0.000000  0.000000  0.000000  0.000000  0.000000
                       0.000000  0.000000  0.000000  0.000000  0.000000  0.000000
                       0.000000  0.000000  0.000000  0.000000  0.000000  0.000000
                       0.000000  0.000000  0.000000  0.000000  0.000000  0.000000
                       2.000000  1.000000  0.000000  0.000000  0.000000  0.000000
                       0.000000  0.000000  0.000000  0.000000  0.000000  0.000000
                       0.000000  0.000000  0.000000  0.000000  0.000000  0.000000
                       0.000000  0.000000  0.000000  0.000000  0.000000  0.000000
                       0.000000  0.000000  0.000000  0.000000  0.000000  0.000000
                       2.000000  1.000000  0.000000  0.000000  0.000000  0.000000
                       0.000000  0.000000  0.000000  0.000000  0.000000  0.000000
                       0.000000  0.000000  0.000000  0.000000  0.000000  0.000000
                       0.000000  0.000000  0.000000  0.000000  0.000000  0.000000
                       0.000000  0.000000  0.000000  0.000000  0.000000  0.000000
                       2.000000  1.000000  0.000000  0.000000  0.000000  0.000000
                       0.000000  0.000000  0.000000  0.000000  0.000000  0.000000
                       0.000000  0.000000  0.000000  0.000000  0.000000  0.000000
                       0.000000  0.000000  0.000000  0.000000  0.000000  0.000000
                       0.000000  0.000000  0.000000  0.000000  0.000000  0.000000
                       2.000000  1.000000  0.000000  0.000000  0.000000  0.000000
                       0.000000  0.000000  0.000000  0.000000  0.000000  0.000000
                       0.000000  0.000000  0.000000  0.000000  0.000000  0.000000
                       0.000000  0.000000  0.000000  0.000000  0.000000  0.000000
                       0.000000  0.000000  0.000000  0.000000  0.000000  0.000000
                       2.000000  1.000000  0.000000  0.000000  0.000000  0.000000
                       0.000000  0.000000  0.000000  0.000000  0.000000  0.000000
                       0.000000  0.000000  0.000000  0.000000  0.000000  0.000000
                       0.000000  0.000000  0.000000  0.000000  0.000000  0.000000
                       0.000000  0.000000  0.000000  0.000000  0.000000  0.000000
           occopt           3
        optdriver1          0
        optdriver2          3
        optdriver3          4
        optdriver4          4
            rprim      0.0000000000E+00  5.0000000000E-01  5.0000000000E-01
                       5.0000000000E-01  0.0000000000E+00  5.0000000000E-01
                       5.0000000000E-01  5.0000000000E-01  0.0000000000E+00
          spgroup         225
           symrel      1  0  0   0  1  0   0  0  1      -1  0  0   0 -1  0   0  0 -1
                       0 -1  1   0 -1  0   1 -1  0       0  1 -1   0  1  0  -1  1  0
                      -1  0  0  -1  0  1  -1  1  0       1  0  0   1  0 -1   1 -1  0
                       0  1 -1   1  0 -1   0  0 -1       0 -1  1  -1  0  1   0  0  1
                      -1  0  0  -1  1  0  -1  0  1       1  0  0   1 -1  0   1  0 -1
                       0 -1  1   1 -1  0   0 -1  0       0  1 -1  -1  1  0   0  1  0
                       1  0  0   0  0  1   0  1  0      -1  0  0   0  0 -1   0 -1  0
                       0  1 -1   0  0 -1   1  0 -1       0 -1  1   0  0  1  -1  0  1
                      -1  0  1  -1  1  0  -1  0  0       1  0 -1   1 -1  0   1  0  0
                       0 -1  0   1 -1  0   0 -1  1       0  1  0  -1  1  0   0  1 -1
                       1  0 -1   0  0 -1   0  1 -1      -1  0  1   0  0  1   0 -1  1
                       0  1  0   0  0  1   1  0  0       0 -1  0   0  0 -1  -1  0  0
                       1  0 -1   0  1 -1   0  0 -1      -1  0  1   0 -1  1   0  0  1
                       0 -1  0   0 -1  1   1 -1  0       0  1  0   0  1 -1  -1  1  0
                      -1  0  1  -1  0  0  -1  1  0       1  0 -1   1  0  0   1 -1  0
                       0  1  0   1  0  0   0  0  1       0 -1  0  -1  0  0   0  0 -1
                       0  0 -1   0  1 -1   1  0 -1       0  0  1   0 -1  1  -1  0  1
                       1 -1  0   0 -1  1   0 -1  0      -1  1  0   0  1 -1   0  1  0
                       0  0  1   1  0  0   0  1  0       0  0 -1  -1  0  0   0 -1  0
                      -1  1  0  -1  0  0  -1  0  1       1 -1  0   1  0  0   1  0 -1
                       0  0  1   0  1  0   1  0  0       0  0 -1   0 -1  0  -1  0  0
                       1 -1  0   0 -1  0   0 -1  1      -1  1  0   0  1  0   0  1 -1
                       0  0 -1   1  0 -1   0  1 -1       0  0  1  -1  0  1   0 -1  1
                      -1  1  0  -1  0  1  -1  0  0       1 -1  0   1  0 -1   1  0  0
           tolwfr1     1.00000000E-10
           tolwfr2     0.00000000E+00
           tolwfr3     0.00000000E+00
           tolwfr4     0.00000000E+00
           tsmear      5.00000000E-02 Hartree
            typat      1
              wtk        0.01563    0.12500    0.06250    0.09375    0.37500    0.18750
                         0.04688    0.09375
            znucl       13.00000

================================================================================

 chkinp: Checking input parameters for consistency, jdtset=   1.

 chkinp: Checking input parameters for consistency, jdtset=   2.

 chkinp: Checking input parameters for consistency, jdtset=   3.

 chkinp: Checking input parameters for consistency, jdtset=   4.

================================================================================
== DATASET  1 ==================================================================
-   nproc =    1

 Exchange-correlation functional for the present dataset will be:
  LDA: new Teter (4/93) with spin-polarized option - ixc=1
 Citation for XC functional:
  S. Goedecker, M. Teter, J. Huetter, PRB 54, 1703 (1996)

 Real(R)+Recip(G) space primitive vectors, cartesian coordinates (Bohr,Bohr^-1):
 R(1)=  0.0000000  3.8260000  3.8260000  G(1)= -0.1306848  0.1306848  0.1306848
 R(2)=  3.8260000  0.0000000  3.8260000  G(2)=  0.1306848 -0.1306848  0.1306848
 R(3)=  3.8260000  3.8260000  0.0000000  G(3)=  0.1306848  0.1306848 -0.1306848
 Unit cell volume ucvol=  1.1201209E+02 bohr^3
 Angles (23,13,12)=  6.00000000E+01  6.00000000E+01  6.00000000E+01 degrees

 getcut: wavevector=  0.0000  0.0000  0.0000  ngfft=  12  12  12
         ecut(hartree)=      6.000   => boxcut(ratio)=   2.01132

--- Pseudopotential description ------------------------------------------------
- pspini: atom type   1  psp file is /home/gonze/ABINIT/ABINITv7.9.3/trunk/7.9.3-private/tests/Psps_for_tests/13al.pspnc
- pspatm: opening atomic psp file    /home/gonze/ABINIT/ABINITv7.9.3/trunk/7.9.3-private/tests/Psps_for_tests/13al.pspnc
-  Troullier-Martins psp for element  Al        Thu Oct 27 17:31:05 EDT 1994
- 13.00000   3.00000    940714                znucl, zion, pspdat
    1    1    2    2      2001   0.00000      pspcod,pspxc,lmax,lloc,mmax,r2well
    0   4.657  11.889    1   2.2761078        l,e99.0,e99.9,nproj,rcpsp
   0.00000000   0.00000000   0.00000000   0.00000000     rms, ekb1, ekb2, epsatm
    1   1.829   2.761    1   2.2761078        l,e99.0,e99.9,nproj,rcpsp
   0.00000000   0.00000000   0.00000000   0.00000000     rms, ekb1, ekb2, epsatm
    2   0.000   0.000    0   2.2761078        l,e99.0,e99.9,nproj,rcpsp
   0.00000000   0.00000000   0.00000000   0.00000000     rms, ekb1, ekb2, epsatm
    2.09673076353074    0.12648111154518    1.01742091001718   rchrg,fchrg,qchrg
 pspatm: epsatm=    0.22155260
         --- l  ekb(1:nproj) -->
             0    2.540658
             1    1.353815
 pspatm: atomic psp has been read  and splines computed

   6.64657794E-01                                ecore*ucvol(ha*bohr**3)
--------------------------------------------------------------------------------

P newkpt: treating     35 bands with npw=      65 for ikpt=   1 by node    0
P newkpt: treating     35 bands with npw=      74 for ikpt=   2 by node    0
P newkpt: treating     35 bands with npw=      76 for ikpt=   3 by node    0
P newkpt: treating     35 bands with npw=      76 for ikpt=   4 by node    0
P newkpt: treating     35 bands with npw=      80 for ikpt=   5 by node    0
P newkpt: treating     35 bands with npw=      79 for ikpt=   6 by node    0
P newkpt: treating     35 bands with npw=      80 for ikpt=   7 by node    0
P newkpt: treating     35 bands with npw=      84 for ikpt=   8 by node    0

_setup2: Arith. and geom. avg. npw (full set) are      78.578      78.511

================================================================================

     iter   Etot(hartree)      deltaE(h)  residm     vres2
 ETOT  1  -2.4772736962560    -2.477E+00 7.497E-04 5.102E-01
 ETOT  2  -2.4777479147828    -4.742E-04 2.250E-07 2.162E-02
 ETOT  3  -2.4777720448881    -2.413E-05 4.202E-05 1.251E-03
 ETOT  4  -2.4777725161990    -4.713E-07 2.676E-06 2.771E-05
 ETOT  5  -2.4777725315081    -1.531E-08 1.393E-07 8.416E-06
 ETOT  6  -2.4777725334365    -1.928E-09 1.614E-08 4.208E-08
 ETOT  7  -2.4777725334796    -4.317E-11 5.157E-11 3.980E-10

 At SCF step    7   max residual=  5.16E-11 < tolwfr=  1.00E-10 =>converged.

 Cartesian components of stress tensor (hartree/bohr^3)
  sigma(1 1)= -1.70597688E-04  sigma(3 2)=  0.00000000E+00
  sigma(2 2)= -1.70597688E-04  sigma(3 1)=  0.00000000E+00
  sigma(3 3)= -1.70597688E-04  sigma(2 1)=  0.00000000E+00


======================================================================
 Calculating and writing out Kohn-Sham electronic Structure file
 Using conjugate gradient wavefunctions and energies (kssform=3)
 number of Gamma centered plane waves    161
 number of Gamma centered shells     11
 number of bands     30
 maximum angular momentum components      3
 Conjugate gradient eigenvalues
   k    eigenvalues [Hartree]
   1     -0.1268  0.7526  0.7526  0.7526  0.7818  0.7818  0.7818  0.8912  1.0018
          1.0018  1.0754  1.1793  1.1793  1.1793  1.3756  2.2480  2.2480  2.2480
          2.3139  2.3535  2.3535  2.4001  2.4001  2.4001  2.4794  2.4794  2.4794
          3.1447  3.1447  3.1830
   2     -0.0649  0.4071  0.6779  0.6779  0.8031  0.8205  0.8205  0.9639  0.9723
          0.9723  1.1718  1.3766  1.4662  1.4662  1.6359  1.7672  1.7672  1.8555
          2.3200  2.3434  2.3434  2.4547  2.5023  2.5023  2.5219  2.6012  2.6012
          2.8547  2.9303  2.9303
   3      0.1137  0.1200  0.6875  0.6875  0.7082  0.7082  0.8291  0.8407  1.1972
          1.1972  1.3985  1.3985  1.4093  1.5522  1.8128  1.9114  1.9114  1.9863
          2.0245  2.0245  2.1570  2.1635  2.3956  2.4319  2.4319  2.5540  2.6408
          2.6408  2.7207  2.7207
   4     -0.0445  0.5530  0.5530  0.5625  0.5827  0.6743  1.0762  1.0766  1.0766
          1.2466  1.2553  1.2983  1.2983  1.3732  1.7847  1.7847  1.7948  1.8419
          1.9171  2.3007  2.3555  2.4085  2.4735  2.4735  2.5299  2.5299  2.5924
          2.9539  2.9591  2.9832
   5      0.0964  0.2535  0.4142  0.5355  0.6009  0.8644  0.9646  1.0620  1.1850
          1.2175  1.4157  1.4700  1.5345  1.6569  1.6572  1.7800  1.8726  1.8973
          1.9257  1.9839  2.1522  2.1854  2.2861  2.3238  2.4211  2.4357  2.4941
          2.5719  2.6333  2.8278
   6      0.0367  0.3272  0.3800  0.6244  0.6989  0.9091  0.9190  0.9613  1.0478
          1.2149  1.2986  1.3757  1.5658  1.6160  1.7863  1.8035  1.9197  1.9223
          1.9770  1.9944  2.1734  2.2351  2.2403  2.3387  2.3835  2.5832  2.5853
          2.5998  2.8743  2.8922
   7      0.1742  0.2224  0.4809  0.4822  0.4822  0.6062  1.2172  1.2761  1.2761
          1.4694  1.4694  1.4790  1.4922  1.5631  1.7282  1.7740  1.7740  1.7982
          1.7982  1.8072  1.8180  1.8407  2.4322  2.4669  2.6902  2.6902  2.7363
          2.7628  2.7817  2.7817
   8      0.2506  0.2506  0.2895  0.3159  0.8621  0.8621  0.8681  0.9476  1.2857
          1.4617  1.5178  1.5178  1.5250  1.5782  1.5782  1.6458  1.9467  1.9467
          1.9811  2.0675  2.2042  2.2092  2.2117  2.2126  2.2401  2.2401  2.3236
          2.3236  2.7703  2.8080
 Test on the normalization of the wavefunctions
  min sum_G |a(n,k,G)| =  1.000000
  max sum_G |a(n,k,G)| =  1.000000
 Test on the orthogonalization of the wavefunctions
  min sum_G a(n,k,G)a(n',k,G) =  0.000000
  max sum_G a(n,k,G)a(n',k,G) =  0.000000

================================================================================

 ----iterations are completed or convergence reached----

 Mean square residual over all n,k,spin=   3.9541E-08; max=  3.6075E-06
   0.0000  0.0000  0.0000    1  8.62466E-08 kpt; spin; max resid(k); each band:
  1.22E-11 2.53E-12 2.51E-12 2.51E-12 1.49E-11 1.49E-11 1.49E-11 2.29E-13
  6.44E-12 6.44E-12 5.16E-11 1.33E-11 1.33E-11 1.33E-11 2.12E-11 7.55E-12
  7.55E-12 7.54E-12 2.10E-11 4.50E-12 4.50E-12 3.49E-11 3.51E-11 3.58E-11
  2.00E-11 2.03E-11 2.03E-11 1.48E-11 1.48E-11 3.97E-11 7.75E-12 4.75E-11
  8.62E-08 1.56E-11 1.54E-11
   0.2500  0.0000  0.0000    1  2.13521E-08 kpt; spin; max resid(k); each band:
  1.27E-11 1.07E-11 9.43E-12 9.43E-12 1.71E-11 8.89E-12 8.89E-12 2.84E-11
  1.02E-11 1.02E-11 2.07E-11 2.22E-11 1.10E-11 1.10E-11 2.97E-11 9.25E-12
  9.25E-12 2.21E-11 1.27E-11 6.06E-12 6.06E-12 2.86E-12 1.66E-11 1.66E-11
  1.76E-11 1.44E-11 1.44E-11 2.86E-11 1.16E-11 1.16E-11 9.44E-12 2.19E-11
  2.32E-11 4.79E-11 2.14E-08
   0.5000  0.0000  0.0000    1  3.60753E-06 kpt; spin; max resid(k); each band:
  1.62E-11 7.52E-12 9.60E-12 9.60E-12 8.40E-12 8.38E-12 7.20E-12 2.79E-11
  9.76E-12 9.76E-12 8.50E-12 8.50E-12 3.08E-11 2.36E-11 5.84E-12 1.58E-11
  1.58E-11 8.07E-12 1.32E-11 1.32E-11 2.28E-11 3.11E-11 7.98E-12 5.04E-12
  5.08E-12 1.20E-12 1.17E-11 1.17E-11 1.56E-11 1.57E-11 2.43E-11 3.98E-11
  4.00E-11 1.36E-11 3.61E-06
   0.2500  0.2500  0.0000    1  1.49365E-06 kpt; spin; max resid(k); each band:
  1.26E-11 1.03E-11 1.04E-11 2.48E-12 1.31E-11 2.57E-11 7.97E-12 7.62E-12
  7.62E-12 2.18E-12 3.57E-11 1.21E-11 1.21E-11 1.43E-11 1.14E-11 1.16E-11
  5.19E-12 2.45E-11 2.13E-11 7.46E-12 3.05E-11 1.25E-11 1.15E-11 1.16E-11
  8.82E-12 8.84E-12 1.24E-11 1.32E-11 1.44E-11 9.68E-12 9.46E-12 3.00E-12
  7.40E-11 3.24E-07 1.49E-06
   0.5000  0.2500  0.0000    1  1.87129E-06 kpt; spin; max resid(k); each band:
  1.27E-11 1.16E-11 1.37E-11 1.04E-11 1.50E-11 1.65E-11 9.99E-12 1.05E-11
  2.22E-11 9.02E-12 1.71E-11 8.01E-12 2.59E-11 1.11E-11 1.44E-11 2.08E-11
  1.55E-11 5.89E-12 1.35E-11 1.29E-11 1.54E-11 8.10E-12 1.04E-11 2.08E-11
  1.30E-11 1.31E-11 1.25E-11 2.24E-11 1.18E-11 8.29E-12 8.61E-12 9.69E-12
  1.07E-11 5.10E-11 1.87E-06
  -0.2500  0.2500  0.0000    1  3.41348E-06 kpt; spin; max resid(k); each band:
  1.29E-11 7.39E-12 1.67E-11 1.03E-11 1.62E-11 4.55E-12 1.15E-11 9.36E-12
  2.73E-11 1.76E-11 1.20E-11 1.55E-11 2.34E-11 9.53E-12 7.77E-12 1.04E-11
  1.80E-11 1.44E-11 1.29E-11 2.93E-11 1.31E-11 3.14E-11 7.67E-12 1.68E-11
  6.00E-12 9.71E-12 1.08E-11 8.26E-12 1.87E-11 1.55E-11 1.40E-11 6.37E-12
  9.53E-12 1.30E-11 3.41E-06
   0.5000  0.5000  0.0000    1  2.49742E-07 kpt; spin; max resid(k); each band:
  7.94E-12 1.78E-11 2.71E-12 1.09E-11 1.09E-11 2.67E-11 1.17E-11 6.27E-12
  6.27E-12 1.97E-11 1.97E-11 2.39E-12 1.07E-11 4.90E-11 1.92E-11 7.34E-12
  7.34E-12 1.14E-11 1.14E-11 1.81E-12 3.09E-11 8.47E-13 9.20E-12 8.02E-12
  1.34E-11 1.36E-11 1.71E-11 1.88E-11 5.53E-12 5.39E-12 3.36E-12 1.63E-11
  1.64E-11 3.88E-11 2.50E-07
  -0.2500  0.5000  0.2500    1  3.50162E-11 kpt; spin; max resid(k); each band:
  7.82E-12 7.82E-12 2.03E-11 1.03E-11 6.62E-12 6.62E-12 2.47E-11 1.53E-11
  5.51E-12 3.50E-11 1.51E-11 1.51E-11 1.31E-11 1.12E-11 1.12E-11 6.32E-12
  1.47E-11 1.47E-11 1.56E-11 9.73E-12 2.15E-11 4.12E-12 4.59E-12 2.59E-11
  6.33E-12 6.33E-12 1.01E-11 1.01E-11 3.16E-11 1.18E-11 1.67E-11 1.67E-11
  5.14E-12 1.02E-11 1.00E-11
 reduced coordinates (array xred) for    1 atoms
       0.000000000000      0.000000000000      0.000000000000
 rms dE/dt=  0.0000E+00; max dE/dt=  0.0000E+00; dE/dt below (all hartree)
    1       0.000000000000      0.000000000000      0.000000000000

 cartesian coordinates (angstrom) at end:
    1      0.00000000000000     0.00000000000000     0.00000000000000

 cartesian forces (hartree/bohr) at end:
    1     -0.00000000000000    -0.00000000000000    -0.00000000000000
 frms,max,avg= 0.0000000E+00 0.0000000E+00   0.000E+00  0.000E+00  0.000E+00 h/b

 cartesian forces (eV/Angstrom) at end:
    1     -0.00000000000000    -0.00000000000000    -0.00000000000000
 frms,max,avg= 0.0000000E+00 0.0000000E+00   0.000E+00  0.000E+00  0.000E+00 e/A
 length scales=  7.652000000000  7.652000000000  7.652000000000 bohr
              =  4.049264000131  4.049264000131  4.049264000131 angstroms
 prteigrs : about to open file t85o_DS1_EIG
 Fermi (or HOMO) energy (hartree) =   0.27519   Average Vxc (hartree)=  -0.37083
 Eigenvalues (hartree) for nkpt=   8  k points:
 kpt#   1, nband= 35, wtk=  0.01563, kpt=  0.0000  0.0000  0.0000 (reduced coord)
  -0.12684   0.75256   0.75256   0.75256   0.78182   0.78182   0.78182   0.89123
   1.00185   1.00185   1.07537   1.17926   1.17926   1.17926   1.37557   2.24797
   2.24797   2.24797   2.31391   2.35345   2.35345   2.40008   2.40008   2.40008
   2.47945   2.47945   2.47945   3.14471   3.14471   3.18297   3.29136   3.29136
   3.29136   3.30002   3.30002
      occupation numbers for kpt#   1
   1.99936   0.00014   0.00014   0.00014   0.00008   0.00008   0.00008   0.00001
   0.00000   0.00000   0.00000   0.00000   0.00000   0.00000   0.00000   0.00000
   0.00000   0.00000   0.00000   0.00000   0.00000   0.00000   0.00000   0.00000
   0.00000   0.00000   0.00000   0.00000   0.00000   0.00000   0.00000   0.00000
   0.00000   0.00000   0.00000
 kpt#   2, nband= 35, wtk=  0.12500, kpt=  0.2500  0.0000  0.0000 (reduced coord)
  -0.06491   0.40706   0.67792   0.67792   0.80315   0.82046   0.82046   0.96392
   0.97232   0.97232   1.17185   1.37658   1.46617   1.46617   1.63592   1.76722
   1.76722   1.85549   2.31996   2.34343   2.34343   2.45474   2.50229   2.50229
   2.52187   2.60115   2.60115   2.85469   2.93026   2.93026   2.96543   2.97425
   2.97425   3.01699   3.05776
      occupation numbers for kpt#   2
   1.99778   0.13354   0.00064   0.00064   0.00005   0.00004   0.00004   0.00000
   0.00000   0.00000   0.00000   0.00000   0.00000   0.00000   0.00000   0.00000
   0.00000   0.00000   0.00000   0.00000   0.00000   0.00000   0.00000   0.00000
   0.00000   0.00000   0.00000   0.00000   0.00000   0.00000   0.00000   0.00000
   0.00000   0.00000   0.00000
 kpt#   3, nband= 35, wtk=  0.06250, kpt=  0.5000  0.0000  0.0000 (reduced coord)
   0.11367   0.12004   0.68747   0.68747   0.70818   0.70818   0.82905   0.84065
   1.19724   1.19724   1.39851   1.39851   1.40932   1.55220   1.81284   1.91136
   1.91136   1.98626   2.02446   2.02446   2.15698   2.16346   2.39557   2.43189
   2.43189   2.55401   2.64075   2.64075   2.72069   2.72069   2.75465   2.76714
   2.76714   2.79220   3.27875
      occupation numbers for kpt#   3
   1.92393   1.91403   0.00052   0.00052   0.00035   0.00035   0.00003   0.00002
   0.00000   0.00000   0.00000   0.00000   0.00000   0.00000   0.00000   0.00000
   0.00000   0.00000   0.00000   0.00000   0.00000   0.00000   0.00000   0.00000
   0.00000   0.00000   0.00000   0.00000   0.00000   0.00000   0.00000   0.00000
   0.00000   0.00000   0.00000
 kpt#   4, nband= 35, wtk=  0.09375, kpt=  0.2500  0.2500  0.0000 (reduced coord)
  -0.04447   0.55300   0.55300   0.56250   0.58272   0.67431   1.07616   1.07665
   1.07665   1.24657   1.25534   1.29831   1.29831   1.37316   1.78470   1.78470
   1.79477   1.84195   1.91710   2.30069   2.35554   2.40854   2.47348   2.47348
   2.52986   2.52986   2.59240   2.95392   2.95910   2.98323   2.98323   3.02549
   3.08358   3.13155   3.13155
      occupation numbers for kpt#   4
   1.99666   0.00770   0.00770   0.00637   0.00426   0.00068   0.00000   0.00000
   0.00000   0.00000   0.00000   0.00000   0.00000   0.00000   0.00000   0.00000
   0.00000   0.00000   0.00000   0.00000   0.00000   0.00000   0.00000   0.00000
   0.00000   0.00000   0.00000   0.00000   0.00000   0.00000   0.00000   0.00000
   0.00000   0.00000   0.00000
 kpt#   5, nband= 35, wtk=  0.37500, kpt=  0.5000  0.2500  0.0000 (reduced coord)
   0.09645   0.25349   0.41423   0.53553   0.60087   0.86440   0.96464   1.06197
   1.18502   1.21752   1.41568   1.47002   1.53452   1.65687   1.65721   1.77998
   1.87256   1.89729   1.92570   1.98390   2.15220   2.18535   2.28608   2.32382
   2.42109   2.43575   2.49406   2.57186   2.63327   2.82776   2.83042   2.98552
   3.00650   3.12200   3.18519
      occupation numbers for kpt#   5
   1.94549   1.21365   0.11675   0.01090   0.00296   0.00002   0.00000   0.00000
   0.00000   0.00000   0.00000   0.00000   0.00000   0.00000   0.00000   0.00000
   0.00000   0.00000   0.00000   0.00000   0.00000   0.00000   0.00000   0.00000
   0.00000   0.00000   0.00000   0.00000   0.00000   0.00000   0.00000   0.00000
   0.00000   0.00000   0.00000
 kpt#   6, nband= 35, wtk=  0.18750, kpt= -0.2500  0.2500  0.0000 (reduced coord)
   0.03668   0.32721   0.37996   0.62440   0.69894   0.90907   0.91895   0.96134
   1.04784   1.21493   1.29865   1.37570   1.56585   1.61601   1.78625   1.80352
   1.91975   1.92230   1.97699   1.99442   2.17341   2.23508   2.24033   2.33873
   2.38348   2.58324   2.58526   2.59980   2.87429   2.89219   2.89892   2.93107
   2.93993   2.98798   3.12244
      occupation numbers for kpt#   6
   1.98319   0.52213   0.21909   0.00185   0.00042   0.00001   0.00001   0.00000
   0.00000   0.00000   0.00000   0.00000   0.00000   0.00000   0.00000   0.00000
   0.00000   0.00000   0.00000   0.00000   0.00000   0.00000   0.00000   0.00000
   0.00000   0.00000   0.00000   0.00000   0.00000   0.00000   0.00000   0.00000
   0.00000   0.00000   0.00000
 kpt#   7, nband= 35, wtk=  0.04688, kpt=  0.5000  0.5000  0.0000 (reduced coord)
   0.17420   0.22239   0.48087   0.48224   0.48224   0.60621   1.21718   1.27609
   1.27609   1.46937   1.46937   1.47901   1.49218   1.56312   1.72823   1.77401
   1.77401   1.79819   1.79819   1.80721   1.81797   1.84068   2.43215   2.46686
   2.69025   2.69025   2.73633   2.76284   2.78166   2.78166   2.79536   2.85464
   2.88484   3.04627   3.04627
      occupation numbers for kpt#   7
   1.76573   1.48383   0.03217   0.03132   0.03132   0.00266   0.00000   0.00000
   0.00000   0.00000   0.00000   0.00000   0.00000   0.00000   0.00000   0.00000
   0.00000   0.00000   0.00000   0.00000   0.00000   0.00000   0.00000   0.00000
   0.00000   0.00000   0.00000   0.00000   0.00000   0.00000   0.00000   0.00000
   0.00000   0.00000   0.00000
 kpt#   8, nband= 35, wtk=  0.09375, kpt= -0.2500  0.5000  0.2500 (reduced coord)
   0.25064   0.25064   0.28947   0.31586   0.86211   0.86211   0.86813   0.94755
   1.28567   1.46173   1.51778   1.51778   1.52495   1.57819   1.57819   1.64585
   1.94673   1.94673   1.98115   2.06754   2.20416   2.20917   2.21173   2.21261
   2.24005   2.24005   2.32356   2.32356   2.77034   2.80796   2.86479   2.86479
   3.16192   3.20164   3.20164
      occupation numbers for kpt#   8
   1.24071   1.24071   0.85812   0.61432   0.00002   0.00002   0.00001   0.00000
   0.00000   0.00000   0.00000   0.00000   0.00000   0.00000   0.00000   0.00000
   0.00000   0.00000   0.00000   0.00000   0.00000   0.00000   0.00000   0.00000
   0.00000   0.00000   0.00000   0.00000   0.00000   0.00000   0.00000   0.00000
   0.00000   0.00000   0.00000
 Fermi (or HOMO) energy (eV) =   7.48831   Average Vxc (eV)= -10.09067
 Eigenvalues (   eV  ) for nkpt=   8  k points:
 kpt#   1, nband= 35, wtk=  0.01563, kpt=  0.0000  0.0000  0.0000 (reduced coord)
  -3.45151  20.47824  20.47824  20.47824  21.27433  21.27433  21.27433  24.25148
  27.26167  27.26167  29.26236  32.08935  32.08935  32.08935  37.43126  61.17031
  61.17031  61.17031  62.96471  64.04075  64.04075  65.30940  65.30940  65.30940
  67.46913  67.46913  67.46913  85.57203  85.57203  86.61301  89.56251  89.56251
  89.56258  89.79823  89.79823
 kpt#   2, nband= 35, wtk=  0.12500, kpt=  0.2500  0.0000  0.0000 (reduced coord)
  -1.76629  11.07672  18.44718  18.44718  21.85473  22.32585  22.32585  26.22953
  26.45826  26.45826  31.88760  37.45875  39.89638  39.89638  44.51553  48.08849
  48.08849  50.49041  63.12933  63.76803  63.76803  66.79691  68.09068  68.09068
  68.62355  70.78094  70.78094  77.68014  79.73636  79.73636  80.69352  80.93340
  80.93340  82.09638  83.20595
 kpt#   3, nband= 35, wtk=  0.06250, kpt=  0.5000  0.0000  0.0000 (reduced coord)
   3.09309   3.26645  18.70708  18.70708  19.27065  19.27065  22.55967  22.87527
  32.57847  32.57847  38.05547  38.05547  38.34954  42.23749  49.32988  52.01081
  52.01081  54.04888  55.08836  55.08836  58.69435  58.87075  65.18678  66.17500
  66.17500  69.49809  71.85847  71.85847  74.03371  74.03371  74.95777  75.29769
  75.29769  75.97949  89.21931
 kpt#   4, nband= 35, wtk=  0.09375, kpt=  0.2500  0.2500  0.0000 (reduced coord)
  -1.21016  15.04779  15.04779  15.30646  15.85659  18.34894  29.28379  29.29705
  29.29705  33.92092  34.15967  35.32882  35.32882  37.36552  48.56420  48.56420
  48.83824  50.12194  52.16704  62.60499  64.09741  65.53962  67.30669  67.30669
  68.84101  68.84101  70.54288  80.38030  80.52129  81.17774  81.17774  82.32773
  83.90849  85.21389  85.21392
 kpt#   5, nband= 35, wtk=  0.37500, kpt=  0.5000  0.2500  0.0000 (reduced coord)
   2.62450   6.89785  11.27166  14.57238  16.35055  23.52158  26.24911  28.89774
  32.24590  33.13040  38.52264  40.00138  41.75643  45.08561  45.09490  48.43559
  50.95487  51.62799  52.40098  53.98468  58.56445  59.46646  62.20739  63.23439
  65.88113  66.28003  67.86679  69.98391  71.65479  76.94721  77.01978  81.24016
  81.81114  84.95381  86.67340
 kpt#   6, nband= 35, wtk=  0.18750, kpt= -0.2500  0.2500  0.0000 (reduced coord)
   0.99809   8.90390  10.33926  16.99078  19.01901  24.73718  25.00593  26.15929
  28.51308  33.05984  35.33806  37.43459  42.60887  43.97388  48.60642  49.07629
  52.23903  52.30851  53.79661  54.27080  59.14145  60.81960  60.96241  63.63997
  64.85775  70.29353  70.34855  70.74423  78.21347  78.70039  78.88361  79.75848
  79.99957  81.30705  84.96582
 kpt#   7, nband= 35, wtk=  0.04688, kpt=  0.5000  0.5000  0.0000 (reduced coord)
   4.74015   6.05163  13.08518  13.12237  13.12237  16.49590  33.12121  34.72416
  34.72416  39.98351  39.98351  40.24598  40.60421  42.53461  47.02765  48.27318
  48.27318  48.93126  48.93126  49.17672  49.46958  50.08750  66.18218  67.12664
  73.20530  73.20530  74.45943  75.18074  75.69286  75.69286  76.06567  77.67871
  78.50041  82.89327  82.89330
 kpt#   8, nband= 35, wtk=  0.09375, kpt= -0.2500  0.5000  0.2500 (reduced coord)
   6.82019   6.82019   7.87699   8.59505  23.45929  23.45929  23.62294  25.78421
  34.98475  39.77569  41.30089  41.30089  41.49604  42.94469  42.94469  44.78572
  52.97318  52.97318  53.90981  56.26070  59.97828  60.11470  60.18429  60.20830
  60.95489  60.95489  63.22732  63.22732  75.38491  76.40840  77.95503  77.95503
  86.04011  87.12097  87.12097
 Total charge density [el/Bohr^3]
,     Maximum=    3.2093E-02  at reduced coord.    0.8333    0.8333    0.9167
,Next maximum=    3.2093E-02  at reduced coord.    0.4167    0.8333    0.9167
,     Minimum=    3.6172E-03  at reduced coord.    0.0000    0.0000    0.0000
,Next minimum=    6.9791E-03  at reduced coord.    0.0833    0.0000    0.0000
,  Integrated=    3.0000E+00

--------------------------------------------------------------------------------
 Components of total free energy (in Hartree) :

    Kinetic energy  =  8.92187528932080E-01
    Hartree energy  =  3.39807773065269E-03
    XC energy       = -1.20605017241635E+00
    Ewald energy    = -2.69627278273813E+00
    PspCore energy  =  5.93380416478644E-03
    Loc. psp. energy=  1.33782161304059E-01
    NL   psp  energy=  4.84031001723534E-01
    >>>>> Internal E= -2.38299038129937E+00

    -kT*entropy     = -9.47821521802667E-02
    >>>>>>>>> Etotal= -2.47777253347964E+00

 Other information on the energy :
    Total energy(eV)= -6.74236195262791E+01 ; Band energy (Ha)=   4.0812206244E-01
--------------------------------------------------------------------------------

 Cartesian components of stress tensor (hartree/bohr^3)
  sigma(1 1)= -1.70597688E-04  sigma(3 2)=  0.00000000E+00
  sigma(2 2)= -1.70597688E-04  sigma(3 1)=  0.00000000E+00
  sigma(3 3)= -1.70597688E-04  sigma(2 1)=  0.00000000E+00

-Cartesian components of stress tensor (GPa)         [Pressure=  5.0192E+00 GPa]
- sigma(1 1)= -5.01915641E+00  sigma(3 2)=  0.00000000E+00
- sigma(2 2)= -5.01915641E+00  sigma(3 1)=  0.00000000E+00
- sigma(3 3)= -5.01915641E+00  sigma(2 1)=  0.00000000E+00

================================================================================
== DATASET  2 ==================================================================
-   nproc =    1

 mkfilename : getkss/=0, take file _KSS from output of DATASET   1.

 Exchange-correlation functional for the present dataset will be:
  LDA: new Teter (4/93) with spin-polarized option - ixc=1
 Citation for XC functional:
  S. Goedecker, M. Teter, J. Huetter, PRB 54, 1703 (1996)

 SCREENING: Calculation of the susceptibility and dielectric matrices 

 Based on a program developped by R.W. Godby, V. Olevano, G. Onida, and L. Reining.
 Incorporated in ABINIT by V. Olevano, G.-M. Rignanese, and M. Torrent.
.Using double precision arithmetic ; gwpc =  8

 Real(R)+Recip(G) space primitive vectors, cartesian coordinates (Bohr,Bohr^-1):
 R(1)=  0.0000000  3.8260000  3.8260000  G(1)= -0.1306848  0.1306848  0.1306848
 R(2)=  3.8260000  0.0000000  3.8260000  G(2)=  0.1306848 -0.1306848  0.1306848
 R(3)=  3.8260000  3.8260000  0.0000000  G(3)=  0.1306848  0.1306848 -0.1306848
 Unit cell volume ucvol=  1.1201209E+02 bohr^3
 Angles (23,13,12)=  6.00000000E+01  6.00000000E+01  6.00000000E+01 degrees

--- Pseudopotential description ------------------------------------------------
- pspini: atom type   1  psp file is /home/gonze/ABINIT/ABINITv7.9.3/trunk/7.9.3-private/tests/Psps_for_tests/13al.pspnc
- pspatm: opening atomic psp file    /home/gonze/ABINIT/ABINITv7.9.3/trunk/7.9.3-private/tests/Psps_for_tests/13al.pspnc
-  Troullier-Martins psp for element  Al        Thu Oct 27 17:31:05 EDT 1994
- 13.00000   3.00000    940714                znucl, zion, pspdat
    1    1    2    2      2001   0.00000      pspcod,pspxc,lmax,lloc,mmax,r2well
    0   4.657  11.889    1   2.2761078        l,e99.0,e99.9,nproj,rcpsp
   0.00000000   0.00000000   0.00000000   0.00000000     rms, ekb1, ekb2, epsatm
    1   1.829   2.761    1   2.2761078        l,e99.0,e99.9,nproj,rcpsp
   0.00000000   0.00000000   0.00000000   0.00000000     rms, ekb1, ekb2, epsatm
    2   0.000   0.000    0   2.2761078        l,e99.0,e99.9,nproj,rcpsp
   0.00000000   0.00000000   0.00000000   0.00000000     rms, ekb1, ekb2, epsatm
    2.09673076353074    0.12648111154518    1.01742091001718   rchrg,fchrg,qchrg
 pspatm: epsatm=    0.22155260
         --- l  ekb(1:nproj) -->
             0    2.540658
             1    1.353815
 pspatm: atomic psp has been read  and splines computed

--------------------------------------------------------------------------------

 ==== K-mesh for the wavefunctions ====
 Number of points in the irreducible wedge :     8
 Reduced coordinates and weights : 

     1)     0.00000000E+00  0.00000000E+00  0.00000000E+00       0.01563
     2)     2.50000000E-01  0.00000000E+00  0.00000000E+00       0.12500
     3)     5.00000000E-01  0.00000000E+00  0.00000000E+00       0.06250
     4)     2.50000000E-01  2.50000000E-01  0.00000000E+00       0.09375
     5)     5.00000000E-01  2.50000000E-01  0.00000000E+00       0.37500
     6)    -2.50000000E-01  2.50000000E-01  0.00000000E+00       0.18750
     7)     5.00000000E-01  5.00000000E-01  0.00000000E+00       0.04688
     8)    -2.50000000E-01  5.00000000E-01  2.50000000E-01       0.09375

 Together with 48 symmetry operations and time-reversal symmetry 
 yields    64 points in the full Brillouin Zone.


 ==== Q-mesh for the screening function ====
 Number of points in the irreducible wedge :     8
 Reduced coordinates and weights : 

     1)     0.00000000E+00  0.00000000E+00  0.00000000E+00       0.01563
     2)     2.50000000E-01  0.00000000E+00  0.00000000E+00       0.12500
     3)     5.00000000E-01  0.00000000E+00  0.00000000E+00       0.06250
     4)     2.50000000E-01  2.50000000E-01  0.00000000E+00       0.09375
     5)     5.00000000E-01  2.50000000E-01  0.00000000E+00       0.37500
     6)    -2.50000000E-01  2.50000000E-01  0.00000000E+00       0.18750
     7)     5.00000000E-01  5.00000000E-01  0.00000000E+00       0.04688
     8)    -2.50000000E-01  5.00000000E-01  2.50000000E-01       0.09375

 Together with 48 symmetry operations and time-reversal symmetry 
 yields    64 points in the full Brillouin Zone.


 setmesh: FFT mesh size selected  =   9x  9x  9
          total number of points  =      729


 k       eigenvalues [eV]
  1         -3.45  20.48  20.48  20.48  21.27  21.27  21.27  24.25  27.26  27.26
            29.26  32.09  32.09  32.09  37.43  61.17  61.17  61.17  62.96  64.04

  2         -1.77  11.08  18.45  18.45  21.85  22.33  22.33  26.23  26.46  26.46
            31.89  37.46  39.90  39.90  44.52  48.09  48.09  50.49  63.13  63.77

  3          3.09   3.27  18.71  18.71  19.27  19.27  22.56  22.88  32.58  32.58
            38.06  38.06  38.35  42.24  49.33  52.01  52.01  54.05  55.09  55.09

  4         -1.21  15.05  15.05  15.31  15.86  18.35  29.28  29.30  29.30  33.92
            34.16  35.33  35.33  37.37  48.56  48.56  48.84  50.12  52.17  62.60

  5          2.62   6.90  11.27  14.57  16.35  23.52  26.25  28.90  32.25  33.13
            38.52  40.00  41.76  45.09  45.09  48.44  50.95  51.63  52.40  53.98

  6          1.00   8.90  10.34  16.99  19.02  24.74  25.01  26.16  28.51  33.06
            35.34  37.43  42.61  43.97  48.61  49.08  52.24  52.31  53.80  54.27

  7          4.74   6.05  13.09  13.12  13.12  16.50  33.12  34.72  34.72  39.98
            39.98  40.25  40.60  42.53  47.03  48.27  48.27  48.93  48.93  49.18

  8          6.82   6.82   7.88   8.60  23.46  23.46  23.62  25.78  34.98  39.78
            41.30  41.30  41.50  42.94  42.94  44.79  52.97  52.97  53.91  56.26

 Number of electrons calculated from density =    2.9999; Expected =    3.0000
 average of density, n =  0.026782
 r_s =    2.0734
 omega_plasma =   15.7862 [eV]


 calculating chi0 at frequencies [eV] :
  1    0.000000E+00    0.000000E+00
  2    6.802846E+00    0.000000E+00
  3    1.360569E+01    0.000000E+00
  4    2.040854E+01    0.000000E+00
  5    2.721138E+01    0.000000E+00
  6    0.000000E+00    3.899715E+00
  7    0.000000E+00    1.068951E+01
  8    0.000000E+00    2.251124E+01
  9    0.000000E+00    4.309405E+01


--------------------------------------------------------------------------------
  q-point number  1        q = ( 0.000000, 0.000000, 0.000000) [r.l.u.]
--------------------------------------------------------------------------------
  chi0(G,G') at the    1 th omega   0.0000   0.0000 [eV]
       1       2       3       4       5       6       7       8       9
    1  -0.000  -0.000   0.000   0.000  -0.000  -0.000   0.000   0.000  -0.000
       -0.000   0.000   0.000  -0.000  -0.000   0.000   0.000   0.000   0.000

    2  -0.000  -7.926   0.311   0.794   0.330   0.794   0.330   0.793   0.330
       -0.000   0.000  -0.000  -0.000  -0.000  -0.000  -0.000   0.000   0.000

  chi0(G,G') at the    2 th omega   6.8028   0.0000 [eV]
       1       2       3       4       5       6       7       8       9
    1   0.000  -0.000   0.000   0.000  -0.000  -0.000   0.000   0.000  -0.000
       -0.000  -0.000   0.000   0.000  -0.000  -0.000   0.000   0.000  -0.000

    2  -0.000  -9.376  -0.293   1.110   0.676   1.109   0.676   1.109   0.676
       -0.000  -1.751   0.571   0.521  -0.150   0.521  -0.150   0.521  -0.150

  chi0(G,G') at the    3 th omega  13.6057   0.0000 [eV]
       1       2       3       4       5       6       7       8       9
    1   0.000  -0.000   0.000   0.000  -0.000  -0.000   0.000   0.000  -0.000
       -0.000  -0.000   0.000   0.000  -0.000  -0.000   0.000   0.000  -0.000

    2  -0.000 -15.694   2.833  -1.304   1.444  -1.304   1.444  -1.304   1.444
       -0.000 -10.442   2.013  -0.907   1.242  -0.907   1.242  -0.907   1.242

  chi0(G,G') at the    4 th omega  20.4085   0.0000 [eV]
       1       2       3       4       5       6       7       8       9
    1   0.000   0.000  -0.000  -0.000   0.000   0.000  -0.000  -0.000   0.000
       -0.000  -0.000   0.000   0.000  -0.000  -0.000   0.000   0.000  -0.000

    2   0.000   2.113   1.584  -2.230  -0.214  -2.230  -0.214  -2.231  -0.215
       -0.000  -5.001   0.053   1.282   0.020   1.282   0.020   1.282   0.020

  chi0(G,G') at the    5 th omega  27.2114   0.0000 [eV]
       1       2       3       4       5       6       7       8       9
    1   0.000   0.000  -0.000  -0.000   0.000   0.000  -0.000  -0.000   0.000
       -0.000  -0.000   0.000   0.000  -0.000  -0.000   0.000   0.000  -0.000

    2   0.000  -3.217  -2.827  -0.606  -0.828  -0.606  -0.829  -0.607  -0.829
       -0.000  -2.317  -0.970  -0.346  -0.072  -0.346  -0.072  -0.346  -0.072

  chi0(G,G') at the    6 th omega   0.0000   3.8997 [eV]
       1       2       3       4       5       6       7       8       9
    1  -0.000  -0.000   0.000   0.000  -0.000  -0.000   0.000   0.000  -0.000
        0.000   0.000   0.000   0.000   0.000   0.000   0.000   0.000   0.000

    2  -0.000  -6.377   0.206   0.472   0.276   0.472   0.276   0.472   0.275
        0.000  -0.000  -0.000  -0.000  -0.000  -0.000  -0.000   0.000   0.000

  chi0(G,G') at the    7 th omega   0.0000  10.6895 [eV]
       1       2       3       4       5       6       7       8       9
    1  -0.000  -0.000   0.000   0.000  -0.000  -0.000   0.000   0.000  -0.000
       -0.000   0.000   0.000   0.000   0.000   0.000   0.000   0.000   0.000

    2  -0.000  -4.447   0.153   0.235   0.140   0.235   0.140   0.234   0.139
        0.000  -0.000  -0.000   0.000  -0.000   0.000  -0.000   0.000   0.000

  chi0(G,G') at the    8 th omega   0.0000  22.5112 [eV]
       1       2       3       4       5       6       7       8       9
    1  -0.000  -0.000   0.000   0.000  -0.000  -0.000   0.000   0.000  -0.000
       -0.000   0.000   0.000   0.000   0.000   0.000   0.000   0.000   0.000

    2  -0.000  -2.604   0.066   0.070   0.055   0.070   0.055   0.069   0.054
        0.000  -0.000  -0.000   0.000  -0.000   0.000  -0.000  -0.000   0.000

  chi0(G,G') at the    9 th omega   0.0000  43.0941 [eV]
       1       2       3       4       5       6       7       8       9
    1  -0.000  -0.000   0.000   0.000  -0.000  -0.000   0.000   0.000  -0.000
       -0.000   0.000   0.000   0.000   0.000   0.000   0.000   0.000   0.000

    2  -0.000  -1.230   0.012   0.004   0.018   0.004   0.018   0.004   0.017
        0.000  -0.000  -0.000   0.000   0.000   0.000  -0.000  -0.000   0.000

 For q-point:  0.000010 0.000020 0.000030
  dielectric constant =  69.6517
  dielectric constant without local fields =  71.8658

  Average fulfillment of the sum rule on Im[epsilon] for q-point    1 :     71.49  [%]
  Heads and wings of the symmetrical epsilon^-1(G,G') 

   Upper and lower wings at the    1 th omega   0.0000   0.0000 [eV]
       1       2       3       4       5       6       7       8       9
      0.014  -0.001   0.001   0.002  -0.002  -0.002   0.002   0.001  -0.001
     -0.000  -0.000  -0.000  -0.000  -0.000  -0.000  -0.000   0.000   0.000
       1       2       3       4       5       6       7       8       9
      0.014  -0.001   0.001   0.002  -0.002  -0.002   0.002   0.001  -0.001
     -0.000   0.000   0.000   0.000   0.000   0.000   0.000  -0.000  -0.000


   Upper and lower wings at the    2 th omega   6.8028   0.0000 [eV]
       1       2       3       4       5       6       7       8       9
     -0.762   0.002  -0.002  -0.007   0.007   0.007  -0.007  -0.002   0.002
     -0.139   0.004  -0.004  -0.013   0.013   0.013  -0.013  -0.004   0.004
       1       2       3       4       5       6       7       8       9
     -0.762   0.002  -0.002  -0.007   0.007   0.007  -0.007  -0.002   0.002
     -0.139   0.004  -0.004  -0.013   0.013   0.013  -0.013  -0.004   0.004


   Upper and lower wings at the    3 th omega  13.6057   0.0000 [eV]
       1       2       3       4       5       6       7       8       9
      2.454  -0.018   0.018   0.054  -0.054  -0.054   0.054   0.018  -0.018
     -0.318  -0.005   0.005   0.015  -0.015  -0.015   0.015   0.005  -0.005
       1       2       3       4       5       6       7       8       9
      2.454  -0.018   0.018   0.054  -0.054  -0.054   0.054   0.018  -0.018
     -0.318  -0.005   0.005   0.015  -0.015  -0.015   0.015   0.005  -0.005


   Upper and lower wings at the    4 th omega  20.4085   0.0000 [eV]
       1       2       3       4       5       6       7       8       9
      1.399  -0.000   0.000   0.000  -0.000  -0.000   0.000   0.000  -0.000
     -0.050  -0.007   0.007   0.020  -0.020  -0.020   0.020   0.007  -0.007
       1       2       3       4       5       6       7       8       9
      1.399  -0.000   0.000   0.000  -0.000  -0.000   0.000   0.000  -0.000
     -0.050  -0.007   0.007   0.020  -0.020  -0.020   0.020   0.007  -0.007


   Upper and lower wings at the    5 th omega  27.2114   0.0000 [eV]
       1       2       3       4       5       6       7       8       9
      1.184   0.002  -0.002  -0.007   0.007   0.007  -0.007  -0.002   0.002
     -0.023  -0.000   0.000   0.001  -0.001  -0.001   0.001   0.000  -0.000
       1       2       3       4       5       6       7       8       9
      1.184   0.002  -0.002  -0.007   0.007   0.007  -0.007  -0.002   0.002
     -0.023  -0.000   0.000   0.001  -0.001  -0.001   0.001   0.000  -0.000


   Upper and lower wings at the    6 th omega   0.0000   3.8997 [eV]
       1       2       3       4       5       6       7       8       9
      0.136  -0.002   0.002   0.005  -0.005  -0.005   0.005   0.002  -0.002
      0.000   0.000   0.000   0.000   0.000   0.000   0.000   0.000   0.000
       1       2       3       4       5       6       7       8       9
      0.136  -0.002   0.002   0.005  -0.005  -0.005   0.005   0.002  -0.002
      0.000   0.000   0.000   0.000   0.000   0.000   0.000   0.000   0.000


   Upper and lower wings at the    7 th omega   0.0000  10.6895 [eV]
       1       2       3       4       5       6       7       8       9
      0.508  -0.002   0.002   0.007  -0.007  -0.007   0.007   0.002  -0.002
     -0.000   0.000   0.000   0.000   0.000   0.000   0.000   0.000   0.000
       1       2       3       4       5       6       7       8       9
      0.508  -0.002   0.002   0.007  -0.007  -0.007   0.007   0.002  -0.002
     -0.000   0.000   0.000   0.000   0.000   0.000   0.000   0.000   0.000


   Upper and lower wings at the    8 th omega   0.0000  22.5112 [eV]
       1       2       3       4       5       6       7       8       9
      0.815  -0.002   0.002   0.005  -0.005  -0.005   0.005   0.002  -0.002
     -0.000   0.000   0.000   0.000   0.000   0.000   0.000   0.000   0.000
       1       2       3       4       5       6       7       8       9
      0.815  -0.002   0.002   0.005  -0.005  -0.005   0.005   0.002  -0.002
     -0.000   0.000   0.000   0.000   0.000   0.000   0.000   0.000   0.000


   Upper and lower wings at the    9 th omega   0.0000  43.0941 [eV]
       1       2       3       4       5       6       7       8       9
      0.940  -0.001   0.001   0.002  -0.002  -0.002   0.002   0.001  -0.001
     -0.000   0.000   0.000   0.000   0.000   0.000   0.000   0.000   0.000
       1       2       3       4       5       6       7       8       9
      0.940  -0.001   0.001   0.002  -0.002  -0.002   0.002   0.001  -0.001
     -0.000   0.000   0.000   0.000   0.000   0.000   0.000   0.000   0.000




--------------------------------------------------------------------------------
  q-point number  2        q = ( 0.250000, 0.000000, 0.000000) [r.l.u.]
--------------------------------------------------------------------------------
  chi0(G,G') at the    1 th omega   0.0000   0.0000 [eV]
       1       2       3       4       5       6       7       8       9
    1 -11.199  -0.206  -0.238  -0.213  -0.199  -0.213  -0.199  -0.213  -0.199
        0.000  -0.000   0.000   0.000  -0.000  -0.000  -0.000  -0.000   0.000

    2  -0.206  -5.429   0.199   0.569   0.379   0.569   0.379   0.568   0.379
        0.000   0.000  -0.000   0.000  -0.000   0.000  -0.000  -0.000   0.000

  chi0(G,G') at the    2 th omega   6.8028   0.0000 [eV]
       1       2       3       4       5       6       7       8       9
    1   7.937  -1.089   1.498   0.683   0.029   0.683   0.029   0.683   0.029
       -4.238   1.214  -1.587  -0.637   0.222  -0.637   0.222  -0.637   0.222

    2  -1.089  -4.800  -2.278   0.081   1.089   0.080   1.088   0.080   1.088
        1.214  -1.394   1.136   0.558  -0.260   0.558  -0.261   0.558  -0.261

  chi0(G,G') at the    3 th omega  13.6057   0.0000 [eV]
       1       2       3       4       5       6       7       8       9
    1   2.022   0.040   0.084   0.051   0.035   0.051   0.035   0.051   0.035
       -0.100  -0.001  -0.394   0.007   0.130   0.007   0.130   0.007   0.130

    2   0.040  -2.112   1.452  -0.204  -0.663  -0.204  -0.664  -0.204  -0.664
       -0.001  -0.421  -0.514   0.229   0.282   0.229   0.282   0.229   0.282

  chi0(G,G') at the    4 th omega  20.4085   0.0000 [eV]
       1       2       3       4       5       6       7       8       9
    1   0.703  -0.046   0.434   0.093   0.043   0.093   0.043   0.093   0.043
       -0.034   0.035  -0.146  -0.022   0.012  -0.022   0.012  -0.022   0.012

    2  -0.046  -4.080  -0.821  -0.788   0.089  -0.788   0.089  -0.789   0.089
        0.035  -1.227   2.797   0.200   0.260   0.200   0.260   0.200   0.260

  chi0(G,G') at the    5 th omega  27.2114   0.0000 [eV]
       1       2       3       4       5       6       7       8       9
    1   0.372   0.047   0.011   0.055  -0.023   0.055  -0.023   0.055  -0.023
       -0.037   0.007  -0.052   0.095   0.007   0.095   0.007   0.095   0.007

    2   0.047  -4.845   0.106   0.942  -0.201   0.941  -0.202   0.941  -0.202
        0.007  -1.121   0.014   0.294  -0.045   0.294  -0.045   0.294  -0.045

  chi0(G,G') at the    6 th omega   0.0000   3.8997 [eV]
       1       2       3       4       5       6       7       8       9
    1  -5.028  -0.007  -0.206  -0.122  -0.065  -0.122  -0.065  -0.122  -0.065
        0.000  -0.000   0.000  -0.000  -0.000  -0.000  -0.000   0.000   0.000

    2  -0.007  -4.494   0.185   0.419   0.215   0.419   0.214   0.419   0.214
        0.000  -0.000  -0.000   0.000  -0.000   0.000  -0.000  -0.000   0.000

  chi0(G,G') at the    7 th omega   0.0000  10.6895 [eV]
       1       2       3       4       5       6       7       8       9
    1  -1.620   0.034  -0.114  -0.045  -0.001  -0.045  -0.000  -0.045  -0.000
        0.000   0.000   0.000  -0.000   0.000  -0.000   0.000   0.000   0.000

    2   0.034  -3.356   0.137   0.235   0.124   0.235   0.124   0.235   0.124
       -0.000  -0.000  -0.000  -0.000  -0.000   0.000  -0.000  -0.000   0.000

  chi0(G,G') at the    8 th omega   0.0000  22.5112 [eV]
       1       2       3       4       5       6       7       8       9
    1  -0.465   0.027  -0.043  -0.014   0.010  -0.014   0.010  -0.014   0.010
        0.000   0.000   0.000  -0.000   0.000  -0.000   0.000   0.000   0.000

    2   0.027  -2.149   0.059   0.092   0.051   0.092   0.051   0.092   0.050
       -0.000  -0.000  -0.000  -0.000  -0.000   0.000  -0.000  -0.000   0.000

  chi0(G,G') at the    9 th omega   0.0000  43.0941 [eV]
       1       2       3       4       5       6       7       8       9
    1  -0.137   0.014  -0.014  -0.004   0.006  -0.004   0.006  -0.004   0.007
        0.000   0.000   0.000  -0.000   0.000  -0.000   0.000   0.000  -0.000

    2   0.014  -1.108   0.012   0.022   0.015   0.022   0.015   0.022   0.014
       -0.000  -0.000  -0.000   0.000   0.000  -0.000  -0.000  -0.000   0.000

  Average fulfillment of the sum rule on Im[epsilon] for q-point    2 :     89.85  [%]


--------------------------------------------------------------------------------
  q-point number  3        q = ( 0.500000, 0.000000, 0.000000) [r.l.u.]
--------------------------------------------------------------------------------
  chi0(G,G') at the    1 th omega   0.0000   0.0000 [eV]
       1       2       3       4       5       6       7       8       9
    1 -10.200  -0.222  -0.218  -0.238  -0.176  -0.238  -0.175  -0.238  -0.175
       -0.000  -0.000   0.000  -0.000  -0.000   0.000  -0.000  -0.000   0.000

    2  -0.222  -2.420   0.174   0.377   0.141   0.377   0.140   0.377   0.140
        0.000   0.000  -0.000   0.000  -0.000   0.000  -0.000  -0.000   0.000

  chi0(G,G') at the    2 th omega   6.8028   0.0000 [eV]
       1       2       3       4       5       6       7       8       9
    1 -13.068  -0.203   1.623   0.384  -0.509   0.384  -0.509   0.384  -0.508
       -6.132  -0.292   3.924   1.031  -0.439   1.031  -0.439   1.031  -0.439

    2  -0.203  -2.153   0.513   0.517  -0.162   0.517  -0.163   0.517  -0.163
       -0.292  -0.120   0.264   0.049   0.029   0.049   0.029   0.049   0.029

  chi0(G,G') at the    3 th omega  13.6057   0.0000 [eV]
       1       2       3       4       5       6       7       8       9
    1 -10.578   0.175  -0.806  -1.080  -0.059  -1.080  -0.058  -1.080  -0.058
      -11.494  -0.268  -0.472  -0.040   0.176  -0.040   0.176  -0.040   0.176

    2   0.175  -2.562   0.892   0.038   0.134   0.038   0.133   0.038   0.133
       -0.268  -0.237   0.831   0.299   0.126   0.299   0.126   0.299   0.126

  chi0(G,G') at the    4 th omega  20.4085   0.0000 [eV]
       1       2       3       4       5       6       7       8       9
    1   5.126   0.583   0.898   0.748   0.565   0.748   0.565   0.748   0.566
       -1.851   0.176   0.069  -0.383   0.331  -0.383   0.331  -0.383   0.331

    2   0.583  -2.211  -1.124  -0.329  -0.121  -0.329  -0.121  -0.329  -0.122
        0.176  -0.468   0.049   0.055  -0.116   0.055  -0.116   0.055  -0.116

  chi0(G,G') at the    5 th omega  27.2114   0.0000 [eV]
       1       2       3       4       5       6       7       8       9
    1   2.167   0.158   0.134   0.068   0.181   0.068   0.181   0.068   0.182
       -0.201   0.044  -0.014  -0.055   0.063  -0.055   0.063  -0.055   0.063

    2   0.158  -2.365  -0.191  -0.059   0.006  -0.059   0.005  -0.059   0.004
        0.044  -1.487  -0.146   0.056  -0.264   0.056  -0.264   0.056  -0.264

  chi0(G,G') at the    6 th omega   0.0000   3.8997 [eV]
       1       2       3       4       5       6       7       8       9
    1  -7.115  -0.118  -0.233  -0.157  -0.112  -0.157  -0.111  -0.157  -0.111
        0.000  -0.000   0.000  -0.000  -0.000   0.000  -0.000   0.000   0.000

    2  -0.118  -2.291   0.144   0.307   0.114   0.307   0.114   0.307   0.113
        0.000  -0.000  -0.000   0.000  -0.000   0.000  -0.000  -0.000   0.000

  chi0(G,G') at the    7 th omega   0.0000  10.6895 [eV]
       1       2       3       4       5       6       7       8       9
    1  -3.658  -0.026  -0.159  -0.078  -0.043  -0.078  -0.043  -0.078  -0.042
        0.000  -0.000   0.000  -0.000  -0.000  -0.000  -0.000   0.000   0.000

    2  -0.026  -1.917   0.095   0.200   0.070   0.200   0.069   0.200   0.068
        0.000  -0.000  -0.000  -0.000   0.000   0.000  -0.000  -0.000   0.000

  chi0(G,G') at the    8 th omega   0.0000  22.5112 [eV]
       1       2       3       4       5       6       7       8       9
    1  -1.463   0.010  -0.063  -0.024  -0.001  -0.024  -0.001  -0.024  -0.000
        0.000   0.000   0.000  -0.000  -0.000  -0.000   0.000   0.000   0.000

    2   0.010  -1.346   0.038   0.096   0.030   0.096   0.030   0.096   0.029
       -0.000  -0.000  -0.000  -0.000   0.000   0.000  -0.000  -0.000   0.000

  chi0(G,G') at the    9 th omega   0.0000  43.0941 [eV]
       1       2       3       4       5       6       7       8       9
    1  -0.500   0.012  -0.019  -0.004   0.008  -0.004   0.009  -0.004   0.009
        0.000   0.000   0.000  -0.000  -0.000  -0.000   0.000   0.000   0.000

    2   0.012  -0.744   0.009   0.034   0.007   0.034   0.007   0.034   0.007
       -0.000  -0.000  -0.000  -0.000   0.000   0.000  -0.000  -0.000   0.000

  Average fulfillment of the sum rule on Im[epsilon] for q-point    3 :     86.44  [%]


--------------------------------------------------------------------------------
  q-point number  4        q = ( 0.250000, 0.250000, 0.000000) [r.l.u.]
--------------------------------------------------------------------------------
  chi0(G,G') at the    1 th omega   0.0000   0.0000 [eV]
       1       2       3       4       5       6       7       8       9
    1 -10.020  -0.170  -0.203  -0.203  -0.170  -0.203  -0.170  -0.170  -0.203
        0.000  -0.000   0.000   0.000  -0.000  -0.000  -0.000   0.000  -0.000

    2  -0.170  -5.915   0.214   0.603   0.333   0.603   0.333   0.491   0.385
        0.000  -0.000  -0.000   0.000  -0.000   0.000  -0.000  -0.000   0.000

  chi0(G,G') at the    2 th omega   6.8028   0.0000 [eV]
       1       2       3       4       5       6       7       8       9
    1  -6.642  -0.027   0.353   0.353  -0.027   0.353  -0.027  -0.027   0.353
       -5.737  -0.322   1.025   1.025  -0.322   1.025  -0.322  -0.322   1.025

    2  -0.027  -6.154   0.599   1.041   0.179   1.040   0.178   0.773  -1.242
       -0.322  -0.668  -0.032   0.269   0.166   0.269   0.166  -0.004  -0.108

  chi0(G,G') at the    3 th omega  13.6057   0.0000 [eV]
       1       2       3       4       5       6       7       8       9
    1   2.643   0.212  -0.091  -0.091   0.212  -0.091   0.212   0.212  -0.091
       -0.580   0.292  -0.275  -0.275   0.292  -0.275   0.292   0.292  -0.275

    2   0.212 -10.655   1.666  -0.029   1.459  -0.029   1.459   0.881   1.388
        0.292  -5.575   2.661   0.705  -0.141   0.705  -0.141  -0.839   2.088

  chi0(G,G') at the    4 th omega  20.4085   0.0000 [eV]
       1       2       3       4       5       6       7       8       9
    1   0.974   0.059   0.087   0.087   0.059   0.087   0.059   0.059   0.087
       -0.031   0.041  -0.000  -0.000   0.041  -0.000   0.041   0.041  -0.000

    2   0.059  -4.081   0.350  -1.212  -0.610  -1.213  -0.610   1.604  -0.124
        0.041  -3.188   0.152   0.727   0.326   0.727   0.326   0.194  -0.613

  chi0(G,G') at the    5 th omega  27.2114   0.0000 [eV]
       1       2       3       4       5       6       7       8       9
    1   0.513   0.037   0.016   0.016   0.037   0.016   0.037   0.037   0.016
       -0.016   0.008  -0.011  -0.011   0.008  -0.011   0.008   0.008  -0.011

    2   0.037  -2.509   0.047  -1.146   0.200  -1.146   0.200   0.202  -0.353
        0.008  -2.099   1.252  -0.390   0.352  -0.390   0.352   0.586  -0.263

  chi0(G,G') at the    6 th omega   0.0000   3.8997 [eV]
       1       2       3       4       5       6       7       8       9
    1  -5.522  -0.054  -0.159  -0.159  -0.054  -0.159  -0.054  -0.054  -0.159
        0.000   0.000   0.000   0.000  -0.000  -0.000  -0.000   0.000  -0.000

    2  -0.054  -4.998   0.192   0.432   0.216   0.432   0.216   0.391   0.318
       -0.000   0.000  -0.000   0.000  -0.000   0.000  -0.000  -0.000   0.000

  chi0(G,G') at the    7 th omega   0.0000  10.6895 [eV]
       1       2       3       4       5       6       7       8       9
    1  -1.981   0.008  -0.075  -0.075   0.008  -0.075   0.008   0.008  -0.075
        0.000   0.000   0.000  -0.000  -0.000  -0.000  -0.000   0.000  -0.000

    2   0.008  -3.686   0.145   0.225   0.126   0.225   0.126   0.241   0.151
       -0.000  -0.000  -0.000   0.000  -0.000   0.000  -0.000  -0.000   0.000

  chi0(G,G') at the    8 th omega   0.0000  22.5112 [eV]
       1       2       3       4       5       6       7       8       9
    1  -0.603   0.016  -0.026  -0.026   0.016  -0.026   0.016   0.016  -0.026
        0.000   0.000   0.000  -0.000  -0.000  -0.000  -0.000   0.000  -0.000

    2   0.016  -2.317   0.065   0.073   0.053   0.073   0.052   0.108   0.067
       -0.000  -0.000  -0.000   0.000  -0.000   0.000  -0.000  -0.000   0.000

  chi0(G,G') at the    9 th omega   0.0000  43.0941 [eV]
       1       2       3       4       5       6       7       8       9
    1  -0.180   0.010  -0.008  -0.008   0.010  -0.008   0.010   0.010  -0.008
        0.000   0.000   0.000  -0.000  -0.000  -0.000  -0.000   0.000  -0.000

    2   0.010  -1.175   0.013   0.009   0.016   0.009   0.016   0.033   0.026
       -0.000  -0.000  -0.000   0.000  -0.000  -0.000  -0.000  -0.000   0.000

  Average fulfillment of the sum rule on Im[epsilon] for q-point    4 :     89.05  [%]


--------------------------------------------------------------------------------
  q-point number  5        q = ( 0.500000, 0.250000, 0.000000) [r.l.u.]
--------------------------------------------------------------------------------
  chi0(G,G') at the    1 th omega   0.0000   0.0000 [eV]
       1       2       3       4       5       6       7       8       9
    1 -10.642  -0.226  -0.229  -0.218  -0.206  -0.218  -0.206  -0.209  -0.214
       -0.000   0.000   0.000   0.000  -0.000   0.000  -0.000   0.000   0.000

    2  -0.226  -3.102   0.176   0.450   0.162   0.449   0.162   0.359   0.288
       -0.000   0.000   0.000   0.000  -0.000   0.000  -0.000  -0.000   0.000

  chi0(G,G') at the    2 th omega   6.8028   0.0000 [eV]
       1       2       3       4       5       6       7       8       9
    1  -5.394   0.138   0.351  -0.110  -0.381  -0.110  -0.381  -0.653   0.410
       -2.352  -0.162  -0.487  -0.057   0.312  -0.057   0.312   0.331  -0.602

    2   0.138  -3.546   0.743   0.383   0.159   0.383   0.158   0.311   0.408
       -0.162  -0.138  -0.076   0.046   0.063   0.046   0.063   0.054  -0.039

  chi0(G,G') at the    3 th omega  13.6057   0.0000 [eV]
       1       2       3       4       5       6       7       8       9
    1   6.849   0.647   0.092   0.162   0.172   0.162   0.172   0.249   0.419
      -13.321  -0.295  -0.531  -0.664  -0.532  -0.664  -0.532  -0.684  -0.162

    2   0.647  -3.124   0.623  -0.013  -0.078  -0.013  -0.079   0.267   0.256
       -0.295  -0.403  -0.125   0.131   0.007   0.131   0.007   0.065   0.042

  chi0(G,G') at the    4 th omega  20.4085   0.0000 [eV]
       1       2       3       4       5       6       7       8       9
    1   5.422   0.275   0.205   0.047   0.288   0.047   0.288   0.079   0.125
       -1.295   0.275  -0.076  -0.153  -0.127  -0.153  -0.127   0.560   0.643

    2   0.275  -2.228  -0.159   0.078   0.258   0.078   0.258  -0.549  -0.177
        0.275  -2.524   0.585   0.985   0.063   0.985   0.063   1.165  -1.734

  chi0(G,G') at the    5 th omega  27.2114   0.0000 [eV]
[...]
                       0.000000  0.000000  0.000000  0.000000  0.000000  0.000000
                       0.000000  0.000000  0.000000  0.000000  0.000000  0.000000
                       0.000000  0.000000  0.000000  0.000000  0.000000
                       1.997779  0.133535  0.000635  0.000635  0.000052  0.000037
                       0.000037  0.000002  0.000002  0.000002  0.000000  0.000000
                       0.000000  0.000000  0.000000  0.000000  0.000000  0.000000
                       0.000000  0.000000  0.000000  0.000000  0.000000  0.000000
                       0.000000  0.000000  0.000000  0.000000  0.000000  0.000000
                       0.000000  0.000000  0.000000  0.000000  0.000000
                       1.923926  1.914033  0.000525  0.000525  0.000347  0.000347
                       0.000031  0.000025  0.000000  0.000000  0.000000  0.000000
                       0.000000  0.000000  0.000000  0.000000  0.000000  0.000000
                       0.000000  0.000000  0.000000  0.000000  0.000000  0.000000
                       0.000000  0.000000  0.000000  0.000000  0.000000  0.000000
                       0.000000  0.000000  0.000000  0.000000  0.000000
                       1.996660  0.007698  0.007698  0.006369  0.004255  0.000683
                       0.000000  0.000000  0.000000  0.000000  0.000000  0.000000
                       0.000000  0.000000  0.000000  0.000000  0.000000  0.000000
                       0.000000  0.000000  0.000000  0.000000  0.000000  0.000000
                       0.000000  0.000000  0.000000  0.000000  0.000000  0.000000
                       0.000000  0.000000  0.000000  0.000000  0.000000
                       1.945487  1.213646  0.116751  0.010900  0.002962  0.000015
                       0.000002  0.000000  0.000000  0.000000  0.000000  0.000000
                       0.000000  0.000000  0.000000  0.000000  0.000000  0.000000
                       0.000000  0.000000  0.000000  0.000000  0.000000  0.000000
                       0.000000  0.000000  0.000000  0.000000  0.000000  0.000000
                       0.000000  0.000000  0.000000  0.000000  0.000000
                       1.983186  0.522129  0.219087  0.001851  0.000417  0.000006
                       0.000005  0.000002  0.000000  0.000000  0.000000  0.000000
                       0.000000  0.000000  0.000000  0.000000  0.000000  0.000000
                       0.000000  0.000000  0.000000  0.000000  0.000000  0.000000
                       0.000000  0.000000  0.000000  0.000000  0.000000  0.000000
                       0.000000  0.000000  0.000000  0.000000  0.000000
                       1.765733  1.483827  0.032171  0.031317  0.031317  0.002662
                       0.000000  0.000000  0.000000  0.000000  0.000000  0.000000
                       0.000000  0.000000  0.000000  0.000000  0.000000  0.000000
                       0.000000  0.000000  0.000000  0.000000  0.000000  0.000000
                       0.000000  0.000000  0.000000  0.000000  0.000000  0.000000
                       0.000000  0.000000  0.000000  0.000000  0.000000
                       1.240709  1.240709  0.858125  0.614316  0.000016  0.000016
                       0.000014  0.000003  0.000000  0.000000  0.000000  0.000000
                       0.000000  0.000000  0.000000  0.000000  0.000000  0.000000
                       0.000000  0.000000  0.000000  0.000000  0.000000  0.000000
                       0.000000  0.000000  0.000000  0.000000  0.000000  0.000000
                       0.000000  0.000000  0.000000  0.000000  0.000000
              occ2     2.000000  1.000000  0.000000  0.000000  0.000000  0.000000
                       0.000000  0.000000  0.000000  0.000000  0.000000  0.000000
                       0.000000  0.000000  0.000000  0.000000  0.000000  0.000000
                       0.000000  0.000000
                       2.000000  1.000000  0.000000  0.000000  0.000000  0.000000
                       0.000000  0.000000  0.000000  0.000000  0.000000  0.000000
                       0.000000  0.000000  0.000000  0.000000  0.000000  0.000000
                       0.000000  0.000000
                       2.000000  1.000000  0.000000  0.000000  0.000000  0.000000
                       0.000000  0.000000  0.000000  0.000000  0.000000  0.000000
                       0.000000  0.000000  0.000000  0.000000  0.000000  0.000000
                       0.000000  0.000000
                       2.000000  1.000000  0.000000  0.000000  0.000000  0.000000
                       0.000000  0.000000  0.000000  0.000000  0.000000  0.000000
                       0.000000  0.000000  0.000000  0.000000  0.000000  0.000000
                       0.000000  0.000000
                       2.000000  1.000000  0.000000  0.000000  0.000000  0.000000
                       0.000000  0.000000  0.000000  0.000000  0.000000  0.000000
                       0.000000  0.000000  0.000000  0.000000  0.000000  0.000000
                       0.000000  0.000000
                       2.000000  1.000000  0.000000  0.000000  0.000000  0.000000
                       0.000000  0.000000  0.000000  0.000000  0.000000  0.000000
                       0.000000  0.000000  0.000000  0.000000  0.000000  0.000000
                       0.000000  0.000000
                       2.000000  1.000000  0.000000  0.000000  0.000000  0.000000
                       0.000000  0.000000  0.000000  0.000000  0.000000  0.000000
                       0.000000  0.000000  0.000000  0.000000  0.000000  0.000000
                       0.000000  0.000000
                       2.000000  1.000000  0.000000  0.000000  0.000000  0.000000
                       0.000000  0.000000  0.000000  0.000000  0.000000  0.000000
                       0.000000  0.000000  0.000000  0.000000  0.000000  0.000000
                       0.000000  0.000000
              occ3     2.000000  1.000000  0.000000  0.000000  0.000000  0.000000
                       0.000000  0.000000  0.000000  0.000000  0.000000  0.000000
                       0.000000  0.000000  0.000000  0.000000  0.000000  0.000000
                       0.000000  0.000000  0.000000  0.000000  0.000000  0.000000
                       0.000000  0.000000  0.000000  0.000000  0.000000  0.000000
                       2.000000  1.000000  0.000000  0.000000  0.000000  0.000000
                       0.000000  0.000000  0.000000  0.000000  0.000000  0.000000
                       0.000000  0.000000  0.000000  0.000000  0.000000  0.000000
                       0.000000  0.000000  0.000000  0.000000  0.000000  0.000000
                       0.000000  0.000000  0.000000  0.000000  0.000000  0.000000
                       2.000000  1.000000  0.000000  0.000000  0.000000  0.000000
                       0.000000  0.000000  0.000000  0.000000  0.000000  0.000000
                       0.000000  0.000000  0.000000  0.000000  0.000000  0.000000
                       0.000000  0.000000  0.000000  0.000000  0.000000  0.000000
                       0.000000  0.000000  0.000000  0.000000  0.000000  0.000000
                       2.000000  1.000000  0.000000  0.000000  0.000000  0.000000
                       0.000000  0.000000  0.000000  0.000000  0.000000  0.000000
                       0.000000  0.000000  0.000000  0.000000  0.000000  0.000000
                       0.000000  0.000000  0.000000  0.000000  0.000000  0.000000
                       0.000000  0.000000  0.000000  0.000000  0.000000  0.000000
                       2.000000  1.000000  0.000000  0.000000  0.000000  0.000000
                       0.000000  0.000000  0.000000  0.000000  0.000000  0.000000
                       0.000000  0.000000  0.000000  0.000000  0.000000  0.000000
                       0.000000  0.000000  0.000000  0.000000  0.000000  0.000000
                       0.000000  0.000000  0.000000  0.000000  0.000000  0.000000
                       2.000000  1.000000  0.000000  0.000000  0.000000  0.000000
                       0.000000  0.000000  0.000000  0.000000  0.000000  0.000000
                       0.000000  0.000000  0.000000  0.000000  0.000000  0.000000
                       0.000000  0.000000  0.000000  0.000000  0.000000  0.000000
                       0.000000  0.000000  0.000000  0.000000  0.000000  0.000000
                       2.000000  1.000000  0.000000  0.000000  0.000000  0.000000
                       0.000000  0.000000  0.000000  0.000000  0.000000  0.000000
                       0.000000  0.000000  0.000000  0.000000  0.000000  0.000000
                       0.000000  0.000000  0.000000  0.000000  0.000000  0.000000
                       0.000000  0.000000  0.000000  0.000000  0.000000  0.000000
                       2.000000  1.000000  0.000000  0.000000  0.000000  0.000000
                       0.000000  0.000000  0.000000  0.000000  0.000000  0.000000
                       0.000000  0.000000  0.000000  0.000000  0.000000  0.000000
                       0.000000  0.000000  0.000000  0.000000  0.000000  0.000000
                       0.000000  0.000000  0.000000  0.000000  0.000000  0.000000
              occ4     2.000000  1.000000  0.000000  0.000000  0.000000  0.000000
                       0.000000  0.000000  0.000000  0.000000  0.000000  0.000000
                       0.000000  0.000000  0.000000  0.000000  0.000000  0.000000
                       0.000000  0.000000  0.000000  0.000000  0.000000  0.000000
                       0.000000  0.000000  0.000000  0.000000  0.000000  0.000000
                       2.000000  1.000000  0.000000  0.000000  0.000000  0.000000
                       0.000000  0.000000  0.000000  0.000000  0.000000  0.000000
                       0.000000  0.000000  0.000000  0.000000  0.000000  0.000000
                       0.000000  0.000000  0.000000  0.000000  0.000000  0.000000
                       0.000000  0.000000  0.000000  0.000000  0.000000  0.000000
                       2.000000  1.000000  0.000000  0.000000  0.000000  0.000000
                       0.000000  0.000000  0.000000  0.000000  0.000000  0.000000
                       0.000000  0.000000  0.000000  0.000000  0.000000  0.000000
                       0.000000  0.000000  0.000000  0.000000  0.000000  0.000000
                       0.000000  0.000000  0.000000  0.000000  0.000000  0.000000
                       2.000000  1.000000  0.000000  0.000000  0.000000  0.000000
                       0.000000  0.000000  0.000000  0.000000  0.000000  0.000000
                       0.000000  0.000000  0.000000  0.000000  0.000000  0.000000
                       0.000000  0.000000  0.000000  0.000000  0.000000  0.000000
                       0.000000  0.000000  0.000000  0.000000  0.000000  0.000000
                       2.000000  1.000000  0.000000  0.000000  0.000000  0.000000
                       0.000000  0.000000  0.000000  0.000000  0.000000  0.000000
                       0.000000  0.000000  0.000000  0.000000  0.000000  0.000000
                       0.000000  0.000000  0.000000  0.000000  0.000000  0.000000
                       0.000000  0.000000  0.000000  0.000000  0.000000  0.000000
                       2.000000  1.000000  0.000000  0.000000  0.000000  0.000000
                       0.000000  0.000000  0.000000  0.000000  0.000000  0.000000
                       0.000000  0.000000  0.000000  0.000000  0.000000  0.000000
                       0.000000  0.000000  0.000000  0.000000  0.000000  0.000000
                       0.000000  0.000000  0.000000  0.000000  0.000000  0.000000
                       2.000000  1.000000  0.000000  0.000000  0.000000  0.000000
                       0.000000  0.000000  0.000000  0.000000  0.000000  0.000000
                       0.000000  0.000000  0.000000  0.000000  0.000000  0.000000
                       0.000000  0.000000  0.000000  0.000000  0.000000  0.000000
                       0.000000  0.000000  0.000000  0.000000  0.000000  0.000000
                       2.000000  1.000000  0.000000  0.000000  0.000000  0.000000
                       0.000000  0.000000  0.000000  0.000000  0.000000  0.000000
                       0.000000  0.000000  0.000000  0.000000  0.000000  0.000000
                       0.000000  0.000000  0.000000  0.000000  0.000000  0.000000
                       0.000000  0.000000  0.000000  0.000000  0.000000  0.000000
           occopt           3
        optdriver1          0
        optdriver2          3
        optdriver3          4
        optdriver4          4
            rprim      0.0000000000E+00  5.0000000000E-01  5.0000000000E-01
                       5.0000000000E-01  0.0000000000E+00  5.0000000000E-01
                       5.0000000000E-01  5.0000000000E-01  0.0000000000E+00
          spgroup         225
           strten1    -1.7059768764E-04 -1.7059768764E-04 -1.7059768764E-04
                       0.0000000000E+00  0.0000000000E+00  0.0000000000E+00
           strten2     0.0000000000E+00  0.0000000000E+00  0.0000000000E+00
                       0.0000000000E+00  0.0000000000E+00  0.0000000000E+00
           strten3     0.0000000000E+00  0.0000000000E+00  0.0000000000E+00
                       0.0000000000E+00  0.0000000000E+00  0.0000000000E+00
           strten4     0.0000000000E+00  0.0000000000E+00  0.0000000000E+00
                       0.0000000000E+00  0.0000000000E+00  0.0000000000E+00
           symrel      1  0  0   0  1  0   0  0  1      -1  0  0   0 -1  0   0  0 -1
                       0 -1  1   0 -1  0   1 -1  0       0  1 -1   0  1  0  -1  1  0
                      -1  0  0  -1  0  1  -1  1  0       1  0  0   1  0 -1   1 -1  0
                       0  1 -1   1  0 -1   0  0 -1       0 -1  1  -1  0  1   0  0  1
                      -1  0  0  -1  1  0  -1  0  1       1  0  0   1 -1  0   1  0 -1
                       0 -1  1   1 -1  0   0 -1  0       0  1 -1  -1  1  0   0  1  0
                       1  0  0   0  0  1   0  1  0      -1  0  0   0  0 -1   0 -1  0
                       0  1 -1   0  0 -1   1  0 -1       0 -1  1   0  0  1  -1  0  1
                      -1  0  1  -1  1  0  -1  0  0       1  0 -1   1 -1  0   1  0  0
                       0 -1  0   1 -1  0   0 -1  1       0  1  0  -1  1  0   0  1 -1
                       1  0 -1   0  0 -1   0  1 -1      -1  0  1   0  0  1   0 -1  1
                       0  1  0   0  0  1   1  0  0       0 -1  0   0  0 -1  -1  0  0
                       1  0 -1   0  1 -1   0  0 -1      -1  0  1   0 -1  1   0  0  1
                       0 -1  0   0 -1  1   1 -1  0       0  1  0   0  1 -1  -1  1  0
                      -1  0  1  -1  0  0  -1  1  0       1  0 -1   1  0  0   1 -1  0
                       0  1  0   1  0  0   0  0  1       0 -1  0  -1  0  0   0  0 -1
                       0  0 -1   0  1 -1   1  0 -1       0  0  1   0 -1  1  -1  0  1
                       1 -1  0   0 -1  1   0 -1  0      -1  1  0   0  1 -1   0  1  0
                       0  0  1   1  0  0   0  1  0       0  0 -1  -1  0  0   0 -1  0
                      -1  1  0  -1  0  0  -1  0  1       1 -1  0   1  0  0   1  0 -1
                       0  0  1   0  1  0   1  0  0       0  0 -1   0 -1  0  -1  0  0
                       1 -1  0   0 -1  0   0 -1  1      -1  1  0   0  1  0   0  1 -1
                       0  0 -1   1  0 -1   0  1 -1       0  0  1  -1  0  1   0 -1  1
                      -1  1  0  -1  0  1  -1  0  0       1 -1  0   1  0 -1   1  0  0
           tolwfr1     1.00000000E-10
           tolwfr2     0.00000000E+00
           tolwfr3     0.00000000E+00
           tolwfr4     0.00000000E+00
           tsmear      5.00000000E-02 Hartree
            typat      1
              wtk        0.01563    0.12500    0.06250    0.09375    0.37500    0.18750
                         0.04688    0.09375
            znucl       13.00000

================================================================================


- Timing analysis has been suppressed with timopt=0



================================================================================

 Suggested references for the acknowledgment of ABINIT usage.

 The users of ABINIT have little formal obligations with respect to the ABINIT group
 (those specified in the GNU General Public License, http://www.gnu.org/copyleft/gpl.txt).
 However, it is common practice in the scientific literature,
 to acknowledge the efforts of people that have made the research possible.
 In this spirit, please find below suggested citations of work written by ABINIT developers,
 corresponding to implementations inside of ABINIT that you have used in the present run.
 Note also that it will be of great value to readers of publications presenting these results,
 to read papers enabling them to understand the theoretical formalism and details
 of the ABINIT implementation.
 For information on why they are suggested, see also http://www.abinit.org/about/?text=acknowledgments.

 [1] ABINIT : First-principles approach of materials and nanosystem properties.
 X. Gonze, B. Amadon, P.-M. Anglade, J.-M. Beuken, F. Bottin, P. Boulanger, F. Bruneval,
 D. Caliste, R. Caracas, M. Cote, T. Deutsch, L. Genovese, Ph. Ghosez, M. Giantomassi
 S. Goedecker, D.R. Hamann, P. Hermet, F. Jollet, G. Jomard, S. Leroux, M. Mancini, S. Mazevet,
 M.J.T. Oliveira, G. Onida, Y. Pouillon, T. Rangel, G.-M. Rignanese, D. Sangalli, R. Shaltaf,
 M. Torrent, M.J. Verstraete, G. Zerah, J.W. Zwanziger
 Computer Phys. Comm. 180, 2582-2615 (2009).
 Comment : the third generic paper describing the ABINIT project.
 Note that a version of this paper, that is not formatted for Computer Phys. Comm. 
 is available at http://www.abinit.org/about/ABINIT_CPC_v10.pdf .
 The licence allows the authors to put it on the Web.

 [2] A brief introduction to the ABINIT software package.
 X. Gonze, G.-M. Rignanese, M. Verstraete, J.-M. Beuken, Y. Pouillon, R. Caracas, F. Jollet,
 M. Torrent, G. Zerah, M. Mikami, Ph. Ghosez, M. Veithen, J.-Y. Raty, V. Olevano, F. Bruneval,
 L. Reining, R. Godby, G. Onida, D.R. Hamann, and D.C. Allan.
 Z. Kristallogr. 220, 558-562 (2005).
 Comment : the second generic paper describing the ABINIT project. Note that this paper
 should be cited especially if you are using the GW part of ABINIT, as several authors
 of this part are not in the list of authors of the first or third paper.
 The .pdf of the latter paper is available at http://www.abinit.org/about/zfk_0505-06_558-562.pdf.
 Note that it should not redistributed (Copyright by Oldenburg Wissenshaftverlag,
 the licence allows the authors to put it on the Web).


 And optionally :

 [3] First-principles computation of material properties : the ABINIT software project. 
 X. Gonze, J.-M. Beuken, R. Caracas, F. Detraux, M. Fuchs, G.-M. Rignanese, L. Sindic,
 M. Verstraete, G. Zerah, F. Jollet, M. Torrent, A. Roy, M. Mikami, Ph. Ghosez, J.-Y. Raty, D.C. Allan.
 Computational Materials Science 25, 478-492 (2002). http://dx.doi.org/10.1016/S0927-0256(02)00325-7
 Comment : the original paper describing the ABINIT project.

 [4] Fast radix 2, 3, 4 and 5 kernels for Fast Fourier Transformations
 on computers with overlapping multiply-add instructions.
 S. Goedecker, SIAM J. on Scientific Computing 18, 1605 (1997).

 [5] Towards a potential-based conjugate gradient algorithm for order-N self-consistent
 total energy calculations.
 X. Gonze, Phys. Rev. B 54, 4383 (1996).
 Comment : The potential-based conjugate-gradient algorithm, used when iscf=5, is not published.
 However, many elements of this algorithm have been explained in the paper above.
-
- Proc.   0 individual time (sec): cpu=          5.7  wall=          5.7

================================================================================

 Calculation completed.
.Delivered   13 WARNINGs and   9 COMMENTs to log file.
+Overall time at end (sec) : cpu=          5.7  wall=          5.7
