
.Version 7.10.4 of ABINIT 
.(MPI version, prepared for a x86_64_linux_gnu4.7 computer) 

.Copyright (C) 1998-2014 ABINIT group . 
 ABINIT comes with ABSOLUTELY NO WARRANTY.
 It is free software, and you are welcome to redistribute it
 under certain conditions (GNU General Public License,
 see ~abinit/COPYING or http://www.gnu.org/copyleft/gpl.txt).

 ABINIT is a project of the Universite Catholique de Louvain,
 Corning Inc. and other collaborators, see ~abinit/doc/developers/contributors.txt .
 Please read ~abinit/doc/users/acknowledgments.html for suggested
 acknowledgments of the ABINIT effort.
 For more information, see http://www.abinit.org .

.Starting date : Sun  1 Feb 2015.
- ( at 15h02 )
  
- input  file    -> tnlo_1.in
- output file    -> tnlo_1.out
- root for input  files -> tnlo_1i
- root for output files -> tnlo_1o


 Symmetries : space group F-4 3 m (#216); Bravais cF (face-center cubic)
================================================================================
 Values of the parameters that define the memory need of the present run
   intxc =         0  ionmov =         3    iscf =         5 xclevel =         1
  lmnmax =         2   lnmax =         2   mband =         5  mffmem =         1
P  mgfft =        12   mkmem =        28 mpssoang=         3     mpw =        80
  mqgrid =      3001   natom =         2    nfft =      1728    nkpt =        28
  nloalg =         4  nspden =         1 nspinor =         1  nsppol =         1
    nsym =        24  n1xccc =      2501  ntypat =         2  occopt =         1
================================================================================
P This job should need less than                       1.447 Mbytes of memory.
  Rough estimation (10% accuracy) of disk space for files :
_ WF disk file :      0.173 Mbytes ; DEN or POT disk file :      0.015 Mbytes.
================================================================================

--------------------------------------------------------------------------------
------------- Echo of variables that govern the present computation ------------
--------------------------------------------------------------------------------
-
- outvars: echo of selected default values                                      
-   accesswff0 =  0 , fftalg0 =112 , wfoptalg0 =  0
-
- outvars: echo of global parameters not present in the input file              
-  max_nthreads =    0
-
 -outvars: echo values of preprocessed input variables --------
            acell      1.0530000000E+01  1.0530000000E+01  1.0530000000E+01 Bohr
              amu      2.69815390E+01  7.49215900E+01
          dilatmx      1.05000000E+00
             ecut      2.80000000E+00 Hartree
           ecutsm      5.00000000E-01 Hartree
-          fftalg         112
           ionmov           3
             iscf           5
              ixc           3
              kpt     -8.33333333E-02 -1.66666667E-01  0.00000000E+00
                      -8.33333333E-02 -3.33333333E-01  0.00000000E+00
                      -1.66666667E-01 -2.50000000E-01  0.00000000E+00
                      -8.33333333E-02 -2.50000000E-01  8.33333333E-02
                      -8.33333333E-02  5.00000000E-01  0.00000000E+00
                      -1.66666667E-01 -4.16666667E-01  0.00000000E+00
                      -8.33333333E-02 -4.16666667E-01  8.33333333E-02
                      -2.50000000E-01 -3.33333333E-01  0.00000000E+00
                      -1.66666667E-01 -3.33333333E-01  8.33333333E-02
                      -8.33333333E-02 -3.33333333E-01  1.66666667E-01
                      -8.33333333E-02  3.33333333E-01  0.00000000E+00
                      -1.66666667E-01  4.16666667E-01  0.00000000E+00
                      -2.50000000E-01  5.00000000E-01  0.00000000E+00
                      -1.66666667E-01  5.00000000E-01  8.33333333E-02
                      -3.33333333E-01 -4.16666667E-01  0.00000000E+00
                      -2.50000000E-01 -4.16666667E-01  8.33333333E-02
                      -1.66666667E-01 -4.16666667E-01  1.66666667E-01
                      -8.33333333E-02 -4.16666667E-01  2.50000000E-01
                      -8.33333333E-02  1.66666667E-01  0.00000000E+00
                      -1.66666667E-01  2.50000000E-01  0.00000000E+00
                      -2.50000000E-01  3.33333333E-01  0.00000000E+00
                      -3.33333333E-01  4.16666667E-01  0.00000000E+00
                      -4.16666667E-01  5.00000000E-01  0.00000000E+00
                      -3.33333333E-01  5.00000000E-01  8.33333333E-02
                      -2.50000000E-01  5.00000000E-01  1.66666667E-01
                      -8.33333333E-02  0.00000000E+00  0.00000000E+00
                      -2.50000000E-01  0.00000000E+00  0.00000000E+00
                      -4.16666667E-01  0.00000000E+00  0.00000000E+00
         kptrlatt        6   -6    6     -6    6    6     -6   -6    6
          kptrlen      6.31800000E+01
P           mkmem          28
            natom           2
            nband           5
            ngfft          12      12      12
             nkpt          28
            nstep         100
             nsym          24
            ntime         100
           ntypat           2
              occ      2.000000  2.000000  2.000000  2.000000  0.000000
          optcell           2
        optforces           1
            rprim      0.0000000000E+00  5.0000000000E-01  5.0000000000E-01
                       5.0000000000E-01  0.0000000000E+00  5.0000000000E-01
                       5.0000000000E-01  5.0000000000E-01  0.0000000000E+00
           shiftk      5.00000000E-01  5.00000000E-01  5.00000000E-01
          spgroup         216
           symrel      1  0  0   0  1  0   0  0  1       0 -1  1   0 -1  0   1 -1  0
                      -1  0  0  -1  0  1  -1  1  0       0  1 -1   1  0 -1   0  0 -1
                      -1  0  0  -1  1  0  -1  0  1       0 -1  1   1 -1  0   0 -1  0
                       1  0  0   0  0  1   0  1  0       0  1 -1   0  0 -1   1  0 -1
                      -1  0  1  -1  1  0  -1  0  0       0 -1  0   1 -1  0   0 -1  1
                       1  0 -1   0  0 -1   0  1 -1       0  1  0   0  0  1   1  0  0
                       1  0 -1   0  1 -1   0  0 -1       0 -1  0   0 -1  1   1 -1  0
                      -1  0  1  -1  0  0  -1  1  0       0  1  0   1  0  0   0  0  1
                       0  0 -1   0  1 -1   1  0 -1       1 -1  0   0 -1  1   0 -1  0
                       0  0  1   1  0  0   0  1  0      -1  1  0  -1  0  0  -1  0  1
                       0  0  1   0  1  0   1  0  0       1 -1  0   0 -1  0   0 -1  1
                       0  0 -1   1  0 -1   0  1 -1      -1  1  0  -1  0  1  -1  0  0
           tolmxf      5.00000000E-06
           tolvrs      1.00000000E-15
            typat      1  2
              wtk        0.02778    0.02778    0.02778    0.05556    0.02778    0.02778
                         0.05556    0.02778    0.05556    0.05556    0.02778    0.02778
                         0.02778    0.05556    0.02778    0.05556    0.05556    0.05556
                         0.02778    0.02778    0.02778    0.02778    0.02778    0.05556
                         0.05556    0.00926    0.00926    0.00926
           xangst      0.0000000000E+00  0.0000000000E+00  0.0000000000E+00
                       1.3930590016E+00  1.3930590016E+00  1.3930590016E+00
            xcart      0.0000000000E+00  0.0000000000E+00  0.0000000000E+00
                       2.6325000000E+00  2.6325000000E+00  2.6325000000E+00
             xred      0.0000000000E+00  0.0000000000E+00  0.0000000000E+00
                       2.5000000000E-01  2.5000000000E-01  2.5000000000E-01
            znucl       13.00000   33.00000

================================================================================

 chkinp: Checking input parameters for consistency.

================================================================================
== DATASET  1 ==================================================================
-   nproc =    1

 Exchange-correlation functional for the present dataset will be:
  LDA: old Teter (4/91) fit to Ceperley-Alder data - ixc=3

 Real(R)+Recip(G) space primitive vectors, cartesian coordinates (Bohr,Bohr^-1):
 R(1)=  0.0000000  5.2650000  5.2650000  G(1)= -0.0949668  0.0949668  0.0949668
 R(2)=  5.2650000  0.0000000  5.2650000  G(2)=  0.0949668 -0.0949668  0.0949668
 R(3)=  5.2650000  5.2650000  0.0000000  G(3)=  0.0949668  0.0949668 -0.0949668
 Unit cell volume ucvol=  2.9189397E+02 bohr^3
 Angles (23,13,12)=  6.00000000E+01  6.00000000E+01  6.00000000E+01 degrees

 getcut: wavevector=  0.0000  0.0000  0.0000  ngfft=  12  12  12
         ecut(hartree)=      3.087   => boxcut(ratio)=   2.03767

--- Pseudopotential description ------------------------------------------------
- pspini: atom type   1  psp file is /data/ABINIT/testf_gcc47/trunk_7.10.4-training/tests/Psps_for_tests/13al.pspnc
- pspatm: opening atomic psp file    /data/ABINIT/testf_gcc47/trunk_7.10.4-training/tests/Psps_for_tests/13al.pspnc
-  Troullier-Martins psp for element  Al        Thu Oct 27 17:31:05 EDT 1994
- 13.00000   3.00000    940714                znucl, zion, pspdat
    1    1    2    2      2001   0.00000      pspcod,pspxc,lmax,lloc,mmax,r2well
    0   4.657  11.889    1   2.2761078        l,e99.0,e99.9,nproj,rcpsp
   0.00000000   0.00000000   0.00000000   0.00000000     rms, ekb1, ekb2, epsatm
    1   1.829   2.761    1   2.2761078        l,e99.0,e99.9,nproj,rcpsp
   0.00000000   0.00000000   0.00000000   0.00000000     rms, ekb1, ekb2, epsatm
    2   0.000   0.000    0   2.2761078        l,e99.0,e99.9,nproj,rcpsp
   0.00000000   0.00000000   0.00000000   0.00000000     rms, ekb1, ekb2, epsatm
    2.09673076353074    0.12648111154518    1.01742091001718   rchrg,fchrg,qchrg
 pspatm: epsatm=    0.22155260
         --- l  ekb(1:nproj) -->
             0    2.540658
             1    1.353815
 pspatm: atomic psp has been read  and splines computed

- pspini: atom type   2  psp file is /data/ABINIT/testf_gcc47/trunk_7.10.4-training/tests/Psps_for_tests/33as.pspnc
- pspatm: opening atomic psp file    /data/ABINIT/testf_gcc47/trunk_7.10.4-training/tests/Psps_for_tests/33as.pspnc
-  Troullier-Martins psp for element  As        Thu Oct 27 17:37:14 EDT 1994
- 33.00000   5.00000    940714                znucl, zion, pspdat
    1    1    1    1      2001   0.00000      pspcod,pspxc,lmax,lloc,mmax,r2well
    0   4.772  10.829    1   2.5306160        l,e99.0,e99.9,nproj,rcpsp
   0.00000000   0.00000000   0.00000000   0.00000000     rms, ekb1, ekb2, epsatm
    1   2.745   5.580    0   2.5306160        l,e99.0,e99.9,nproj,rcpsp
   0.00000000   0.00000000   0.00000000   0.00000000     rms, ekb1, ekb2, epsatm
    2.05731715564010    0.36322996461007    2.76014815959125   rchrg,fchrg,qchrg
 pspatm: epsatm=   27.20579911
         --- l  ekb(1:nproj) -->
             0    0.838751
 pspatm: atomic psp has been read  and splines computed

   2.19418814E+02                                ecore*ucvol(ha*bohr**3)
--------------------------------------------------------------------------------

P newkpt: treating      5 bands with npw=      68 for ikpt=   1 by node    0
P newkpt: treating      5 bands with npw=      74 for ikpt=   2 by node    0
P newkpt: treating      5 bands with npw=      74 for ikpt=   3 by node    0
P newkpt: treating      5 bands with npw=      73 for ikpt=   4 by node    0
P newkpt: treating      5 bands with npw=      74 for ikpt=   5 by node    0
P newkpt: treating      5 bands with npw=      75 for ikpt=   6 by node    0
P newkpt: treating      5 bands with npw=      76 for ikpt=   7 by node    0
P newkpt: treating      5 bands with npw=      77 for ikpt=   8 by node    0
P newkpt: treating      5 bands with npw=      77 for ikpt=   9 by node    0
P newkpt: treating      5 bands with npw=      75 for ikpt=  10 by node    0
P newkpt: treating      5 bands with npw=      74 for ikpt=  11 by node    0
P newkpt: treating      5 bands with npw=      79 for ikpt=  12 by node    0
P newkpt: treating      5 bands with npw=      77 for ikpt=  13 by node    0
P newkpt: treating      5 bands with npw=      78 for ikpt=  14 by node    0
P newkpt: treating      5 bands with npw=      79 for ikpt=  15 by node    0
P newkpt: treating      5 bands with npw=      80 for ikpt=  16 by node    0
P newkpt: treating      5 bands with npw=      77 for ikpt=  17 by node    0
P newkpt: treating      5 bands with npw=      77 for ikpt=  18 by node    0
P newkpt: treating      5 bands with npw=      69 for ikpt=  19 by node    0
P newkpt: treating      5 bands with npw=      75 for ikpt=  20 by node    0
P newkpt: treating      5 bands with npw=      75 for ikpt=  21 by node    0
P newkpt: treating      5 bands with npw=      74 for ikpt=  22 by node    0
P newkpt: treating      5 bands with npw=      75 for ikpt=  23 by node    0
P newkpt: treating      5 bands with npw=      77 for ikpt=  24 by node    0
P newkpt: treating      5 bands with npw=      76 for ikpt=  25 by node    0
P newkpt: treating      5 bands with npw=      65 for ikpt=  26 by node    0
P newkpt: treating      5 bands with npw=      74 for ikpt=  27 by node    0
P newkpt: treating      5 bands with npw=      73 for ikpt=  28 by node    0

_setup2: Arith. and geom. avg. npw (full set) are      75.602      75.552

================================================================================

=== [ionmov= 3] Broyden-Fletcher-Goldfard-Shanno method (forces,Tot energy) 
================================================================================

--- Iteration: (  1/100) Internal Cycle: (1/1)
--------------------------------------------------------------------------------

---SELF-CONSISTENT-FIELD CONVERGENCE--------------------------------------------

     iter   Etot(hartree)      deltaE(h)  residm     vres2    diffor    maxfor
 ETOT  1  -10.081663941621    -1.008E+01 8.737E-03 9.294E-01 0.000E+00 0.000E+00
 ETOT  2  -10.085672066211    -4.008E-03 2.846E-05 2.460E-02 1.046E-28 1.046E-28
 ETOT  3  -10.085763473175    -9.141E-05 8.244E-06 1.961E-03 1.211E-28 1.652E-29
 ETOT  4  -10.085768995666    -5.522E-06 3.773E-07 1.245E-04 1.732E-29 1.279E-29
 ETOT  5  -10.085768460526     5.351E-07 5.432E-08 3.139E-04 1.508E-29 2.292E-30
 ETOT  6  -10.085769157495    -6.970E-07 9.201E-08 4.428E-05 3.890E-30 4.795E-30
 ETOT  7  -10.085769240437    -8.294E-08 4.486E-09 2.719E-06 4.243E-30 5.841E-30
 ETOT  8  -10.085769245771    -5.334E-09 6.656E-10 2.196E-07 5.791E-30 4.994E-32
 ETOT  9  -10.085769246147    -3.756E-10 1.914E-10 3.289E-09 3.496E-31 2.997E-31
 ETOT 10  -10.085769246152    -5.144E-12 1.561E-11 4.808E-10 2.997E-31 0.000E+00
 ETOT 11  -10.085769246152     1.954E-14 3.490E-12 3.871E-10 4.994E-32 4.994E-32
 ETOT 12  -10.085769246153    -7.674E-13 2.889E-13 4.050E-11 1.280E-31 7.804E-32
 ETOT 13  -10.085769246153    -5.862E-14 9.307E-14 5.890E-14 7.804E-32 0.000E+00
 ETOT 14  -10.085769246153     5.329E-15 7.378E-15 4.573E-14 0.000E+00 0.000E+00
 ETOT 15  -10.085769246153     2.487E-14 1.961E-15 3.613E-15 0.000E+00 0.000E+00
 ETOT 16  -10.085769246153    -2.309E-14 1.788E-16 1.508E-16 0.000E+00 0.000E+00

 At SCF step   16       vres2   =  1.51E-16 < tolvrs=  1.00E-15 =>converged.

 Cartesian components of stress tensor (hartree/bohr^3)
  sigma(1 1)= -3.11098574E-06  sigma(3 2)=  0.00000000E+00
  sigma(2 2)= -3.11098574E-06  sigma(3 1)=  0.00000000E+00
  sigma(3 3)= -3.11098574E-06  sigma(2 1)=  0.00000000E+00


---OUTPUT-----------------------------------------------------------------------

 Cartesian coordinates (xcart) [bohr]
  0.00000000000000E+00  0.00000000000000E+00  0.00000000000000E+00
  2.63250000000000E+00  2.63250000000000E+00  2.63250000000000E+00
 Reduced coordinates (xred)
  0.00000000000000E+00  0.00000000000000E+00  0.00000000000000E+00
  2.50000000000000E-01  2.50000000000000E-01  2.50000000000000E-01
 Cartesian forces (fcart) [Ha/bohr]; max,rms= 0.00000E+00 0.00000E+00 (free atoms)
 -0.00000000000000E+00 -0.00000000000000E+00 -0.00000000000000E+00
 -0.00000000000000E+00 -0.00000000000000E+00 -0.00000000000000E+00
 Reduced forces (fred)
  0.00000000000000E+00  0.00000000000000E+00  0.00000000000000E+00
  0.00000000000000E+00  0.00000000000000E+00  0.00000000000000E+00
 Scale of Primitive Cell (acell) [bohr]
  1.05300000000000E+01  1.05300000000000E+01  1.05300000000000E+01
 Real space primitive translations (rprimd) [bohr]
  0.00000000000000E+00  5.26500000000000E+00  5.26500000000000E+00
  5.26500000000000E+00  0.00000000000000E+00  5.26500000000000E+00
  5.26500000000000E+00  5.26500000000000E+00  0.00000000000000E+00
 Unitary Cell Volume (ucvol) [Bohr^3]=  2.91893969250000E+02
 Angles (23,13,12)= [degrees]
  6.00000000000000E+01  6.00000000000000E+01  6.00000000000000E+01
 Lengths [Bohr]
  7.44583440589434E+00  7.44583440589434E+00  7.44583440589434E+00
 Stress tensor in cartesian coordinates (strten) [Ha/bohr^3]
 -3.11098574177441E-06  0.00000000000000E+00  0.00000000000000E+00
  0.00000000000000E+00 -3.11098574177441E-06  0.00000000000000E+00
  0.00000000000000E+00  0.00000000000000E+00 -3.11098574177354E-06
 Total energy (etotal) [Ha]= -1.00857692461529E+01

--- Iteration: (  2/100) Internal Cycle: (1/1)
--------------------------------------------------------------------------------

---SELF-CONSISTENT-FIELD CONVERGENCE--------------------------------------------

     iter   Etot(hartree)      deltaE(h)  residm     vres2    diffor    maxfor
 ETOT  1  -10.085769447472    -1.009E+01 1.699E-09 4.937E-06 0.000E+00 0.000E+00
 ETOT  2  -10.085769466992    -1.952E-08 2.154E-11 2.676E-07 7.491E-31 7.491E-31
 ETOT  3  -10.085769467400    -4.081E-10 1.599E-11 2.381E-07 5.993E-31 2.996E-31
 ETOT  4  -10.085769468007    -6.075E-10 2.801E-11 1.979E-08 2.996E-31 1.998E-31
 ETOT  5  -10.085769468052    -4.474E-11 2.555E-12 2.185E-09 1.998E-31 0.000E+00
 ETOT  6  -10.085769468054    -2.531E-12 3.562E-13 1.580E-10 0.000E+00 0.000E+00
 ETOT  7  -10.085769468055    -3.020E-13 1.708E-13 4.506E-12 0.000E+00 0.000E+00
 ETOT  8  -10.085769468055     2.487E-14 1.056E-14 7.281E-13 0.000E+00 0.000E+00
 ETOT  9  -10.085769468055     1.776E-14 5.078E-15 5.881E-14 0.000E+00 0.000E+00
 ETOT 10  -10.085769468055    -5.684E-14 3.171E-16 9.559E-15 0.000E+00 0.000E+00
 ETOT 11  -10.085769468055     3.553E-15 1.372E-16 4.411E-15 0.000E+00 0.000E+00
 ETOT 12  -10.085769468055     3.375E-14 9.837E-18 5.538E-16 0.000E+00 0.000E+00

 At SCF step   12       vres2   =  5.54E-16 < tolvrs=  1.00E-15 =>converged.

 Cartesian components of stress tensor (hartree/bohr^3)
  sigma(1 1)= -2.31877479E-06  sigma(3 2)=  0.00000000E+00
  sigma(2 2)= -2.31877479E-06  sigma(3 1)=  0.00000000E+00
  sigma(3 3)= -2.31877479E-06  sigma(2 1)=  0.00000000E+00


---OUTPUT-----------------------------------------------------------------------

 Cartesian coordinates (xcart) [bohr]
  0.00000000000000E+00  0.00000000000000E+00  0.00000000000000E+00
  2.63274569009896E+00  2.63274569009896E+00  2.63274569009896E+00
 Reduced coordinates (xred)
  0.00000000000000E+00  0.00000000000000E+00  0.00000000000000E+00
  2.50000000000000E-01  2.50000000000000E-01  2.50000000000000E-01
 Cartesian forces (fcart) [Ha/bohr]; max,rms= 0.00000E+00 0.00000E+00 (free atoms)
 -0.00000000000000E+00 -0.00000000000000E+00 -0.00000000000000E+00
 -0.00000000000000E+00 -0.00000000000000E+00 -0.00000000000000E+00
 Reduced forces (fred)
  0.00000000000000E+00  0.00000000000000E+00  0.00000000000000E+00
  0.00000000000000E+00  0.00000000000000E+00  0.00000000000000E+00
 Scale of Primitive Cell (acell) [bohr]
  7.44652932243451E+00  7.44652932243451E+00  7.44652932243451E+00
 Real space primitive translations (rprimd) [bohr]
  0.00000000000000E+00  5.26549138019791E+00  5.26549138019791E+00
  5.26549138019791E+00  0.00000000000000E+00  5.26549138019791E+00
  5.26549138019791E+00  5.26549138019791E+00  0.00000000000000E+00
 Unitary Cell Volume (ucvol) [Bohr^3]=  2.91975703895665E+02
 Angles (23,13,12)= [degrees]
  6.00000000000000E+01  6.00000000000000E+01  6.00000000000000E+01
 Lengths [Bohr]
  7.44652932243451E+00  7.44652932243451E+00  7.44652932243451E+00
 Stress tensor in cartesian coordinates (strten) [Ha/bohr^3]
 -2.31877479266087E-06  0.00000000000000E+00  0.00000000000000E+00
  0.00000000000000E+00 -2.31877479266087E-06  0.00000000000000E+00
  0.00000000000000E+00  0.00000000000000E+00 -2.31877479266044E-06
 Total energy (etotal) [Ha]= -1.00857694680546E+01

 Difference of energy with previous step (new-old):
           Absolute (Ha)=-2.21902E-07
           Relative     =-2.20015E-08

--- Iteration: (  3/100) Internal Cycle: (1/1)
--------------------------------------------------------------------------------

---SELF-CONSISTENT-FIELD CONVERGENCE--------------------------------------------

     iter   Etot(hartree)      deltaE(h)  residm     vres2    diffor    maxfor
 ETOT  1  -10.085769567762    -1.009E+01 9.982E-09 4.255E-05 0.000E+00 0.000E+00
 ETOT  2  -10.085769735992    -1.682E-07 1.396E-10 2.325E-06 9.985E-32 9.985E-32
 ETOT  3  -10.085769739621    -3.629E-09 1.421E-10 2.055E-06 1.098E-30 1.198E-30
 ETOT  4  -10.085769744866    -5.245E-09 2.419E-10 1.700E-07 1.198E-30 0.000E+00
 ETOT  5  -10.085769745251    -3.852E-10 2.178E-11 1.887E-08 1.598E-30 1.598E-30
 ETOT  6  -10.085769745273    -2.183E-11 3.083E-12 1.361E-09 3.595E-30 1.997E-30
 ETOT  7  -10.085769745276    -2.588E-12 1.451E-12 3.907E-11 1.797E-30 1.997E-31
 ETOT  8  -10.085769745276    -1.616E-13 9.140E-14 6.347E-12 1.997E-31 0.000E+00
 ETOT  9  -10.085769745276    -1.421E-14 4.324E-14 5.177E-13 0.000E+00 0.000E+00
 ETOT 10  -10.085769745276     5.329E-15 2.754E-15 8.464E-14 0.000E+00 0.000E+00
 ETOT 11  -10.085769745276     5.329E-15 1.170E-15 3.780E-14 0.000E+00 0.000E+00
 ETOT 12  -10.085769745276    -3.553E-15 8.541E-17 4.750E-15 0.000E+00 0.000E+00
 ETOT 13  -10.085769745276    -3.553E-15 4.845E-17 3.034E-18 0.000E+00 0.000E+00

 At SCF step   13       vres2   =  3.03E-18 < tolvrs=  1.00E-15 =>converged.

 Cartesian components of stress tensor (hartree/bohr^3)
  sigma(1 1)=  8.29919058E-09  sigma(3 2)=  0.00000000E+00
  sigma(2 2)=  8.29919058E-09  sigma(3 1)=  0.00000000E+00
  sigma(3 3)=  8.29919058E-09  sigma(2 1)=  0.00000000E+00


---OUTPUT-----------------------------------------------------------------------

 Cartesian coordinates (xcart) [bohr]
  0.00000000000000E+00  0.00000000000000E+00  0.00000000000000E+00
  2.63346663462564E+00  2.63346663462564E+00  2.63346663462564E+00
 Reduced coordinates (xred)
  0.00000000000000E+00  0.00000000000000E+00  0.00000000000000E+00
  2.50000000000000E-01  2.50000000000000E-01  2.50000000000000E-01
 Cartesian forces (fcart) [Ha/bohr]; max,rms= 0.00000E+00 0.00000E+00 (free atoms)
 -0.00000000000000E+00 -0.00000000000000E+00 -0.00000000000000E+00
 -0.00000000000000E+00 -0.00000000000000E+00 -0.00000000000000E+00
 Reduced forces (fred)
  0.00000000000000E+00  0.00000000000000E+00  0.00000000000000E+00
  0.00000000000000E+00  0.00000000000000E+00  0.00000000000000E+00
 Scale of Primitive Cell (acell) [bohr]
  7.44856846148923E+00  7.44856846148923E+00  7.44856846148923E+00
 Real space primitive translations (rprimd) [bohr]
  0.00000000000000E+00  5.26693326925128E+00  5.26693326925128E+00
  5.26693326925128E+00  0.00000000000000E+00  5.26693326925128E+00
  5.26693326925128E+00  5.26693326925128E+00  0.00000000000000E+00
 Unitary Cell Volume (ucvol) [Bohr^3]=  2.92215631284811E+02
 Angles (23,13,12)= [degrees]
  6.00000000000000E+01  6.00000000000000E+01  6.00000000000000E+01
 Lengths [Bohr]
  7.44856846148923E+00  7.44856846148923E+00  7.44856846148923E+00
 Stress tensor in cartesian coordinates (strten) [Ha/bohr^3]
  8.29919057955542E-09  0.00000000000000E+00  0.00000000000000E+00
  0.00000000000000E+00  8.29919057998910E-09  0.00000000000000E+00
  0.00000000000000E+00  0.00000000000000E+00  8.29919057912173E-09
 Total energy (etotal) [Ha]= -1.00857697452760E+01

 Difference of energy with previous step (new-old):
           Absolute (Ha)=-2.77221E-07
           Relative     =-2.74864E-08

 At Broyd/MD step   3, gradients are converged : 
  max grad (force/stress) = 8.2992E-07 < tolmxf= 5.0000E-06 ha/bohr (free atoms)

================================================================================

 ----iterations are completed or convergence reached----

 Mean square residual over all n,k,spin=   4.1221E-19; max=  4.8452E-17
  -0.0833 -0.1667  0.0000    1  4.84521E-17 kpt; spin; max resid(k); each band:
  2.76E-20 5.51E-20 7.81E-22 4.88E-21 4.85E-17
  -0.0833 -0.3333  0.0000    1  7.52818E-20 kpt; spin; max resid(k); each band:
  1.11E-20 4.00E-20 9.47E-22 5.89E-21 7.53E-20
  -0.1667 -0.2500  0.0000    1  1.85861E-19 kpt; spin; max resid(k); each band:
  1.56E-20 4.83E-20 3.78E-21 5.40E-22 1.86E-19
  -0.0833 -0.2500  0.0833    1  2.97486E-19 kpt; spin; max resid(k); each band:
  1.59E-20 5.42E-20 8.12E-21 3.38E-21 2.97E-19
  -0.0833  0.5000  0.0000    1  5.53763E-20 kpt; spin; max resid(k); each band:
  1.95E-21 1.53E-20 3.02E-21 1.19E-21 5.54E-20
  -0.1667 -0.4167  0.0000    1  1.51691E-19 kpt; spin; max resid(k); each band:
  1.24E-20 8.07E-20 3.38E-20 7.80E-22 1.52E-19
  -0.0833 -0.4167  0.0833    1  3.02803E-19 kpt; spin; max resid(k); each band:
  3.89E-21 3.17E-20 8.68E-21 9.62E-21 3.03E-19
  -0.2500 -0.3333  0.0000    1  1.75050E-19 kpt; spin; max resid(k); each band:
  2.03E-20 4.36E-20 1.71E-20 4.54E-22 1.75E-19
  -0.1667 -0.3333  0.0833    1  2.27120E-19 kpt; spin; max resid(k); each band:
  1.87E-20 7.29E-20 2.55E-20 2.77E-20 2.27E-19
  -0.0833 -0.3333  0.1667    1  5.68833E-19 kpt; spin; max resid(k); each band:
  9.38E-21 6.81E-20 4.75E-20 2.15E-20 5.69E-19
  -0.0833  0.3333  0.0000    1  4.48057E-20 kpt; spin; max resid(k); each band:
  6.03E-21 2.01E-20 5.51E-21 5.40E-22 4.48E-20
  -0.1667  0.4167  0.0000    1  1.51883E-19 kpt; spin; max resid(k); each band:
  1.69E-21 6.26E-20 3.98E-20 8.18E-22 1.52E-19
  -0.2500  0.5000  0.0000    1  1.93654E-19 kpt; spin; max resid(k); each band:
  8.11E-21 8.21E-20 1.05E-19 5.48E-22 1.94E-19
  -0.1667  0.5000  0.0833    1  2.39882E-19 kpt; spin; max resid(k); each band:
  1.78E-21 9.47E-20 6.49E-20 3.59E-20 2.40E-19
  -0.3333 -0.4167  0.0000    1  1.80354E-19 kpt; spin; max resid(k); each band:
  2.31E-20 2.27E-20 5.02E-20 3.59E-22 1.80E-19
  -0.2500 -0.4167  0.0833    1  2.64713E-19 kpt; spin; max resid(k); each band:
  1.63E-20 5.09E-20 8.48E-20 6.19E-20 2.65E-19
  -0.1667 -0.4167  0.1667    1  4.90990E-19 kpt; spin; max resid(k); each band:
  7.39E-21 1.01E-19 1.02E-19 1.31E-19 4.91E-19
  -0.0833 -0.4167  0.2500    1  2.26535E-19 kpt; spin; max resid(k); each band:
  6.04E-22 6.84E-20 1.51E-19 4.38E-20 2.27E-19
  -0.0833  0.1667  0.0000    1  1.14900E-19 kpt; spin; max resid(k); each band:
  2.02E-20 4.42E-20 4.78E-21 6.24E-22 1.15E-19
  -0.1667  0.2500  0.0000    1  1.08133E-19 kpt; spin; max resid(k); each band:
  7.51E-21 2.29E-20 1.51E-20 2.96E-22 1.08E-19
  -0.2500  0.3333  0.0000    1  1.72007E-19 kpt; spin; max resid(k); each band:
  4.13E-21 8.40E-20 9.44E-20 6.18E-22 1.72E-19
  -0.3333  0.4167  0.0000    1  2.19167E-19 kpt; spin; max resid(k); each band:
  3.54E-21 3.18E-20 1.91E-19 3.72E-22 2.19E-19
  -0.4167  0.5000  0.0000    1  1.78737E-19 kpt; spin; max resid(k); each band:
  2.09E-20 4.23E-21 7.88E-20 2.56E-22 1.79E-19
  -0.3333  0.5000  0.0833    1  2.89260E-19 kpt; spin; max resid(k); each band:
  1.11E-20 1.02E-20 1.58E-19 7.09E-20 2.89E-19
  -0.2500  0.5000  0.1667    1  3.83589E-19 kpt; spin; max resid(k); each band:
  2.33E-21 2.50E-20 1.63E-19 1.79E-19 3.84E-19
  -0.0833  0.0000  0.0000    1  1.62917E-19 kpt; spin; max resid(k); each band:
  4.57E-20 4.92E-20 2.26E-22 2.26E-22 1.63E-19
  -0.2500  0.0000  0.0000    1  4.67808E-20 kpt; spin; max resid(k); each band:
  1.45E-20 3.94E-20 8.78E-22 8.78E-22 4.68E-20
  -0.4167  0.0000  0.0000    1  1.48120E-20 kpt; spin; max resid(k); each band:
  3.81E-21 1.48E-20 1.04E-21 1.04E-21 1.25E-20
 reduced coordinates (array xred) for    2 atoms
       0.000000000000      0.000000000000      0.000000000000
       0.250000000000      0.250000000000      0.250000000000
 rms dE/dt=  0.0000E+00; max dE/dt=  0.0000E+00; dE/dt below (all hartree)
    1       0.000000000000      0.000000000000      0.000000000000
    2       0.000000000000      0.000000000000      0.000000000000

 cartesian coordinates (angstrom) at end:
    1      0.00000000000000     0.00000000000000     0.00000000000000
    2      1.39357052262610     1.39357052262610     1.39357052262610

 cartesian forces (hartree/bohr) at end:
    1     -0.00000000000000    -0.00000000000000    -0.00000000000000
    2     -0.00000000000000    -0.00000000000000    -0.00000000000000
 frms,max,avg= 0.0000000E+00 0.0000000E+00   0.000E+00  0.000E+00  0.000E+00 h/b

 cartesian forces (eV/Angstrom) at end:
    1     -0.00000000000000    -0.00000000000000    -0.00000000000000
    2     -0.00000000000000    -0.00000000000000    -0.00000000000000
 frms,max,avg= 0.0000000E+00 0.0000000E+00   0.000E+00  0.000E+00  0.000E+00 e/A
 length scales=  7.448568461489  7.448568461489  7.448568461489 bohr
              =  3.941612666442  3.941612666442  3.941612666442 angstroms
 prteigrs : about to open file tnlo_1o_EIG
 Fermi (or HOMO) energy (hartree) =   0.09055   Average Vxc (hartree)=  -0.34847
 Eigenvalues (hartree) for nkpt=  28  k points:
 kpt#   1, nband=  5, wtk=  0.02778, kpt= -0.0833 -0.1667  0.0000 (reduced coord)
  -0.34045   0.02813   0.07395   0.07828   0.22105
 kpt#   2, nband=  5, wtk=  0.02778, kpt= -0.0833 -0.3333  0.0000 (reduced coord)
  -0.31627  -0.06164   0.05874   0.05993   0.20434
 kpt#   3, nband=  5, wtk=  0.02778, kpt= -0.1667 -0.2500  0.0000 (reduced coord)
  -0.32707  -0.01117   0.05196   0.05242   0.20295
 kpt#   4, nband=  5, wtk=  0.05556, kpt= -0.0833 -0.2500  0.0833 (reduced coord)
  -0.32137  -0.03551   0.03392   0.06843   0.22599
 kpt#   5, nband=  5, wtk=  0.02778, kpt= -0.0833  0.5000  0.0000 (reduced coord)
  -0.29352  -0.11372   0.04512   0.05727   0.19454
 kpt#   6, nband=  5, wtk=  0.02778, kpt= -0.1667 -0.4167  0.0000 (reduced coord)
  -0.30065  -0.08223   0.02462   0.04308   0.20234
 kpt#   7, nband=  5, wtk=  0.05556, kpt= -0.0833 -0.4167  0.0833 (reduced coord)
  -0.29479  -0.10011   0.02000   0.05191   0.21628
 kpt#   8, nband=  5, wtk=  0.02778, kpt= -0.2500 -0.3333  0.0000 (reduced coord)
  -0.30841  -0.04767   0.02720   0.03330   0.17929
 kpt#   9, nband=  5, wtk=  0.05556, kpt= -0.1667 -0.3333  0.0833 (reduced coord)
  -0.30407  -0.06283   0.01120   0.04082   0.20716
 kpt#  10, nband=  5, wtk=  0.05556, kpt= -0.0833 -0.3333  0.1667 (reduced coord)
  -0.29601  -0.08032  -0.01071   0.04905   0.23412
 kpt#  11, nband=  5, wtk=  0.02778, kpt= -0.0833  0.3333  0.0000 (reduced coord)
  -0.30673  -0.08560   0.04275   0.06828   0.20055
 kpt#  12, nband=  5, wtk=  0.02778, kpt= -0.1667  0.4167  0.0000 (reduced coord)
  -0.28850  -0.10766   0.00578   0.05036   0.20623
 kpt#  13, nband=  5, wtk=  0.02778, kpt= -0.2500  0.5000  0.0000 (reduced coord)
  -0.28483  -0.09393  -0.01202   0.03086   0.18353
 kpt#  14, nband=  5, wtk=  0.05556, kpt= -0.1667  0.5000  0.0833 (reduced coord)
  -0.28385  -0.10246  -0.01036   0.03345   0.21218
 kpt#  15, nband=  5, wtk=  0.02778, kpt= -0.3333 -0.4167  0.0000 (reduced coord)
  -0.28847  -0.08099   0.00881   0.01915   0.15967
 kpt#  16, nband=  5, wtk=  0.05556, kpt= -0.2500 -0.4167  0.0833 (reduced coord)
  -0.28590  -0.08499  -0.00821   0.01784   0.18769
 kpt#  17, nband=  5, wtk=  0.05556, kpt= -0.1667 -0.4167  0.1667 (reduced coord)
  -0.28177  -0.09102  -0.02577   0.01816   0.23611
 kpt#  18, nband=  5, wtk=  0.05556, kpt= -0.0833 -0.4167  0.2500 (reduced coord)
  -0.27749  -0.09520  -0.03787   0.02437   0.20336
 kpt#  19, nband=  5, wtk=  0.02778, kpt= -0.0833  0.1667  0.0000 (reduced coord)
  -0.33404  -0.00371   0.05766   0.08548   0.21759
 kpt#  20, nband=  5, wtk=  0.02778, kpt= -0.1667  0.2500  0.0000 (reduced coord)
  -0.31040  -0.06091   0.01027   0.07037   0.22851
 kpt#  21, nband=  5, wtk=  0.02778, kpt= -0.2500  0.3333  0.0000 (reduced coord)
  -0.28621  -0.09193  -0.02895   0.04630   0.20249
 kpt#  22, nband=  5, wtk=  0.02778, kpt= -0.3333  0.4167  0.0000 (reduced coord)
  -0.27437  -0.09717  -0.03677   0.02437   0.17210
 kpt#  23, nband=  5, wtk=  0.02778, kpt= -0.4167  0.5000  0.0000 (reduced coord)
  -0.27410  -0.10320  -0.00107   0.01142   0.14810
 kpt#  24, nband=  5, wtk=  0.05556, kpt= -0.3333  0.5000  0.0833 (reduced coord)
  -0.27321  -0.09885  -0.02044   0.00611   0.17658
 kpt#  25, nband=  5, wtk=  0.05556, kpt= -0.2500  0.5000  0.1667 (reduced coord)
  -0.27269  -0.09411  -0.03346  -0.00423   0.22818
 kpt#  26, nband=  5, wtk=  0.00926, kpt= -0.0833  0.0000  0.0000 (reduced coord)
  -0.34717   0.06505   0.09055   0.09055   0.20066
 kpt#  27, nband=  5, wtk=  0.00926, kpt= -0.2500  0.0000  0.0000 (reduced coord)
  -0.32800  -0.03344   0.07464   0.07464   0.19452
 kpt#  28, nband=  5, wtk=  0.00926, kpt= -0.4167  0.0000  0.0000 (reduced coord)
  -0.30036  -0.10572   0.06395   0.06395   0.17951
 Total charge density [el/Bohr^3]
,     Maximum=    9.1387E-02  at reduced coord.    0.1667    0.1667    0.5000
,Next maximum=    9.1387E-02  at reduced coord.    0.1667    0.5000    0.1667
,     Minimum=    3.1485E-03  at reduced coord.    0.7500    0.7500    0.7500
,Next minimum=    3.4933E-03  at reduced coord.    0.5000    0.5000    0.5000
,  Integrated=    8.0000E+00

--------------------------------------------------------------------------------
 Components of total free energy (in Hartree) :

    Kinetic energy  =  2.91758984678305E+00
    Hartree energy  =  7.61533005475654E-01
    XC energy       = -4.34890737631242E+00
    Ewald energy    = -8.54118423481990E+00
    PspCore energy  =  7.50879796182792E-01
    Loc. psp. energy= -2.29452809615879E+00
    NL   psp  energy=  6.68847313573626E-01
    >>>>>>>>> Etotal= -1.00857697452760E+01

 Other information on the energy :
    Total energy(eV)= -2.74447752062279E+02 ; Band energy (Ha)=  -6.5057409715E-01
--------------------------------------------------------------------------------

 Cartesian components of stress tensor (hartree/bohr^3)
  sigma(1 1)=  8.29919058E-09  sigma(3 2)=  0.00000000E+00
  sigma(2 2)=  8.29919058E-09  sigma(3 1)=  0.00000000E+00
  sigma(3 3)=  8.29919058E-09  sigma(2 1)=  0.00000000E+00

-Cartesian components of stress tensor (GPa)         [Pressure= -2.4417E-04 GPa]
- sigma(1 1)=  2.44170576E-04  sigma(3 2)=  0.00000000E+00
- sigma(2 2)=  2.44170576E-04  sigma(3 1)=  0.00000000E+00
- sigma(3 3)=  2.44170576E-04  sigma(2 1)=  0.00000000E+00

== END DATASET(S) ==============================================================
================================================================================
  
 -outvars: echo values of variables after computation  --------
            acell      7.4485684615E+00  7.4485684615E+00  7.4485684615E+00 Bohr
              amu      2.69815390E+01  7.49215900E+01
          dilatmx      1.05000000E+00
             ecut      2.80000000E+00 Hartree
           ecutsm      5.00000000E-01 Hartree
           etotal     -1.0085769745E+01
            fcart     -0.0000000000E+00 -0.0000000000E+00 -0.0000000000E+00
                      -0.0000000000E+00 -0.0000000000E+00 -0.0000000000E+00
-          fftalg         112
           ionmov           3
             iscf           5
              ixc           3
              kpt     -8.33333333E-02 -1.66666667E-01  0.00000000E+00
                      -8.33333333E-02 -3.33333333E-01  0.00000000E+00
                      -1.66666667E-01 -2.50000000E-01  0.00000000E+00
                      -8.33333333E-02 -2.50000000E-01  8.33333333E-02
                      -8.33333333E-02  5.00000000E-01  0.00000000E+00
                      -1.66666667E-01 -4.16666667E-01  0.00000000E+00
                      -8.33333333E-02 -4.16666667E-01  8.33333333E-02
                      -2.50000000E-01 -3.33333333E-01  0.00000000E+00
                      -1.66666667E-01 -3.33333333E-01  8.33333333E-02
                      -8.33333333E-02 -3.33333333E-01  1.66666667E-01
                      -8.33333333E-02  3.33333333E-01  0.00000000E+00
                      -1.66666667E-01  4.16666667E-01  0.00000000E+00
                      -2.50000000E-01  5.00000000E-01  0.00000000E+00
                      -1.66666667E-01  5.00000000E-01  8.33333333E-02
                      -3.33333333E-01 -4.16666667E-01  0.00000000E+00
                      -2.50000000E-01 -4.16666667E-01  8.33333333E-02
                      -1.66666667E-01 -4.16666667E-01  1.66666667E-01
                      -8.33333333E-02 -4.16666667E-01  2.50000000E-01
                      -8.33333333E-02  1.66666667E-01  0.00000000E+00
                      -1.66666667E-01  2.50000000E-01  0.00000000E+00
                      -2.50000000E-01  3.33333333E-01  0.00000000E+00
                      -3.33333333E-01  4.16666667E-01  0.00000000E+00
                      -4.16666667E-01  5.00000000E-01  0.00000000E+00
                      -3.33333333E-01  5.00000000E-01  8.33333333E-02
                      -2.50000000E-01  5.00000000E-01  1.66666667E-01
                      -8.33333333E-02  0.00000000E+00  0.00000000E+00
                      -2.50000000E-01  0.00000000E+00  0.00000000E+00
                      -4.16666667E-01  0.00000000E+00  0.00000000E+00
         kptrlatt        6   -6    6     -6    6    6     -6   -6    6
          kptrlen      6.31800000E+01
P           mkmem          28
            natom           2
            nband           5
            ngfft          12      12      12
             nkpt          28
            nstep         100
             nsym          24
            ntime         100
           ntypat           2
              occ      2.000000  2.000000  2.000000  2.000000  0.000000
          optcell           2
        optforces           1
            rprim      0.0000000000E+00  7.0710678119E-01  7.0710678119E-01
                       7.0710678119E-01  0.0000000000E+00  7.0710678119E-01
                       7.0710678119E-01  7.0710678119E-01  0.0000000000E+00
           shiftk      5.00000000E-01  5.00000000E-01  5.00000000E-01
          spgroup         216
           strten      8.2991905796E-09  8.2991905800E-09  8.2991905791E-09
                       0.0000000000E+00  0.0000000000E+00  0.0000000000E+00
           symrel      1  0  0   0  1  0   0  0  1       0 -1  1   0 -1  0   1 -1  0
                      -1  0  0  -1  0  1  -1  1  0       0  1 -1   1  0 -1   0  0 -1
                      -1  0  0  -1  1  0  -1  0  1       0 -1  1   1 -1  0   0 -1  0
                       1  0  0   0  0  1   0  1  0       0  1 -1   0  0 -1   1  0 -1
                      -1  0  1  -1  1  0  -1  0  0       0 -1  0   1 -1  0   0 -1  1
                       1  0 -1   0  0 -1   0  1 -1       0  1  0   0  0  1   1  0  0
                       1  0 -1   0  1 -1   0  0 -1       0 -1  0   0 -1  1   1 -1  0
                      -1  0  1  -1  0  0  -1  1  0       0  1  0   1  0  0   0  0  1
                       0  0 -1   0  1 -1   1  0 -1       1 -1  0   0 -1  1   0 -1  0
                       0  0  1   1  0  0   0  1  0      -1  1  0  -1  0  0  -1  0  1
                       0  0  1   0  1  0   1  0  0       1 -1  0   0 -1  0   0 -1  1
                       0  0 -1   1  0 -1   0  1 -1      -1  1  0  -1  0  1  -1  0  0
           tolmxf      5.00000000E-06
           tolvrs      1.00000000E-15
            typat      1  2
              wtk        0.02778    0.02778    0.02778    0.05556    0.02778    0.02778
                         0.05556    0.02778    0.05556    0.05556    0.02778    0.02778
                         0.02778    0.05556    0.02778    0.05556    0.05556    0.05556
                         0.02778    0.02778    0.02778    0.02778    0.02778    0.05556
                         0.05556    0.00926    0.00926    0.00926
           xangst      0.0000000000E+00  0.0000000000E+00  0.0000000000E+00
                       1.3935705226E+00  1.3935705226E+00  1.3935705226E+00
            xcart      0.0000000000E+00  0.0000000000E+00  0.0000000000E+00
                       2.6334666346E+00  2.6334666346E+00  2.6334666346E+00
             xred      0.0000000000E+00  0.0000000000E+00  0.0000000000E+00
                       2.5000000000E-01  2.5000000000E-01  2.5000000000E-01
            znucl       13.00000   33.00000

================================================================================


- Timing analysis has been suppressed with timopt=0



================================================================================

 Suggested references for the acknowledgment of ABINIT usage.

 The users of ABINIT have little formal obligations with respect to the ABINIT group
 (those specified in the GNU General Public License, http://www.gnu.org/copyleft/gpl.txt).
 However, it is common practice in the scientific literature,
 to acknowledge the efforts of people that have made the research possible.
 In this spirit, please find below suggested citations of work written by ABINIT developers,
 corresponding to implementations inside of ABINIT that you have used in the present run.
 Note also that it will be of great value to readers of publications presenting these results,
 to read papers enabling them to understand the theoretical formalism and details
 of the ABINIT implementation.
 For information on why they are suggested, see also http://www.abinit.org/about/?text=acknowledgments.

 [1] ABINIT : First-principles approach of materials and nanosystem properties.
 X. Gonze, B. Amadon, P.-M. Anglade, J.-M. Beuken, F. Bottin, P. Boulanger, F. Bruneval,
 D. Caliste, R. Caracas, M. Cote, T. Deutsch, L. Genovese, Ph. Ghosez, M. Giantomassi
 S. Goedecker, D.R. Hamann, P. Hermet, F. Jollet, G. Jomard, S. Leroux, M. Mancini, S. Mazevet,
 M.J.T. Oliveira, G. Onida, Y. Pouillon, T. Rangel, G.-M. Rignanese, D. Sangalli, R. Shaltaf,
 M. Torrent, M.J. Verstraete, G. Zerah, J.W. Zwanziger
 Computer Phys. Comm. 180, 2582-2615 (2009).
 Comment : the third generic paper describing the ABINIT project.
 Note that a version of this paper, that is not formatted for Computer Phys. Comm. 
 is available at http://www.abinit.org/about/ABINIT_CPC_v10.pdf .
 The licence allows the authors to put it on the Web.

 [2] A brief introduction to the ABINIT software package.
 X. Gonze, G.-M. Rignanese, M. Verstraete, J.-M. Beuken, Y. Pouillon, R. Caracas, F. Jollet,
 M. Torrent, G. Zerah, M. Mikami, Ph. Ghosez, M. Veithen, J.-Y. Raty, V. Olevano, F. Bruneval,
 L. Reining, R. Godby, G. Onida, D.R. Hamann, and D.C. Allan.
 Z. Kristallogr. 220, 558-562 (2005).
 Comment : the second generic paper describing the ABINIT project. Note that this paper
 should be cited especially if you are using the GW part of ABINIT, as several authors
 of this part are not in the list of authors of the first or third paper.
 The .pdf of the latter paper is available at http://www.abinit.org/about/zfk_0505-06_558-562.pdf.
 Note that it should not redistributed (Copyright by Oldenburg Wissenshaftverlag,
 the licence allows the authors to put it on the Web).


 And optionally :

 [3] First-principles computation of material properties : the ABINIT software project. 
 X. Gonze, J.-M. Beuken, R. Caracas, F. Detraux, M. Fuchs, G.-M. Rignanese, L. Sindic,
 M. Verstraete, G. Zerah, F. Jollet, M. Torrent, A. Roy, M. Mikami, Ph. Ghosez, J.-Y. Raty, D.C. Allan.
 Computational Materials Science 25, 478-492 (2002). http://dx.doi.org/10.1016/S0927-0256(02)00325-7
 Comment : the original paper describing the ABINIT project.

 [4] Fast radix 2, 3, 4 and 5 kernels for Fast Fourier Transformations
 on computers with overlapping multiply-add instructions.
 S. Goedecker, SIAM J. on Scientific Computing 18, 1605 (1997).

 [5] Towards a potential-based conjugate gradient algorithm for order-N self-consistent
 total energy calculations.
 X. Gonze, Phys. Rev. B 54, 4383 (1996).
 Comment : The potential-based conjugate-gradient algorithm, used when iscf=5, is not published.
 However, many elements of this algorithm have been explained in the paper above.
-
- Proc.   0 individual time (sec): cpu=          2.4  wall=          2.4

================================================================================

 Calculation completed.
.Delivered    2 WARNINGs and   0 COMMENTs to log file.
+Overall time at end (sec) : cpu=          2.4  wall=          2.4
