
.Version 7.9.3 of ABINIT 
.(MPI version, prepared for a x86_64_linux_gnu4.7 computer) 

.Copyright (C) 1998-2014 ABINIT group . 
 ABINIT comes with ABSOLUTELY NO WARRANTY.
 It is free software, and you are welcome to redistribute it
 under certain conditions (GNU General Public License,
 see ~abinit/COPYING or http://www.gnu.org/copyleft/gpl.txt).

 ABINIT is a project of the Universite Catholique de Louvain,
 Corning Inc. and other collaborators, see ~abinit/doc/developers/contributors.txt .
 Please read ~abinit/doc/users/acknowledgments.html for suggested
 acknowledgments of the ABINIT effort.
 For more information, see http://www.abinit.org .

.Starting date : Sat 30 Aug 2014.
- ( at 22h32 )
  
- input  file    -> t30.in
- output file    -> t30.out
- root for input  files -> t30i
- root for output files -> t30o


 DATASET    1 : space group Fd -3 m (#227); Bravais cF (face-center cubic)
================================================================================
 Values of the parameters that define the memory need for DATASET  1.
   intxc =         1  ionmov =         0    iscf =         5 xclevel =         1
  lmnmax =         2   lnmax =         2   mband =        15  mffmem =         1
P  mgfft =        16   mkmem =         2 mpssoang=         3     mpw =       188
  mqgrid =      3001   natom =         2    nfft =      4096    nkpt =         2
  nloalg =         4  nspden =         1 nspinor =         1  nsppol =         1
    nsym =        48  n1xccc =      2501  ntypat =         1  occopt =         1
================================================================================
P This job should need less than                       1.654 Mbytes of memory.
  Rough estimation (10% accuracy) of disk space for files :
_ WF disk file :      0.088 Mbytes ; DEN or POT disk file :      0.033 Mbytes.
================================================================================


 DATASET    2 : space group Fd -3 m (#227); Bravais cF (face-center cubic)
================================================================================
 Values of the parameters that define the memory need for DATASET  2.
   intxc =         1  ionmov =         0    iscf =         5 xclevel =         1
  lmnmax =         2   lnmax =         2   mband =        10  mffmem =         1
P  mgfft =        16   mkmem =         2 mpssoang=         3     mpw =       150
  mqgrid =      3001   natom =         2    nfft =      4096    nkpt =         2
  nloalg =         4  nspden =         1 nspinor =         1  nsppol =         1
    nsym =        48  n1xccc =      2501  ntypat =         1  occopt =         1
================================================================================
P This job should need less than                       1.596 Mbytes of memory.
  Rough estimation (10% accuracy) of disk space for files :
_ WF disk file :      0.048 Mbytes ; DEN or POT disk file :      0.033 Mbytes.
================================================================================


 DATASET    3 : space group Fd -3 m (#227); Bravais cF (face-center cubic)
================================================================================
 Values of the parameters that define the memory need for DATASET  3.
   intxc =         1  ionmov =         0    iscf =         5 xclevel =         1
  lmnmax =         2   lnmax =         2   mband =        10  mffmem =         1
P  mgfft =        16   mkmem =         2 mpssoang=         3     mpw =       150
  mqgrid =      3001   natom =         2    nfft =      4096    nkpt =         2
  nloalg =         4  nspden =         1 nspinor =         1  nsppol =         1
    nsym =        48  n1xccc =      2501  ntypat =         1  occopt =         1
================================================================================
P This job should need less than                       1.596 Mbytes of memory.
  Rough estimation (10% accuracy) of disk space for files :
_ WF disk file :      0.048 Mbytes ; DEN or POT disk file :      0.033 Mbytes.
================================================================================


 DATASET    4 : space group Fd -3 m (#227); Bravais cF (face-center cubic)
================================================================================
 Values of the parameters that define the memory need for DATASET  4.
   intxc =         1  ionmov =         0    iscf =         5 xclevel =         1
  lmnmax =         2   lnmax =         2   mband =        10  mffmem =         1
P  mgfft =        16   mkmem =         2 mpssoang=         3     mpw =       150
  mqgrid =      3001   natom =         2    nfft =      4096    nkpt =         2
  nloalg =         4  nspden =         1 nspinor =         1  nsppol =         1
    nsym =        48  n1xccc =      2501  ntypat =         1  occopt =         1
================================================================================
P This job should need less than                       1.596 Mbytes of memory.
  Rough estimation (10% accuracy) of disk space for files :
_ WF disk file :      0.048 Mbytes ; DEN or POT disk file :      0.033 Mbytes.
================================================================================


 DATASET    5 : space group Fd -3 m (#227); Bravais cF (face-center cubic)
================================================================================
 Values of the parameters that define the memory need for DATASET  5.
   intxc =         1  ionmov =         0    iscf =         5 xclevel =         1
  lmnmax =         2   lnmax =         2   mband =        10  mffmem =         1
P  mgfft =        16   mkmem =         2 mpssoang=         3     mpw =       150
  mqgrid =      3001   natom =         2    nfft =      4096    nkpt =         2
  nloalg =         4  nspden =         1 nspinor =         1  nsppol =         1
    nsym =        48  n1xccc =      2501  ntypat =         1  occopt =         1
================================================================================
P This job should need less than                       1.596 Mbytes of memory.
  Rough estimation (10% accuracy) of disk space for files :
_ WF disk file :      0.048 Mbytes ; DEN or POT disk file :      0.033 Mbytes.
================================================================================


 DATASET    6 : space group Fd -3 m (#227); Bravais cF (face-center cubic)
================================================================================
 Values of the parameters that define the memory need for DATASET  6.
   intxc =         1  ionmov =         0    iscf =         5 xclevel =         1
  lmnmax =         2   lnmax =         2   mband =        10  mffmem =         1
P  mgfft =        16   mkmem =         2 mpssoang=         3     mpw =       150
  mqgrid =      3001   natom =         2    nfft =      4096    nkpt =         2
  nloalg =         4  nspden =         1 nspinor =         1  nsppol =         1
    nsym =        48  n1xccc =      2501  ntypat =         1  occopt =         1
================================================================================
P This job should need less than                       1.596 Mbytes of memory.
  Rough estimation (10% accuracy) of disk space for files :
_ WF disk file :      0.048 Mbytes ; DEN or POT disk file :      0.033 Mbytes.
================================================================================

--------------------------------------------------------------------------------
------------- Echo of variables that govern the present computation ------------
--------------------------------------------------------------------------------
-
- outvars: echo of selected default values                                      
-   accesswff0 =  0 , fftalg0 =112 , wfoptalg0 =  0
-
- outvars: echo of global parameters not present in the input file              
-  max_nthreads =    0
-
 -outvars: echo values of preprocessed input variables --------
            acell      1.0250000000E+01  1.0250000000E+01  1.0250000000E+01 Bohr
              amu      2.80855000E+01
             awtr1          1
             awtr2          0
             awtr3          1
             awtr4          1
             awtr5          1
             awtr6          1
             bdgw3          4       5
             bdgw4          4       5
             bdgw5          4       5
             bdgw6          4       5
             ecut1     6.00000000E+00 Hartree
             ecut2     5.07277704E+00 Hartree
             ecut3     5.07277704E+00 Hartree
             ecut4     5.07277704E+00 Hartree
             ecut5     5.07277704E+00 Hartree
             ecut6     5.07277704E+00 Hartree
          ecuteps1     0.00000000E+00 Hartree
          ecuteps2     1.50304505E+00 Hartree
          ecuteps3     0.00000000E+00 Hartree
          ecuteps4     0.00000000E+00 Hartree
          ecuteps5     0.00000000E+00 Hartree
          ecuteps6     0.00000000E+00 Hartree
         ecutsigx1     0.00000000E+00 Hartree
         ecutsigx2     0.00000000E+00 Hartree
         ecutsigx3     1.50304505E+00 Hartree
         ecutsigx4     1.50304505E+00 Hartree
         ecutsigx5     1.50304505E+00 Hartree
         ecutsigx6     1.50304505E+00 Hartree
          ecutwfn1     6.00000000E+00 Hartree
          ecutwfn2     5.07277704E+00 Hartree
          ecutwfn3     5.07277704E+00 Hartree
          ecutwfn4     5.07277704E+00 Hartree
          ecutwfn5     5.07277704E+00 Hartree
          ecutwfn6     5.07277704E+00 Hartree
           enunit           2
-          fftalg         112
           getkss1          0
           getkss2         -1
           getkss3         -2
           getkss4         -3
           getkss5         -4
           getkss6         -5
           getscr1          0
           getscr2          0
           getscr3         -1
           getscr4         -2
           getscr5         -3
           getscr6         -4
         icutcoul1          6
         icutcoul2          6
         icutcoul3          3
         icutcoul4          3
         icutcoul5          3
         icutcoul6          3
            intxc           1
             iscf           5
           jdtset        1    2    3    4    5    6
              kpt     -2.50000000E-01  5.00000000E-01  0.00000000E+00
                      -2.50000000E-01  0.00000000E+00  0.00000000E+00
            kptgw3     2.50000000E-01  7.50000000E-01  2.50000000E-01
            kptgw4     2.50000000E-01  7.50000000E-01  2.50000000E-01
            kptgw5     2.50000000E-01  7.50000000E-01  2.50000000E-01
            kptgw6     2.50000000E-01  7.50000000E-01  2.50000000E-01
         kptrlatt        2   -2    2     -2    2    2     -2   -2    2
          kptrlen      2.05000000E+01
P           mkmem           2
            natom           2
            nband1         15
            nband2         10
            nband3         10
            nband4         10
            nband5         10
            nband6         10
         nbandkss1         -1
         nbandkss2          0
         nbandkss3          0
         nbandkss4          0
         nbandkss5          0
         nbandkss6          0
           nbdbuf1          5
           nbdbuf2          0
           nbdbuf3          0
           nbdbuf4          0
           nbdbuf5          0
           nbdbuf6          0
           ndtset           6
            ngfft          16      16      16
             nkpt           2
           nkptgw1          0
           nkptgw2          0
           nkptgw3          1
           nkptgw4          1
           nkptgw5          1
           nkptgw6          1
            nline1          3
            nline2          4
            nline3          4
            nline4          4
            nline5          4
            nline6          4
           npweps1          0
           npweps2         27
           npweps3          0
           npweps4          0
           npweps5          0
           npweps6          0
          npwsigx1          0
          npwsigx2          0
          npwsigx3         27
          npwsigx4         27
          npwsigx5         27
          npwsigx6         27
           npwwfn1          0
           npwwfn2        169
           npwwfn3        169
           npwwfn4        169
           npwwfn5        169
           npwwfn6        169
           nsheps1          0
           nsheps2          4
           nsheps3          0
           nsheps4          0
           nsheps5          0
           nsheps6          0
          nshsigx1          0
          nshsigx2          0
          nshsigx3          4
          nshsigx4          4
          nshsigx5          4
          nshsigx6          4
            nstep1         10
            nstep2         30
            nstep3         30
            nstep4         30
            nstep5         30
            nstep6         30
             nsym          48
           ntypat           1
              occ1     2.000000  2.000000  2.000000  2.000000  0.000000  0.000000
                       0.000000  0.000000  0.000000  0.000000  0.000000  0.000000
                       0.000000  0.000000  0.000000
              occ2     2.000000  2.000000  2.000000  2.000000  0.000000  0.000000
                       0.000000  0.000000  0.000000  0.000000
              occ3     2.000000  2.000000  2.000000  2.000000  0.000000  0.000000
                       0.000000  0.000000  0.000000  0.000000
              occ4     2.000000  2.000000  2.000000  2.000000  0.000000  0.000000
                       0.000000  0.000000  0.000000  0.000000
              occ5     2.000000  2.000000  2.000000  2.000000  0.000000  0.000000
                       0.000000  0.000000  0.000000  0.000000
              occ6     2.000000  2.000000  2.000000  2.000000  0.000000  0.000000
                       0.000000  0.000000  0.000000  0.000000
        optdriver1          0
        optdriver2          3
        optdriver3          4
        optdriver4          4
        optdriver5          4
        optdriver6          4
           ppmfrq1     0.00000000E+00 Hartree
           ppmfrq2     6.06363869E-01 Hartree
           ppmfrq3     6.06363869E-01 Hartree
           ppmfrq4     0.00000000E+00 Hartree
           ppmfrq5     0.00000000E+00 Hartree
           ppmfrq6     0.00000000E+00 Hartree
          ppmodel1          1
          ppmodel2          1
          ppmodel3          1
          ppmodel4          2
          ppmodel5          3
          ppmodel6          4
            rprim      0.0000000000E+00  5.0000000000E-01  5.0000000000E-01
                       5.0000000000E-01  0.0000000000E+00  5.0000000000E-01
                       5.0000000000E-01  5.0000000000E-01  0.0000000000E+00
           shiftk      5.00000000E-01  5.00000000E-01  5.00000000E-01
          spgroup         227
           symrel      1  0  0   0  1  0   0  0  1      -1  0  0   0 -1  0   0  0 -1
                       0 -1  1   0 -1  0   1 -1  0       0  1 -1   0  1  0  -1  1  0
                      -1  0  0  -1  0  1  -1  1  0       1  0  0   1  0 -1   1 -1  0
                       0  1 -1   1  0 -1   0  0 -1       0 -1  1  -1  0  1   0  0  1
                      -1  0  0  -1  1  0  -1  0  1       1  0  0   1 -1  0   1  0 -1
                       0 -1  1   1 -1  0   0 -1  0       0  1 -1  -1  1  0   0  1  0
                       1  0  0   0  0  1   0  1  0      -1  0  0   0  0 -1   0 -1  0
                       0  1 -1   0  0 -1   1  0 -1       0 -1  1   0  0  1  -1  0  1
                      -1  0  1  -1  1  0  -1  0  0       1  0 -1   1 -1  0   1  0  0
                       0 -1  0   1 -1  0   0 -1  1       0  1  0  -1  1  0   0  1 -1
                       1  0 -1   0  0 -1   0  1 -1      -1  0  1   0  0  1   0 -1  1
                       0  1  0   0  0  1   1  0  0       0 -1  0   0  0 -1  -1  0  0
                       1  0 -1   0  1 -1   0  0 -1      -1  0  1   0 -1  1   0  0  1
                       0 -1  0   0 -1  1   1 -1  0       0  1  0   0  1 -1  -1  1  0
                      -1  0  1  -1  0  0  -1  1  0       1  0 -1   1  0  0   1 -1  0
                       0  1  0   1  0  0   0  0  1       0 -1  0  -1  0  0   0  0 -1
                       0  0 -1   0  1 -1   1  0 -1       0  0  1   0 -1  1  -1  0  1
                       1 -1  0   0 -1  1   0 -1  0      -1  1  0   0  1 -1   0  1  0
                       0  0  1   1  0  0   0  1  0       0  0 -1  -1  0  0   0 -1  0
                      -1  1  0  -1  0  0  -1  0  1       1 -1  0   1  0  0   1  0 -1
                       0  0  1   0  1  0   1  0  0       0  0 -1   0 -1  0  -1  0  0
                       1 -1  0   0 -1  0   0 -1  1      -1  1  0   0  1  0   0  1 -1
                       0  0 -1   1  0 -1   0  1 -1       0  0  1  -1  0  1   0 -1  1
                      -1  1  0  -1  0  1  -1  0  0       1 -1  0   1  0 -1   1  0  0
            tnons      0.0000000  0.0000000  0.0000000     0.2500000  0.2500000  0.2500000
                       0.0000000  0.0000000  0.0000000     0.2500000  0.2500000  0.2500000
                       0.0000000  0.0000000  0.0000000     0.2500000  0.2500000  0.2500000
                       0.0000000  0.0000000  0.0000000     0.2500000  0.2500000  0.2500000
                       0.0000000  0.0000000  0.0000000     0.2500000  0.2500000  0.2500000
                       0.0000000  0.0000000  0.0000000     0.2500000  0.2500000  0.2500000
                       0.0000000  0.0000000  0.0000000     0.2500000  0.2500000  0.2500000
                       0.0000000  0.0000000  0.0000000     0.2500000  0.2500000  0.2500000
                       0.0000000  0.0000000  0.0000000     0.2500000  0.2500000  0.2500000
                       0.0000000  0.0000000  0.0000000     0.2500000  0.2500000  0.2500000
                       0.0000000  0.0000000  0.0000000     0.2500000  0.2500000  0.2500000
                       0.0000000  0.0000000  0.0000000     0.2500000  0.2500000  0.2500000
                       0.0000000  0.0000000  0.0000000     0.2500000  0.2500000  0.2500000
                       0.0000000  0.0000000  0.0000000     0.2500000  0.2500000  0.2500000
                       0.0000000  0.0000000  0.0000000     0.2500000  0.2500000  0.2500000
                       0.0000000  0.0000000  0.0000000     0.2500000  0.2500000  0.2500000
                       0.0000000  0.0000000  0.0000000     0.2500000  0.2500000  0.2500000
                       0.0000000  0.0000000  0.0000000     0.2500000  0.2500000  0.2500000
                       0.0000000  0.0000000  0.0000000     0.2500000  0.2500000  0.2500000
                       0.0000000  0.0000000  0.0000000     0.2500000  0.2500000  0.2500000
                       0.0000000  0.0000000  0.0000000     0.2500000  0.2500000  0.2500000
                       0.0000000  0.0000000  0.0000000     0.2500000  0.2500000  0.2500000
                       0.0000000  0.0000000  0.0000000     0.2500000  0.2500000  0.2500000
                       0.0000000  0.0000000  0.0000000     0.2500000  0.2500000  0.2500000
           tolwfr1     1.00000000E-16
           tolwfr2     0.00000000E+00
           tolwfr3     0.00000000E+00
           tolwfr4     0.00000000E+00
           tolwfr5     0.00000000E+00
           tolwfr6     0.00000000E+00
            typat      1  1
              wtk        0.75000    0.25000
           xangst      0.0000000000E+00  0.0000000000E+00  0.0000000000E+00
                       1.3560165970E+00  1.3560165970E+00  1.3560165970E+00
            xcart      0.0000000000E+00  0.0000000000E+00  0.0000000000E+00
                       2.5625000000E+00  2.5625000000E+00  2.5625000000E+00
             xred      0.0000000000E+00  0.0000000000E+00  0.0000000000E+00
                       2.5000000000E-01  2.5000000000E-01  2.5000000000E-01
             zcut1     3.67493260E-03 Hartree
             zcut2     3.67493260E-03 Hartree
             zcut3     3.67493254E-03 Hartree
             zcut4     3.67493254E-03 Hartree
             zcut5     3.67493254E-03 Hartree
             zcut6     3.67493254E-03 Hartree
            znucl       14.00000

================================================================================

 chkinp: Checking input parameters for consistency, jdtset=   1.

 chkinp: Checking input parameters for consistency, jdtset=   2.

 chkinp: Checking input parameters for consistency, jdtset=   3.

 chkinp: Checking input parameters for consistency, jdtset=   4.

 chkinp: Checking input parameters for consistency, jdtset=   5.

 chkinp: Checking input parameters for consistency, jdtset=   6.

================================================================================
== DATASET  1 ==================================================================
-   nproc =    1

 Exchange-correlation functional for the present dataset will be:
  LDA: new Teter (4/93) with spin-polarized option - ixc=1
 Citation for XC functional:
  S. Goedecker, M. Teter, J. Huetter, PRB 54, 1703 (1996)

 Real(R)+Recip(G) space primitive vectors, cartesian coordinates (Bohr,Bohr^-1):
 R(1)=  0.0000000  5.1250000  5.1250000  G(1)= -0.0975610  0.0975610  0.0975610
 R(2)=  5.1250000  0.0000000  5.1250000  G(2)=  0.0975610 -0.0975610  0.0975610
 R(3)=  5.1250000  5.1250000  0.0000000  G(3)=  0.0975610  0.0975610 -0.0975610
 Unit cell volume ucvol=  2.6922266E+02 bohr^3
 Angles (23,13,12)=  6.00000000E+01  6.00000000E+01  6.00000000E+01 degrees

 getcut: wavevector=  0.0000  0.0000  0.0000  ngfft=  16  16  16
         ecut(hartree)=      6.000   => boxcut(ratio)=   2.00203

--- Pseudopotential description ------------------------------------------------
- pspini: atom type   1  psp file is /home/gonze/ABINIT/ABINITv7.9.3/trunk/7.9.3-private/tests/Psps_for_tests/14si.pspnc
- pspatm: opening atomic psp file    /home/gonze/ABINIT/ABINITv7.9.3/trunk/7.9.3-private/tests/Psps_for_tests/14si.pspnc
-  Troullier-Martins psp for element  Si        Thu Oct 27 17:31:21 EDT 1994
- 14.00000   4.00000    940714                znucl, zion, pspdat
    1    1    2    2      2001   0.00000      pspcod,pspxc,lmax,lloc,mmax,r2well
    0   5.907  14.692    1   2.0872718        l,e99.0,e99.9,nproj,rcpsp
   0.00000000   0.00000000   0.00000000   0.00000000     rms, ekb1, ekb2, epsatm
    1   2.617   4.181    1   2.0872718        l,e99.0,e99.9,nproj,rcpsp
   0.00000000   0.00000000   0.00000000   0.00000000     rms, ekb1, ekb2, epsatm
    2   0.000   0.000    0   2.0872718        l,e99.0,e99.9,nproj,rcpsp
   0.00000000   0.00000000   0.00000000   0.00000000     rms, ekb1, ekb2, epsatm
    1.80626423934776    0.22824404341771    1.17378968127746   rchrg,fchrg,qchrg
 pspatm: epsatm=    1.43386982
         --- l  ekb(1:nproj) -->
             0    3.287949
             1    1.849886
 pspatm: atomic psp has been read  and splines computed

   2.29419171E+01                                ecore*ucvol(ha*bohr**3)
--------------------------------------------------------------------------------

P newkpt: treating     15 bands with npw=     188 for ikpt=   1 by node    0
P newkpt: treating     15 bands with npw=     187 for ikpt=   2 by node    0

_setup2: Arith. and geom. avg. npw (full set) are     187.750     187.749

================================================================================

     iter   Etot(hartree)      deltaE(h)  residm     vres2
 ETOT  1  -8.8541871011189    -8.854E+00 8.316E-04 3.023E+00
 ETOT  2  -8.8589846693224    -4.798E-03 1.144E-07 1.283E-01
 ETOT  3  -8.8590990326194    -1.144E-04 5.091E-06 2.595E-02
 ETOT  4  -8.8591133676398    -1.434E-05 7.921E-07 3.412E-03
 ETOT  5  -8.8591154391854    -2.072E-06 1.793E-07 2.497E-04
 ETOT  6  -8.8591156647354    -2.255E-07 1.329E-08 5.539E-06
 ETOT  7  -8.8591156691152    -4.380E-09 4.012E-10 1.647E-08
 ETOT  8  -8.8591156691161    -8.988E-13 3.324E-14 1.658E-08
 ETOT  9  -8.8591156691237    -7.597E-12 5.576E-13 1.375E-09
 ETOT 10  -8.8591156691248    -1.092E-12 9.535E-14 4.320E-12

 Cartesian components of stress tensor (hartree/bohr^3)
  sigma(1 1)=  9.50962026E-05  sigma(3 2)=  0.00000000E+00
  sigma(2 2)=  9.50962026E-05  sigma(3 1)=  0.00000000E+00
  sigma(3 3)=  9.50962026E-05  sigma(2 1)=  0.00000000E+00


 scprqt:  WARNING -
  nstep=   10 was not enough SCF cycles to converge;
  maximum residual=  9.535E-14 exceeds tolwfr=  1.000E-16


======================================================================
 Calculating and writing out Kohn-Sham electronic Structure file
 Using diagonalized wavefunctions and energies (kssform=1)
 number of Gamma centered plane waves    307
 number of Gamma centered shells     18
 number of bands    187
 maximum angular momentum components      3
 Diagonalized eigenvalues
   k    eigenvalues [Hartree]
   1     -0.1252 -0.0203  0.0832  0.1331  0.2687  0.3780  0.4241  0.4345  0.5874
          0.6091  0.6700  0.6787  0.6864  0.8339  0.8778  0.9027  0.9324  0.9399
          0.9523  1.0546  1.1061  1.1483  1.1596  1.2344  1.2915  1.3015  1.3100
          1.3498  1.4083  1.4817  1.5062  1.5608  1.5768  1.6180  1.6392  1.7160
          1.8033  1.8256  1.8708  1.8752  1.8880  1.9174  1.9482  2.0022  2.0173
          2.0392  2.0884  2.0898  2.1201  2.1659  2.2405  2.2605  2.2725  2.3671
          2.3804  2.3997  2.4594  2.4693  2.4717  2.5043  2.5332  2.5499  2.5558
          2.5925  2.6205  2.6467  2.6610  2.6969  2.7393  2.7567  2.7848  2.7942
          2.8451  2.8497  2.8996  2.9114  2.9161  3.0010  3.0193  3.0707  3.0916
          3.1104  3.1364  3.1663  3.1914  3.2503  3.2556  3.2724  3.2835  3.3360
          3.3646  3.3968  3.4441  3.4678  3.5033  3.5457  3.5667  3.5711  3.5754
          3.6055  3.6256  3.6329  3.6439  3.6536  3.6758  3.8093  3.8452  3.8793
          3.8990  3.9215  3.9260  3.9734  3.9801  4.0119  4.0662  4.0833  4.1262
          4.1274  4.1438  4.1554  4.1904  4.2112  4.2278  4.2454  4.2532  4.2915
          4.3042  4.3121  4.3209  4.3778  4.4015  4.4046  4.5020  4.5368  4.5372
          4.5631  4.6351  4.6377  4.6666  4.7011  4.7032  4.7115  4.7287  4.7359
          4.7639  4.7843  4.7972  4.8271  4.9292  4.9419  4.9468  4.9538  4.9639
          4.9732  4.9734  4.9847  5.0418  5.0447  5.0536  5.0573  5.1191  5.1225
          5.1281  5.1568  5.1575  5.1657  5.2239  5.2302  5.2307  5.2445  5.2536
          5.3278  5.4117  5.4199  5.4253  5.4543  5.4711  5.4869  5.5048  5.5125
          5.5199  5.5602  5.5727  5.5938  5.6430  5.6491  5.7183
   2     -0.1964  0.0699  0.1874  0.1874  0.2859  0.3445  0.3445  0.4626  0.4857
          0.4857  0.5367  0.6424  0.7595  0.7595  0.8749  0.8761  0.8761  0.9401
          1.1347  1.1347  1.1958  1.1958  1.2601  1.2896  1.3288  1.3958  1.3958
          1.4704  1.4704  1.5094  1.5094  1.5959  1.6184  1.6329  1.6329  1.6702
          1.7129  1.7393  1.7393  1.7884  1.8334  1.8334  1.8442  1.9637  1.9637
          2.0387  2.0387  2.0551  2.0981  2.1050  2.1050  2.1528  2.2178  2.3334
          2.3334  2.3389  2.3428  2.3428  2.4283  2.4283  2.4602  2.4727  2.5451
          2.5451  2.6385  2.7091  2.7091  2.7398  2.8762  2.8762  2.9410  3.0204
          3.0231  3.0504  3.0504  3.0619  3.0619  3.1285  3.1285  3.1295  3.1450
          3.1569  3.1569  3.2137  3.2747  3.2747  3.3325  3.3537  3.3537  3.3683
          3.4131  3.4131  3.4204  3.5197  3.5197  3.5427  3.5427  3.5465  3.5946
          3.6490  3.6490  3.6801  3.7086  3.7086  3.7722  3.7965  3.7965  3.8084
          3.8245  3.8245  3.8303  3.8932  3.8932  3.9336  3.9336  3.9362  4.0152
          4.1078  4.1078  4.1591  4.1857  4.1891  4.1891  4.2016  4.2291  4.2291
          4.2426  4.2516  4.2562  4.2562  4.2808  4.2808  4.3718  4.3718  4.3820
          4.4636  4.4636  4.4707  4.5476  4.5476  4.5538  4.6250  4.6250  4.6273
          4.6415  4.6519  4.6519  4.6796  4.6796  4.6891  4.8246  4.8711  4.8711
          4.9062  5.0400  5.0400  5.1395  5.1462  5.1462  5.1650  5.1800  5.1800
          5.2079  5.2868  5.2868  5.3072  5.3376  5.3376  5.3994  5.4026  5.4026
          5.5382  5.5428  5.5428  5.5443  5.5443  5.6154  5.6639  5.6750  5.6750
          5.6946  5.7387  5.7387  5.7422  5.7456  5.7697  5.7697
 Test on the normalization of the wavefunctions
  min sum_G |a(n,k,G)| =  1.000000
  max sum_G |a(n,k,G)| =  1.000000
 Test on the orthogonalization of the wavefunctions
  min sum_G a(n,k,G)a(n',k,G) =  0.000000
  max sum_G a(n,k,G)a(n',k,G) =  0.000000

================================================================================

 ----iterations are completed or convergence reached----

 Mean square residual over all n,k,spin=   1.8707E-07; max=  3.8298E-06
  -0.2500  0.5000  0.0000    1  3.82983E-06 kpt; spin; max resid(k); each band:
  4.47E-14 3.64E-14 6.47E-14 1.41E-14 8.34E-14 9.24E-14 4.58E-14 1.48E-14
  8.57E-14 1.15E-14 7.82E-15 5.16E-14 1.03E-13 4.61E-11 3.83E-06
  -0.2500  0.0000  0.0000    1  1.78214E-06 kpt; spin; max resid(k); each band:
  7.62E-14 4.47E-14 2.99E-15 4.99E-15 6.59E-14 6.53E-15 8.15E-15 9.54E-14
  1.92E-14 2.15E-14 8.07E-14 1.30E-13 8.09E-14 8.65E-14 1.78E-06
 reduced coordinates (array xred) for    2 atoms
       0.000000000000      0.000000000000      0.000000000000
       0.250000000000      0.250000000000      0.250000000000
 rms dE/dt=  3.1554E-30; max dE/dt=  3.1554E-30; dE/dt below (all hartree)
    1       0.000000000000      0.000000000000      0.000000000000
    2      -0.000000000000     -0.000000000000     -0.000000000000

 cartesian coordinates (angstrom) at end:
    1      0.00000000000000     0.00000000000000     0.00000000000000
    2      1.35601659701187     1.35601659701187     1.35601659701187

 cartesian forces (hartree/bohr) at end:
    1     -0.00000000000000    -0.00000000000000    -0.00000000000000
    2      0.00000000000000     0.00000000000000     0.00000000000000
 frms,max,avg= 2.9024203E-31 4.1046421E-31   0.000E+00  0.000E+00  0.000E+00 h/b

 cartesian forces (eV/Angstrom) at end:
    1     -0.00000000000000    -0.00000000000000    -0.00000000000000
    2      0.00000000000000     0.00000000000000     0.00000000000000
 frms,max,avg= 1.4924844E-29 2.1106917E-29   0.000E+00  0.000E+00  0.000E+00 e/A
 length scales= 10.250000000000 10.250000000000 10.250000000000 bohr
              =  5.424066388047  5.424066388047  5.424066388047 angstroms
 prteigrs : about to open file t30o_DS1_EIG
 Fermi (or HOMO) energy (hartree) =   0.18739   Average Vxc (hartree)=  -0.35276
 Eigenvalues (hartree) for nkpt=   2  k points:
 kpt#   1, nband= 15, wtk=  0.75000, kpt= -0.2500  0.5000  0.0000 (reduced coord)
  -0.12516  -0.02027   0.08318   0.13306   0.26870   0.37799   0.42406   0.43446
   0.58744   0.60913   0.66995   0.67872   0.68638   0.83393   0.87780
 kpt#   2, nband= 15, wtk=  0.25000, kpt= -0.2500  0.0000  0.0000 (reduced coord)
  -0.19640   0.06989   0.18739   0.18739   0.28588   0.34447   0.34447   0.46259
   0.48565   0.48565   0.53668   0.64236   0.75948   0.75948   0.87526
 Fermi (or HOMO) energy (eV) =   5.09904   Average Vxc (eV)=  -9.59911
 Eigenvalues (   eV  ) for nkpt=   2  k points:
 kpt#   1, nband= 15, wtk=  0.75000, kpt= -0.2500  0.5000  0.0000 (reduced coord)
  -3.40571  -0.55147   2.26334   3.62072   7.31179  10.28571  11.53938  11.82230
  15.98496  16.57535  18.23033  18.46892  18.67742  22.69252  23.88615
 kpt#   2, nband= 15, wtk=  0.25000, kpt= -0.2500  0.0000  0.0000 (reduced coord)
  -5.34426   1.90172   5.09904   5.09904   7.77907   9.37350   9.37350  12.58769
  13.21529  13.21529  14.60393  17.47959  20.66655  20.66655  23.81704
 Total charge density [el/Bohr^3]
,     Maximum=    8.6871E-02  at reduced coord.    0.1250    0.1250    0.6250
,Next maximum=    8.6871E-02  at reduced coord.    0.1250    0.6250    0.1250
,     Minimum=    3.1685E-03  at reduced coord.    0.5000    0.5000    0.5000
,Next minimum=    3.1685E-03  at reduced coord.    0.7500    0.7500    0.7500
,  Integrated=    8.0000E+00

--------------------------------------------------------------------------------
 Components of total free energy (in Hartree) :

    Kinetic energy  =  3.01475598950717E+00
    Hartree energy  =  5.49241354548012E-01
    XC energy       = -3.53650872677964E+00
    Ewald energy    = -8.40866036158725E+00
    PspCore energy  =  8.52154029741278E-02
    Loc. psp. energy= -2.48150764752945E+00
    NL   psp  energy=  1.91834831974220E+00
    >>>>>>>>> Etotal= -8.85911566912484E+00

 Other information on the energy :
    Total energy(eV)= -2.41068797132697E+02 ; Band energy (Ha)=   2.3034836898E-01
--------------------------------------------------------------------------------

 Cartesian components of stress tensor (hartree/bohr^3)
  sigma(1 1)=  9.50962026E-05  sigma(3 2)=  0.00000000E+00
  sigma(2 2)=  9.50962026E-05  sigma(3 1)=  0.00000000E+00
  sigma(3 3)=  9.50962026E-05  sigma(2 1)=  0.00000000E+00

-Cartesian components of stress tensor (GPa)         [Pressure= -2.7978E+00 GPa]
- sigma(1 1)=  2.79782640E+00  sigma(3 2)=  0.00000000E+00
- sigma(2 2)=  2.79782640E+00  sigma(3 1)=  0.00000000E+00
- sigma(3 3)=  2.79782640E+00  sigma(2 1)=  0.00000000E+00

================================================================================
== DATASET  2 ==================================================================
-   nproc =    1

 mkfilename : getkss/=0, take file _KSS from output of DATASET   1.

 Exchange-correlation functional for the present dataset will be:
  LDA: new Teter (4/93) with spin-polarized option - ixc=1
 Citation for XC functional:
  S. Goedecker, M. Teter, J. Huetter, PRB 54, 1703 (1996)

 SCREENING: Calculation of the susceptibility and dielectric matrices 

 Based on a program developped by R.W. Godby, V. Olevano, G. Onida, and L. Reining.
 Incorporated in ABINIT by V. Olevano, G.-M. Rignanese, and M. Torrent.
.Using double precision arithmetic ; gwpc =  8

 Real(R)+Recip(G) space primitive vectors, cartesian coordinates (Bohr,Bohr^-1):
 R(1)=  0.0000000  5.1250000  5.1250000  G(1)= -0.0975610  0.0975610  0.0975610
 R(2)=  5.1250000  0.0000000  5.1250000  G(2)=  0.0975610 -0.0975610  0.0975610
 R(3)=  5.1250000  5.1250000  0.0000000  G(3)=  0.0975610  0.0975610 -0.0975610
 Unit cell volume ucvol=  2.6922266E+02 bohr^3
 Angles (23,13,12)=  6.00000000E+01  6.00000000E+01  6.00000000E+01 degrees

--- Pseudopotential description ------------------------------------------------
- pspini: atom type   1  psp file is /home/gonze/ABINIT/ABINITv7.9.3/trunk/7.9.3-private/tests/Psps_for_tests/14si.pspnc
- pspatm: opening atomic psp file    /home/gonze/ABINIT/ABINITv7.9.3/trunk/7.9.3-private/tests/Psps_for_tests/14si.pspnc
-  Troullier-Martins psp for element  Si        Thu Oct 27 17:31:21 EDT 1994
- 14.00000   4.00000    940714                znucl, zion, pspdat
    1    1    2    2      2001   0.00000      pspcod,pspxc,lmax,lloc,mmax,r2well
    0   5.907  14.692    1   2.0872718        l,e99.0,e99.9,nproj,rcpsp
   0.00000000   0.00000000   0.00000000   0.00000000     rms, ekb1, ekb2, epsatm
    1   2.617   4.181    1   2.0872718        l,e99.0,e99.9,nproj,rcpsp
   0.00000000   0.00000000   0.00000000   0.00000000     rms, ekb1, ekb2, epsatm
    2   0.000   0.000    0   2.0872718        l,e99.0,e99.9,nproj,rcpsp
   0.00000000   0.00000000   0.00000000   0.00000000     rms, ekb1, ekb2, epsatm
    1.80626423934776    0.22824404341771    1.17378968127746   rchrg,fchrg,qchrg
 pspatm: epsatm=    1.43386982
         --- l  ekb(1:nproj) -->
             0    3.287949
             1    1.849886
 pspatm: atomic psp has been read  and splines computed

--------------------------------------------------------------------------------

 ==== K-mesh for the wavefunctions ====
 Number of points in the irreducible wedge :     2
 Reduced coordinates and weights : 

     1)    -2.50000000E-01  5.00000000E-01  0.00000000E+00       0.75000
     2)    -2.50000000E-01  0.00000000E+00  0.00000000E+00       0.25000

 Together with 48 symmetry operations and time-reversal symmetry 
 yields    32 points in the full Brillouin Zone.


 ==== Q-mesh for the screening function ====
 Number of points in the irreducible wedge :     6
 Reduced coordinates and weights : 

     1)     0.00000000E+00  0.00000000E+00  0.00000000E+00       0.03125
     2)     5.00000000E-01  0.00000000E+00  0.00000000E+00       0.12500
     3)    -2.50000000E-01  0.00000000E+00  2.50000000E-01       0.37500
     4)    -2.50000000E-01  0.00000000E+00 -2.50000000E-01       0.18750
     5)    -2.50000000E-01  5.00000000E-01  2.50000000E-01       0.18750
     6)     0.00000000E+00  5.00000000E-01  5.00000000E-01       0.09375

 Together with 48 symmetry operations and time-reversal symmetry 
 yields    32 points in the full Brillouin Zone.


 setmesh: FFT mesh size selected  =  12x 12x 12
          total number of points  =     1728


 k       eigenvalues [eV]
  1         -3.41  -0.55   2.26   3.62   7.31  10.29  11.54  11.82  15.98  16.58

  2         -5.34   1.90   5.10   5.10   7.78   9.37   9.37  12.59  13.22  13.22

 Number of electrons calculated from density =    7.9981; Expected =    8.0000
 average of density, n =  0.029708
 r_s =    2.0030
 omega_plasma =   16.6262 [eV]


 calculating chi0 at frequencies [eV] :
  1    0.000000E+00    0.000000E+00
  2    0.000000E+00    1.650000E+01


--------------------------------------------------------------------------------
  q-point number  1        q = ( 0.000000, 0.000000, 0.000000) [r.l.u.]
--------------------------------------------------------------------------------
  chi0(G,G') at the    1 th omega   0.0000   0.0000 [eV]
       1       2       3       4       5       6       7       8       9
    1  -0.000   0.000  -0.000  -0.000   0.000   0.000  -0.000  -0.000   0.000
       -0.000   0.000   0.000  -0.000  -0.000   0.000   0.000  -0.000  -0.000

    2   0.000 -11.936  -0.000  -0.141   0.000  -0.141   0.000  -0.141  -0.000
       -0.000   0.000  -5.028  -0.000  -0.225  -0.000  -0.225   0.000  -0.225

  chi0(G,G') at the    2 th omega   0.0000  16.5000 [eV]
       1       2       3       4       5       6       7       8       9
    1  -0.000   0.000  -0.000  -0.000   0.000   0.000  -0.000  -0.000   0.000
       -0.000   0.000   0.000  -0.000  -0.000   0.000   0.000  -0.000  -0.000

    2   0.000  -3.267   0.000   0.073   0.000   0.073  -0.000   0.073  -0.000
       -0.000   0.000  -1.146  -0.000  -0.063  -0.000  -0.063  -0.000  -0.063

 For q-point:  0.000010 0.000020 0.000030
  dielectric constant =  23.1975
  dielectric constant without local fields =  24.7000

  Average fulfillment of the sum rule on Im[epsilon] for q-point    1 :     17.83  [%]
  Heads and wings of the symmetrical epsilon^-1(G,G') 

   Upper and lower wings at the    1 th omega   0.0000   0.0000 [eV]
       1       2       3       4       5       6       7       8       9
      0.043   0.004  -0.004  -0.011   0.011   0.011  -0.011  -0.004   0.004
      0.000   0.004   0.004  -0.011  -0.011   0.011   0.011  -0.004  -0.004
       1       2       3       4       5       6       7       8       9
      0.043   0.004  -0.004  -0.011   0.011   0.011  -0.011  -0.004   0.004
      0.000  -0.004  -0.004   0.011   0.011  -0.011  -0.011   0.004   0.004


   Upper and lower wings at the    2 th omega   0.0000  16.5000 [eV]
       1       2       3       4       5       6       7       8       9
      0.491   0.008  -0.008  -0.023   0.023   0.023  -0.023  -0.008   0.008
     -0.000   0.008   0.008  -0.023  -0.023   0.023   0.023  -0.008  -0.008
       1       2       3       4       5       6       7       8       9
      0.491   0.008  -0.008  -0.023   0.023   0.023  -0.023  -0.008   0.008
     -0.000  -0.008  -0.008   0.023   0.023  -0.023  -0.023   0.008   0.008




--------------------------------------------------------------------------------
  q-point number  2        q = ( 0.500000, 0.000000, 0.000000) [r.l.u.]
--------------------------------------------------------------------------------
  chi0(G,G') at the    1 th omega   0.0000   0.0000 [eV]
       1       2       3       4       5       6       7       8       9
    1 -13.117  -1.674   2.921  -1.948  -2.123  -1.948  -2.123  -1.948  -2.123
       -0.000  -1.674  -2.921  -1.948   2.123  -1.948   2.123  -1.948   2.123

    2  -1.674  -7.358  -0.000   0.247  -0.000   0.247  -0.000   0.247  -0.000
        1.674  -0.000  -3.856  -0.000   0.226  -0.000   0.226   0.000   0.226

  chi0(G,G') at the    2 th omega   0.0000  16.5000 [eV]
       1       2       3       4       5       6       7       8       9
    1  -2.830  -0.535   0.556  -0.375  -0.497  -0.375  -0.497  -0.375  -0.497
       -0.000  -0.535  -0.556  -0.375   0.497  -0.375   0.497  -0.375   0.497

    2  -0.535  -1.888  -0.000   0.074   0.000   0.074   0.000   0.074  -0.000
        0.535  -0.000  -0.834   0.000   0.001  -0.000   0.001   0.000   0.001

  Average fulfillment of the sum rule on Im[epsilon] for q-point    2 :     45.86  [%]


--------------------------------------------------------------------------------
  q-point number  3        q = (-0.250000, 0.000000, 0.250000) [r.l.u.]
--------------------------------------------------------------------------------
  chi0(G,G') at the    1 th omega   0.0000   0.0000 [eV]
       1       2       3       4       5       6       7       8       9
    1 -14.006   0.177  -2.094  -2.094   0.177  -2.242  -2.242  -2.242  -2.242
       -0.000   0.177   2.094  -2.094  -0.177  -2.242   2.242  -2.242   2.242

    2   0.177 -14.808   0.000  -0.156  -0.000   0.850  -0.000   0.850  -0.000
       -0.177   0.000  -3.241   0.000  -1.773   0.000  -0.040  -0.000  -0.040

  chi0(G,G') at the    2 th omega   0.0000  16.5000 [eV]
       1       2       3       4       5       6       7       8       9
    1  -2.199   0.175  -0.475  -0.475   0.175  -0.384  -0.384  -0.384  -0.384
       -0.000   0.175   0.475  -0.475  -0.175  -0.384   0.384  -0.384   0.384

    2   0.175  -3.403   0.000   0.033   0.000   0.111  -0.000   0.111  -0.000
       -0.175   0.000  -0.838   0.000  -0.196   0.000  -0.079  -0.000  -0.079

  Average fulfillment of the sum rule on Im[epsilon] for q-point    3 :     47.56  [%]


--------------------------------------------------------------------------------
  q-point number  4        q = (-0.250000, 0.000000,-0.250000) [r.l.u.]
--------------------------------------------------------------------------------
  chi0(G,G') at the    1 th omega   0.0000   0.0000 [eV]
       1       2       3       4       5       6       7       8       9
    1 -10.826  -0.278  -2.141  -0.278  -2.141  -2.141  -0.278  -2.141  -0.278
        0.000  -0.278   2.141  -0.278   2.141  -2.141   0.278  -2.141   0.278

    2  -0.278 -13.485   0.000   2.418   0.000  -0.394   0.000  -0.394   0.000
        0.278  -0.000  -3.435   0.000  -0.216  -0.000  -0.359  -0.000  -0.359

  chi0(G,G') at the    2 th omega   0.0000  16.5000 [eV]
       1       2       3       4       5       6       7       8       9
    1  -1.345   0.022  -0.361   0.022  -0.361  -0.361   0.022  -0.361   0.022
       -0.000   0.022   0.361   0.022   0.361  -0.361  -0.022  -0.361  -0.022

    2   0.022  -3.376   0.000   0.270   0.000   0.023  -0.000   0.023  -0.000
       -0.022  -0.000  -0.925  -0.000  -0.029   0.000  -0.119   0.000  -0.119

  Average fulfillment of the sum rule on Im[epsilon] for q-point    4 :     61.73  [%]


--------------------------------------------------------------------------------
  q-point number  5        q = (-0.250000, 0.500000, 0.250000) [r.l.u.]
--------------------------------------------------------------------------------
  chi0(G,G') at the    1 th omega   0.0000   0.0000 [eV]
       1       2       3       4       5       6       7       8       9
    1 -16.040  -1.582  -2.023  -2.318  -2.093  -2.093  -2.318  -2.023  -1.582
       -0.000  -1.582   2.023  -2.318   2.093  -2.093   2.318  -2.023   1.582

    2  -1.582 -16.040   0.000  -0.099  -0.000   1.854  -0.000  -0.240   0.000
        1.582  -0.000  -2.310  -0.000  -0.000   0.000   0.109  -0.000   0.000

  chi0(G,G') at the    2 th omega   0.0000  16.5000 [eV]
       1       2       3       4       5       6       7       8       9
    1  -3.309  -0.170  -0.504  -0.528  -0.482  -0.482  -0.528  -0.504  -0.170
        0.000  -0.170   0.504  -0.528   0.482  -0.482   0.528  -0.504   0.170

    2  -0.170  -3.309   0.000  -0.063   0.000   0.175  -0.000   0.028   0.000
        0.170   0.000  -0.470   0.000  -0.000  -0.000  -0.033   0.000  -0.000

  Average fulfillment of the sum rule on Im[epsilon] for q-point    5 :     38.47  [%]


--------------------------------------------------------------------------------
  q-point number  6        q = ( 0.000000, 0.500000, 0.500000) [r.l.u.]
--------------------------------------------------------------------------------
  chi0(G,G') at the    1 th omega   0.0000   0.0000 [eV]
       1       2       3       4       5       6       7       8       9
    1 -15.259  -1.450  -2.144  -2.144  -1.450  -1.450  -2.144  -2.144  -1.450
        0.000  -1.450   2.144  -2.144   1.450  -1.450   2.144  -2.144   1.450

    2  -1.450 -13.836  -0.000  -0.011  -0.000   3.405   0.000  -0.011   0.000
        1.450  -0.000  -1.973  -0.000   0.000  -0.000  -0.135  -0.000   0.000

  chi0(G,G') at the    2 th omega   0.0000  16.5000 [eV]
       1       2       3       4       5       6       7       8       9
    1  -3.193  -0.303  -0.528  -0.528  -0.303  -0.303  -0.528  -0.528  -0.303
       -0.000  -0.303   0.528  -0.528   0.303  -0.303   0.528  -0.528   0.303

    2  -0.303  -3.399  -0.000   0.016   0.000   0.386   0.000   0.016  -0.000
        0.303  -0.000  -0.520   0.000   0.000   0.000  -0.014   0.000  -0.000

  Average fulfillment of the sum rule on Im[epsilon] for q-point    6 :     39.54  [%]

================================================================================
== DATASET  3 ==================================================================
-   nproc =    1

 mkfilename : getscr/=0, take file _SCR from output of DATASET   2.

 mkfilename : getkss/=0, take file _KSS from output of DATASET   1.

 Exchange-correlation functional for the present dataset will be:
  LDA: new Teter (4/93) with spin-polarized option - ixc=1
 Citation for XC functional:
  S. Goedecker, M. Teter, J. Huetter, PRB 54, 1703 (1996)

 SIGMA: Calculation of the GW corrections 

 Based on a program developped by R.W. Godby, V. Olevano, G. Onida, and L. Reining.
 Incorporated in ABINIT by V. Olevano, G.-M. Rignanese, and M. Torrent.
.Using double precision arithmetic ; gwpc =  8

 Real(R)+Recip(G) space primitive vectors, cartesian coordinates (Bohr,Bohr^-1):
 R(1)=  0.0000000  5.1250000  5.1250000  G(1)= -0.0975610  0.0975610  0.0975610
 R(2)=  5.1250000  0.0000000  5.1250000  G(2)=  0.0975610 -0.0975610  0.0975610
 R(3)=  5.1250000  5.1250000  0.0000000  G(3)=  0.0975610  0.0975610 -0.0975610
 Unit cell volume ucvol=  2.6922266E+02 bohr^3
 Angles (23,13,12)=  6.00000000E+01  6.00000000E+01  6.00000000E+01 degrees
--------------------------------------------------------------------------------

 ==== K-mesh for the wavefunctions ====
 Number of points in the irreducible wedge :     2
 Reduced coordinates and weights : 

     1)    -2.50000000E-01  5.00000000E-01  0.00000000E+00       0.75000
     2)    -2.50000000E-01  0.00000000E+00  0.00000000E+00       0.25000

 Together with 48 symmetry operations and time-reversal symmetry 
 yields    32 points in the full Brillouin Zone.


 ==== Q-mesh for screening function ====
 Number of points in the irreducible wedge :     6
 Reduced coordinates and weights : 

     1)     0.00000000E+00  0.00000000E+00  0.00000000E+00       0.03125
     2)     5.00000000E-01  0.00000000E+00  0.00000000E+00       0.12500
     3)    -2.50000000E-01  0.00000000E+00  2.50000000E-01       0.37500
     4)    -2.50000000E-01  0.00000000E+00 -2.50000000E-01       0.18750
     5)    -2.50000000E-01  5.00000000E-01  2.50000000E-01       0.18750
     6)     0.00000000E+00  5.00000000E-01  5.00000000E-01       0.09375

 Together with 48 symmetry operations and time-reversal symmetry 
 yields    32 points in the full Brillouin Zone.


 setmesh: FFT mesh size selected  =  12x 12x 12
          total number of points  =     1728


 k       eigenvalues [eV]
  1         -3.41  -0.55   2.26   3.62   7.31  10.29  11.54  11.82  15.98  16.58

  2         -5.34   1.90   5.10   5.10   7.78   9.37   9.37  12.59  13.22  13.22

 Number of electrons calculated from density =    7.9981; Expected =    8.0000
 average of density, n =  0.029708
 r_s =    2.0030
 omega_plasma =   16.6262 [eV]


 === KS Band Gaps ===
  >>>> For spin  1
   Minimum optical gap =   2.6800 [eV], located at k-point      :  -0.2500  0.0000  0.0000
   Fundamental gap     =   2.2127 [eV], Top of valence bands at :  -0.2500  0.0000  0.0000
                                        Bottom of conduction at :  -0.2500  0.5000  0.0000
 SIGMA fundamental parameters:
 PLASMON POLE MODEL  1
 number of plane-waves for SigmaX                   27
 number of plane-waves for SigmaC and W             27
 number of plane-waves for wavefunctions           169
 number of bands                                    10
 number of independent spin polarizations            1
 number of spinorial components                      1
 number of k-points in IBZ                           2
 number of q-points in IBZ                           6
 number of symmetry operations                      48
 number of k-points in BZ                           32
 number of q-points in BZ                           32
 number of frequencies for dSigma/dE                 9
 frequency step for dSigma/dE [eV]                0.25
 number of omega for Sigma on real axis              0
 max omega for Sigma on real axis  [eV]           0.00
 zcut for avoiding poles [eV]                     0.10

 EPSILON^-1 parameters (SCR file):
 dimension of the eps^-1 matrix on file             27
 dimension of the eps^-1 matrix used                27
 number of plane-waves for wavefunctions           169
 number of bands                                    10
 number of q-points in IBZ                           6
 number of frequencies                               2
 number of real frequencies                          1
 number of imag frequencies                          1

 matrix elements of self-energy operator (all in [eV])

 Perturbative Calculation

 k =    0.250   0.750   0.250
 Band     E0 <VxcLDA>   SigX SigC(E0)      Z dSigC/dE  Sig(E)    E-E0       E
    4   3.621 -10.658 -12.317   2.871   0.778  -0.286  -9.716   0.942   4.563
    5   7.312  -9.279  -4.715  -2.475   0.811  -0.234  -7.586   1.693   9.005

 E^0_gap          3.691
 E^GW_gap         4.442
 DeltaE^GW_gap    0.751


================================================================================
== DATASET  4 ==================================================================
-   nproc =    1

 mkfilename : getscr/=0, take file _SCR from output of DATASET   2.

 mkfilename : getkss/=0, take file _KSS from output of DATASET   1.

 Exchange-correlation functional for the present dataset will be:
  LDA: new Teter (4/93) with spin-polarized option - ixc=1
 Citation for XC functional:
  S. Goedecker, M. Teter, J. Huetter, PRB 54, 1703 (1996)

 SIGMA: Calculation of the GW corrections 

 Based on a program developped by R.W. Godby, V. Olevano, G. Onida, and L. Reining.
 Incorporated in ABINIT by V. Olevano, G.-M. Rignanese, and M. Torrent.
.Using double precision arithmetic ; gwpc =  8

 Real(R)+Recip(G) space primitive vectors, cartesian coordinates (Bohr,Bohr^-1):
 R(1)=  0.0000000  5.1250000  5.1250000  G(1)= -0.0975610  0.0975610  0.0975610
 R(2)=  5.1250000  0.0000000  5.1250000  G(2)=  0.0975610 -0.0975610  0.0975610
 R(3)=  5.1250000  5.1250000  0.0000000  G(3)=  0.0975610  0.0975610 -0.0975610
 Unit cell volume ucvol=  2.6922266E+02 bohr^3
 Angles (23,13,12)=  6.00000000E+01  6.00000000E+01  6.00000000E+01 degrees
--------------------------------------------------------------------------------

 ==== K-mesh for the wavefunctions ====
 Number of points in the irreducible wedge :     2
 Reduced coordinates and weights : 

     1)    -2.50000000E-01  5.00000000E-01  0.00000000E+00       0.75000
     2)    -2.50000000E-01  0.00000000E+00  0.00000000E+00       0.25000

 Together with 48 symmetry operations and time-reversal symmetry 
 yields    32 points in the full Brillouin Zone.


 ==== Q-mesh for screening function ====
 Number of points in the irreducible wedge :     6
 Reduced coordinates and weights : 

     1)     0.00000000E+00  0.00000000E+00  0.00000000E+00       0.03125
     2)     5.00000000E-01  0.00000000E+00  0.00000000E+00       0.12500
     3)    -2.50000000E-01  0.00000000E+00  2.50000000E-01       0.37500
     4)    -2.50000000E-01  0.00000000E+00 -2.50000000E-01       0.18750
     5)    -2.50000000E-01  5.00000000E-01  2.50000000E-01       0.18750
     6)     0.00000000E+00  5.00000000E-01  5.00000000E-01       0.09375

 Together with 48 symmetry operations and time-reversal symmetry 
 yields    32 points in the full Brillouin Zone.


 setmesh: FFT mesh size selected  =  12x 12x 12
          total number of points  =     1728


 k       eigenvalues [eV]
  1         -3.41  -0.55   2.26   3.62   7.31  10.29  11.54  11.82  15.98  16.58

  2         -5.34   1.90   5.10   5.10   7.78   9.37   9.37  12.59  13.22  13.22

 Number of electrons calculated from density =    7.9981; Expected =    8.0000
 average of density, n =  0.029708
 r_s =    2.0030
 omega_plasma =   16.6262 [eV]


 === KS Band Gaps ===
  >>>> For spin  1
   Minimum optical gap =   2.6800 [eV], located at k-point      :  -0.2500  0.0000  0.0000
   Fundamental gap     =   2.2127 [eV], Top of valence bands at :  -0.2500  0.0000  0.0000
                                        Bottom of conduction at :  -0.2500  0.5000  0.0000
 SIGMA fundamental parameters:
 PLASMON POLE MODEL  2
 number of plane-waves for SigmaX                   27
 number of plane-waves for SigmaC and W             27
 number of plane-waves for wavefunctions           169
 number of bands                                    10
 number of independent spin polarizations            1
 number of spinorial components                      1
 number of k-points in IBZ                           2
 number of q-points in IBZ                           6
 number of symmetry operations                      48
 number of k-points in BZ                           32
 number of q-points in BZ                           32
 number of frequencies for dSigma/dE                 9
 frequency step for dSigma/dE [eV]                0.25
 number of omega for Sigma on real axis              0
 max omega for Sigma on real axis  [eV]           0.00
 zcut for avoiding poles [eV]                     0.10

 EPSILON^-1 parameters (SCR file):
 dimension of the eps^-1 matrix on file             27
 dimension of the eps^-1 matrix used                27
 number of plane-waves for wavefunctions           169
 number of bands                                    10
 number of q-points in IBZ                           6
 number of frequencies                               2
 number of real frequencies                          1
 number of imag frequencies                          1

 matrix elements of self-energy operator (all in [eV])

 Perturbative Calculation

 k =    0.250   0.750   0.250
 Band     E0 <VxcLDA>   SigX SigC(E0)      Z dSigC/dE  Sig(E)    E-E0       E
    4   3.621 -10.658 -12.317   2.811   0.805  -0.242  -9.731   0.927   4.547
    5   7.312  -9.279  -4.715  -2.476   0.829  -0.206  -7.547   1.731   9.043

 E^0_gap          3.691
 E^GW_gap         4.496
 DeltaE^GW_gap    0.804


================================================================================
== DATASET  5 ==================================================================
-   nproc =    1

 mkfilename : getscr/=0, take file _SCR from output of DATASET   2.

 mkfilename : getkss/=0, take file _KSS from output of DATASET   1.

 Exchange-correlation functional for the present dataset will be:
  LDA: new Teter (4/93) with spin-polarized option - ixc=1
 Citation for XC functional:
  S. Goedecker, M. Teter, J. Huetter, PRB 54, 1703 (1996)

 SIGMA: Calculation of the GW corrections 

 Based on a program developped by R.W. Godby, V. Olevano, G. Onida, and L. Reining.
 Incorporated in ABINIT by V. Olevano, G.-M. Rignanese, and M. Torrent.
.Using double precision arithmetic ; gwpc =  8

 Real(R)+Recip(G) space primitive vectors, cartesian coordinates (Bohr,Bohr^-1):
 R(1)=  0.0000000  5.1250000  5.1250000  G(1)= -0.0975610  0.0975610  0.0975610
 R(2)=  5.1250000  0.0000000  5.1250000  G(2)=  0.0975610 -0.0975610  0.0975610
 R(3)=  5.1250000  5.1250000  0.0000000  G(3)=  0.0975610  0.0975610 -0.0975610
 Unit cell volume ucvol=  2.6922266E+02 bohr^3
 Angles (23,13,12)=  6.00000000E+01  6.00000000E+01  6.00000000E+01 degrees
--------------------------------------------------------------------------------

 ==== K-mesh for the wavefunctions ====
 Number of points in the irreducible wedge :     2
 Reduced coordinates and weights : 

     1)    -2.50000000E-01  5.00000000E-01  0.00000000E+00       0.75000
     2)    -2.50000000E-01  0.00000000E+00  0.00000000E+00       0.25000

 Together with 48 symmetry operations and time-reversal symmetry 
 yields    32 points in the full Brillouin Zone.


 ==== Q-mesh for screening function ====
 Number of points in the irreducible wedge :     6
 Reduced coordinates and weights : 

     1)     0.00000000E+00  0.00000000E+00  0.00000000E+00       0.03125
     2)     5.00000000E-01  0.00000000E+00  0.00000000E+00       0.12500
     3)    -2.50000000E-01  0.00000000E+00  2.50000000E-01       0.37500
     4)    -2.50000000E-01  0.00000000E+00 -2.50000000E-01       0.18750
     5)    -2.50000000E-01  5.00000000E-01  2.50000000E-01       0.18750
     6)     0.00000000E+00  5.00000000E-01  5.00000000E-01       0.09375

 Together with 48 symmetry operations and time-reversal symmetry 
 yields    32 points in the full Brillouin Zone.


 setmesh: FFT mesh size selected  =  12x 12x 12
          total number of points  =     1728


 k       eigenvalues [eV]
  1         -3.41  -0.55   2.26   3.62   7.31  10.29  11.54  11.82  15.98  16.58

  2         -5.34   1.90   5.10   5.10   7.78   9.37   9.37  12.59  13.22  13.22

 Number of electrons calculated from density =    7.9981; Expected =    8.0000
 average of density, n =  0.029708
 r_s =    2.0030
 omega_plasma =   16.6262 [eV]


 === KS Band Gaps ===
  >>>> For spin  1
   Minimum optical gap =   2.6800 [eV], located at k-point      :  -0.2500  0.0000  0.0000
   Fundamental gap     =   2.2127 [eV], Top of valence bands at :  -0.2500  0.0000  0.0000
                                        Bottom of conduction at :  -0.2500  0.5000  0.0000
 SIGMA fundamental parameters:
 PLASMON POLE MODEL  3
 number of plane-waves for SigmaX                   27
 number of plane-waves for SigmaC and W             27
 number of plane-waves for wavefunctions           169
 number of bands                                    10
 number of independent spin polarizations            1
 number of spinorial components                      1
 number of k-points in IBZ                           2
 number of q-points in IBZ                           6
 number of symmetry operations                      48
 number of k-points in BZ                           32
 number of q-points in BZ                           32
 number of frequencies for dSigma/dE                 9
 frequency step for dSigma/dE [eV]                0.25
 number of omega for Sigma on real axis              0
 max omega for Sigma on real axis  [eV]           0.00
 zcut for avoiding poles [eV]                     0.10

 EPSILON^-1 parameters (SCR file):
 dimension of the eps^-1 matrix on file             27
 dimension of the eps^-1 matrix used                27
 number of plane-waves for wavefunctions           169
 number of bands                                    10
 number of q-points in IBZ                           6
 number of frequencies                               2
 number of real frequencies                          1
 number of imag frequencies                          1

 matrix elements of self-energy operator (all in [eV])

 Perturbative Calculation

 k =    0.250   0.750   0.250
 Band     E0 <VxcLDA>   SigX SigC(E0)      Z dSigC/dE  Sig(E)    E-E0       E
    4   3.621 -10.658 -12.317   2.808   0.805  -0.241  -9.732   0.925   4.546
    5   7.312  -9.279  -4.715  -2.470   0.831  -0.204  -7.540   1.739   9.050

 E^0_gap          3.691
 E^GW_gap         4.505
 DeltaE^GW_gap    0.814


================================================================================
== DATASET  6 ==================================================================
-   nproc =    1

 mkfilename : getscr/=0, take file _SCR from output of DATASET   2.

 mkfilename : getkss/=0, take file _KSS from output of DATASET   1.

 Exchange-correlation functional for the present dataset will be:
  LDA: new Teter (4/93) with spin-polarized option - ixc=1
 Citation for XC functional:
  S. Goedecker, M. Teter, J. Huetter, PRB 54, 1703 (1996)

 SIGMA: Calculation of the GW corrections 

 Based on a program developped by R.W. Godby, V. Olevano, G. Onida, and L. Reining.
 Incorporated in ABINIT by V. Olevano, G.-M. Rignanese, and M. Torrent.
.Using double precision arithmetic ; gwpc =  8

 Real(R)+Recip(G) space primitive vectors, cartesian coordinates (Bohr,Bohr^-1):
 R(1)=  0.0000000  5.1250000  5.1250000  G(1)= -0.0975610  0.0975610  0.0975610
 R(2)=  5.1250000  0.0000000  5.1250000  G(2)=  0.0975610 -0.0975610  0.0975610
 R(3)=  5.1250000  5.1250000  0.0000000  G(3)=  0.0975610  0.0975610 -0.0975610
 Unit cell volume ucvol=  2.6922266E+02 bohr^3
 Angles (23,13,12)=  6.00000000E+01  6.00000000E+01  6.00000000E+01 degrees
--------------------------------------------------------------------------------

 ==== K-mesh for the wavefunctions ====
 Number of points in the irreducible wedge :     2
 Reduced coordinates and weights : 

     1)    -2.50000000E-01  5.00000000E-01  0.00000000E+00       0.75000
     2)    -2.50000000E-01  0.00000000E+00  0.00000000E+00       0.25000

 Together with 48 symmetry operations and time-reversal symmetry 
 yields    32 points in the full Brillouin Zone.


 ==== Q-mesh for screening function ====
 Number of points in the irreducible wedge :     6
 Reduced coordinates and weights : 

     1)     0.00000000E+00  0.00000000E+00  0.00000000E+00       0.03125
     2)     5.00000000E-01  0.00000000E+00  0.00000000E+00       0.12500
     3)    -2.50000000E-01  0.00000000E+00  2.50000000E-01       0.37500
     4)    -2.50000000E-01  0.00000000E+00 -2.50000000E-01       0.18750
     5)    -2.50000000E-01  5.00000000E-01  2.50000000E-01       0.18750
     6)     0.00000000E+00  5.00000000E-01  5.00000000E-01       0.09375

 Together with 48 symmetry operations and time-reversal symmetry 
 yields    32 points in the full Brillouin Zone.


 setmesh: FFT mesh size selected  =  12x 12x 12
          total number of points  =     1728


 k       eigenvalues [eV]
  1         -3.41  -0.55   2.26   3.62   7.31  10.29  11.54  11.82  15.98  16.58

  2         -5.34   1.90   5.10   5.10   7.78   9.37   9.37  12.59  13.22  13.22

 Number of electrons calculated from density =    7.9981; Expected =    8.0000
 average of density, n =  0.029708
 r_s =    2.0030
 omega_plasma =   16.6262 [eV]


 === KS Band Gaps ===
  >>>> For spin  1
   Minimum optical gap =   2.6800 [eV], located at k-point      :  -0.2500  0.0000  0.0000
   Fundamental gap     =   2.2127 [eV], Top of valence bands at :  -0.2500  0.0000  0.0000
                                        Bottom of conduction at :  -0.2500  0.5000  0.0000
 SIGMA fundamental parameters:
 PLASMON POLE MODEL  4
 number of plane-waves for SigmaX                   27
 number of plane-waves for SigmaC and W             27
 number of plane-waves for wavefunctions           169
 number of bands                                    10
 number of independent spin polarizations            1
 number of spinorial components                      1
 number of k-points in IBZ                           2
 number of q-points in IBZ                           6
 number of symmetry operations                      48
 number of k-points in BZ                           32
 number of q-points in BZ                           32
 number of frequencies for dSigma/dE                 9
 frequency step for dSigma/dE [eV]                0.25
 number of omega for Sigma on real axis              0
 max omega for Sigma on real axis  [eV]           0.00
 zcut for avoiding poles [eV]                     0.10

 EPSILON^-1 parameters (SCR file):
 dimension of the eps^-1 matrix on file             27
 dimension of the eps^-1 matrix used                27
 number of plane-waves for wavefunctions           169
 number of bands                                    10
 number of q-points in IBZ                           6
 number of frequencies                               2
 number of real frequencies                          1
 number of imag frequencies                          1

 matrix elements of self-energy operator (all in [eV])

 Perturbative Calculation

 k =    0.250   0.750   0.250
 Band     E0 <VxcLDA>   SigX SigC(E0)      Z dSigC/dE  Sig(E)    E-E0       E
    4   3.621 -10.658 -12.317   2.814   0.797  -0.255  -9.738   0.919   4.540
    5   7.312  -9.279  -4.715  -2.459   0.823  -0.215  -7.546   1.733   9.044

 E^0_gap          3.691
 E^GW_gap         4.504
 DeltaE^GW_gap    0.813


== END DATASET(S) ==============================================================
================================================================================
  
 -outvars: echo values of variables after computation  --------
            acell      1.0250000000E+01  1.0250000000E+01  1.0250000000E+01 Bohr
              amu      2.80855000E+01
             awtr1          1
             awtr2          0
             awtr3          1
             awtr4          1
             awtr5          1
             awtr6          1
             bdgw3          4       5
             bdgw4          4       5
             bdgw5          4       5
             bdgw6          4       5
             ecut1     6.00000000E+00 Hartree
             ecut2     5.07277704E+00 Hartree
             ecut3     5.07277704E+00 Hartree
             ecut4     5.07277704E+00 Hartree
             ecut5     5.07277704E+00 Hartree
             ecut6     5.07277704E+00 Hartree
          ecuteps1     0.00000000E+00 Hartree
          ecuteps2     1.50304505E+00 Hartree
          ecuteps3     0.00000000E+00 Hartree
          ecuteps4     0.00000000E+00 Hartree
          ecuteps5     0.00000000E+00 Hartree
          ecuteps6     0.00000000E+00 Hartree
         ecutsigx1     0.00000000E+00 Hartree
         ecutsigx2     0.00000000E+00 Hartree
         ecutsigx3     1.50304505E+00 Hartree
         ecutsigx4     1.50304505E+00 Hartree
         ecutsigx5     1.50304505E+00 Hartree
         ecutsigx6     1.50304505E+00 Hartree
          ecutwfn1     6.00000000E+00 Hartree
          ecutwfn2     5.07277704E+00 Hartree
          ecutwfn3     5.07277704E+00 Hartree
          ecutwfn4     5.07277704E+00 Hartree
          ecutwfn5     5.07277704E+00 Hartree
          ecutwfn6     5.07277704E+00 Hartree
           enunit           2
           etotal1    -8.8591156691E+00
           etotal2     0.0000000000E+00
           etotal3     0.0000000000E+00
           etotal4     0.0000000000E+00
           etotal5     0.0000000000E+00
           etotal6     0.0000000000E+00
            fcart1    -2.0523210542E-31 -4.1046421085E-31 -2.0523210542E-31
                       2.0523210542E-31  4.1046421085E-31  2.0523210542E-31
            fcart2     0.0000000000E+00  0.0000000000E+00  0.0000000000E+00
                       0.0000000000E+00  0.0000000000E+00  0.0000000000E+00
            fcart3     0.0000000000E+00  0.0000000000E+00  0.0000000000E+00
                       0.0000000000E+00  0.0000000000E+00  0.0000000000E+00
            fcart4     0.0000000000E+00  0.0000000000E+00  0.0000000000E+00
                       0.0000000000E+00  0.0000000000E+00  0.0000000000E+00
            fcart5     0.0000000000E+00  0.0000000000E+00  0.0000000000E+00
                       0.0000000000E+00  0.0000000000E+00  0.0000000000E+00
            fcart6     0.0000000000E+00  0.0000000000E+00  0.0000000000E+00
                       0.0000000000E+00  0.0000000000E+00  0.0000000000E+00
-          fftalg         112
           getkss1          0
           getkss2         -1
           getkss3         -2
           getkss4         -3
           getkss5         -4
           getkss6         -5
           getscr1          0
           getscr2          0
           getscr3         -1
           getscr4         -2
           getscr5         -3
           getscr6         -4
         icutcoul1          6
         icutcoul2          6
         icutcoul3          3
         icutcoul4          3
         icutcoul5          3
         icutcoul6          3
            intxc           1
             iscf           5
           jdtset        1    2    3    4    5    6
              kpt     -2.50000000E-01  5.00000000E-01  0.00000000E+00
                      -2.50000000E-01  0.00000000E+00  0.00000000E+00
            kptgw3     2.50000000E-01  7.50000000E-01  2.50000000E-01
            kptgw4     2.50000000E-01  7.50000000E-01  2.50000000E-01
            kptgw5     2.50000000E-01  7.50000000E-01  2.50000000E-01
            kptgw6     2.50000000E-01  7.50000000E-01  2.50000000E-01
         kptrlatt        2   -2    2     -2    2    2     -2   -2    2
          kptrlen      2.05000000E+01
P           mkmem           2
            natom           2
            nband1         15
            nband2         10
            nband3         10
            nband4         10
            nband5         10
            nband6         10
         nbandkss1         -1
         nbandkss2          0
         nbandkss3          0
         nbandkss4          0
         nbandkss5          0
         nbandkss6          0
           nbdbuf1          5
           nbdbuf2          0
           nbdbuf3          0
           nbdbuf4          0
           nbdbuf5          0
           nbdbuf6          0
           ndtset           6
            ngfft          16      16      16
             nkpt           2
           nkptgw1          0
           nkptgw2          0
           nkptgw3          1
           nkptgw4          1
           nkptgw5          1
           nkptgw6          1
            nline1          3
            nline2          4
            nline3          4
            nline4          4
            nline5          4
            nline6          4
           npweps1          0
           npweps2         27
           npweps3          0
           npweps4          0
           npweps5          0
           npweps6          0
          npwsigx1          0
          npwsigx2          0
          npwsigx3         27
          npwsigx4         27
          npwsigx5         27
          npwsigx6         27
           npwwfn1          0
           npwwfn2        169
           npwwfn3        169
           npwwfn4        169
           npwwfn5        169
           npwwfn6        169
           nsheps1          0
           nsheps2          4
           nsheps3          0
           nsheps4          0
           nsheps5          0
           nsheps6          0
          nshsigx1          0
          nshsigx2          0
          nshsigx3          4
          nshsigx4          4
          nshsigx5          4
          nshsigx6          4
            nstep1         10
            nstep2         30
            nstep3         30
            nstep4         30
            nstep5         30
            nstep6         30
             nsym          48
           ntypat           1
              occ1     2.000000  2.000000  2.000000  2.000000  0.000000  0.000000
                       0.000000  0.000000  0.000000  0.000000  0.000000  0.000000
                       0.000000  0.000000  0.000000
              occ2     2.000000  2.000000  2.000000  2.000000  0.000000  0.000000
                       0.000000  0.000000  0.000000  0.000000
              occ3     2.000000  2.000000  2.000000  2.000000  0.000000  0.000000
                       0.000000  0.000000  0.000000  0.000000
              occ4     2.000000  2.000000  2.000000  2.000000  0.000000  0.000000
                       0.000000  0.000000  0.000000  0.000000
              occ5     2.000000  2.000000  2.000000  2.000000  0.000000  0.000000
                       0.000000  0.000000  0.000000  0.000000
              occ6     2.000000  2.000000  2.000000  2.000000  0.000000  0.000000
                       0.000000  0.000000  0.000000  0.000000
        optdriver1          0
        optdriver2          3
        optdriver3          4
        optdriver4          4
        optdriver5          4
        optdriver6          4
           ppmfrq1     0.00000000E+00 Hartree
           ppmfrq2     6.06363869E-01 Hartree
           ppmfrq3     6.06363869E-01 Hartree
           ppmfrq4     0.00000000E+00 Hartree
           ppmfrq5     0.00000000E+00 Hartree
           ppmfrq6     0.00000000E+00 Hartree
          ppmodel1          1
          ppmodel2          1
          ppmodel3          1
          ppmodel4          2
          ppmodel5          3
          ppmodel6          4
            rprim      0.0000000000E+00  5.0000000000E-01  5.0000000000E-01
                       5.0000000000E-01  0.0000000000E+00  5.0000000000E-01
                       5.0000000000E-01  5.0000000000E-01  0.0000000000E+00
           shiftk      5.00000000E-01  5.00000000E-01  5.00000000E-01
          spgroup         227
           strten1     9.5096202564E-05  9.5096202564E-05  9.5096202564E-05
                       0.0000000000E+00  0.0000000000E+00  0.0000000000E+00
           strten2     0.0000000000E+00  0.0000000000E+00  0.0000000000E+00
                       0.0000000000E+00  0.0000000000E+00  0.0000000000E+00
           strten3     0.0000000000E+00  0.0000000000E+00  0.0000000000E+00
                       0.0000000000E+00  0.0000000000E+00  0.0000000000E+00
           strten4     0.0000000000E+00  0.0000000000E+00  0.0000000000E+00
                       0.0000000000E+00  0.0000000000E+00  0.0000000000E+00
           strten5     0.0000000000E+00  0.0000000000E+00  0.0000000000E+00
                       0.0000000000E+00  0.0000000000E+00  0.0000000000E+00
           strten6     0.0000000000E+00  0.0000000000E+00  0.0000000000E+00
                       0.0000000000E+00  0.0000000000E+00  0.0000000000E+00
           symrel      1  0  0   0  1  0   0  0  1      -1  0  0   0 -1  0   0  0 -1
                       0 -1  1   0 -1  0   1 -1  0       0  1 -1   0  1  0  -1  1  0
                      -1  0  0  -1  0  1  -1  1  0       1  0  0   1  0 -1   1 -1  0
                       0  1 -1   1  0 -1   0  0 -1       0 -1  1  -1  0  1   0  0  1
                      -1  0  0  -1  1  0  -1  0  1       1  0  0   1 -1  0   1  0 -1
                       0 -1  1   1 -1  0   0 -1  0       0  1 -1  -1  1  0   0  1  0
                       1  0  0   0  0  1   0  1  0      -1  0  0   0  0 -1   0 -1  0
                       0  1 -1   0  0 -1   1  0 -1       0 -1  1   0  0  1  -1  0  1
                      -1  0  1  -1  1  0  -1  0  0       1  0 -1   1 -1  0   1  0  0
                       0 -1  0   1 -1  0   0 -1  1       0  1  0  -1  1  0   0  1 -1
                       1  0 -1   0  0 -1   0  1 -1      -1  0  1   0  0  1   0 -1  1
                       0  1  0   0  0  1   1  0  0       0 -1  0   0  0 -1  -1  0  0
                       1  0 -1   0  1 -1   0  0 -1      -1  0  1   0 -1  1   0  0  1
                       0 -1  0   0 -1  1   1 -1  0       0  1  0   0  1 -1  -1  1  0
                      -1  0  1  -1  0  0  -1  1  0       1  0 -1   1  0  0   1 -1  0
                       0  1  0   1  0  0   0  0  1       0 -1  0  -1  0  0   0  0 -1
                       0  0 -1   0  1 -1   1  0 -1       0  0  1   0 -1  1  -1  0  1
                       1 -1  0   0 -1  1   0 -1  0      -1  1  0   0  1 -1   0  1  0
                       0  0  1   1  0  0   0  1  0       0  0 -1  -1  0  0   0 -1  0
                      -1  1  0  -1  0  0  -1  0  1       1 -1  0   1  0  0   1  0 -1
                       0  0  1   0  1  0   1  0  0       0  0 -1   0 -1  0  -1  0  0
                       1 -1  0   0 -1  0   0 -1  1      -1  1  0   0  1  0   0  1 -1
                       0  0 -1   1  0 -1   0  1 -1       0  0  1  -1  0  1   0 -1  1
                      -1  1  0  -1  0  1  -1  0  0       1 -1  0   1  0 -1   1  0  0
            tnons      0.0000000  0.0000000  0.0000000     0.2500000  0.2500000  0.2500000
                       0.0000000  0.0000000  0.0000000     0.2500000  0.2500000  0.2500000
                       0.0000000  0.0000000  0.0000000     0.2500000  0.2500000  0.2500000
                       0.0000000  0.0000000  0.0000000     0.2500000  0.2500000  0.2500000
                       0.0000000  0.0000000  0.0000000     0.2500000  0.2500000  0.2500000
                       0.0000000  0.0000000  0.0000000     0.2500000  0.2500000  0.2500000
                       0.0000000  0.0000000  0.0000000     0.2500000  0.2500000  0.2500000
                       0.0000000  0.0000000  0.0000000     0.2500000  0.2500000  0.2500000
                       0.0000000  0.0000000  0.0000000     0.2500000  0.2500000  0.2500000
                       0.0000000  0.0000000  0.0000000     0.2500000  0.2500000  0.2500000
                       0.0000000  0.0000000  0.0000000     0.2500000  0.2500000  0.2500000
                       0.0000000  0.0000000  0.0000000     0.2500000  0.2500000  0.2500000
                       0.0000000  0.0000000  0.0000000     0.2500000  0.2500000  0.2500000
                       0.0000000  0.0000000  0.0000000     0.2500000  0.2500000  0.2500000
                       0.0000000  0.0000000  0.0000000     0.2500000  0.2500000  0.2500000
                       0.0000000  0.0000000  0.0000000     0.2500000  0.2500000  0.2500000
                       0.0000000  0.0000000  0.0000000     0.2500000  0.2500000  0.2500000
                       0.0000000  0.0000000  0.0000000     0.2500000  0.2500000  0.2500000
                       0.0000000  0.0000000  0.0000000     0.2500000  0.2500000  0.2500000
                       0.0000000  0.0000000  0.0000000     0.2500000  0.2500000  0.2500000
                       0.0000000  0.0000000  0.0000000     0.2500000  0.2500000  0.2500000
                       0.0000000  0.0000000  0.0000000     0.2500000  0.2500000  0.2500000
                       0.0000000  0.0000000  0.0000000     0.2500000  0.2500000  0.2500000
                       0.0000000  0.0000000  0.0000000     0.2500000  0.2500000  0.2500000
           tolwfr1     1.00000000E-16
           tolwfr2     0.00000000E+00
           tolwfr3     0.00000000E+00
           tolwfr4     0.00000000E+00
           tolwfr5     0.00000000E+00
           tolwfr6     0.00000000E+00
            typat      1  1
              wtk        0.75000    0.25000
           xangst      0.0000000000E+00  0.0000000000E+00  0.0000000000E+00
                       1.3560165970E+00  1.3560165970E+00  1.3560165970E+00
            xcart      0.0000000000E+00  0.0000000000E+00  0.0000000000E+00
                       2.5625000000E+00  2.5625000000E+00  2.5625000000E+00
             xred      0.0000000000E+00  0.0000000000E+00  0.0000000000E+00
                       2.5000000000E-01  2.5000000000E-01  2.5000000000E-01
             zcut1     3.67493260E-03 Hartree
             zcut2     3.67493260E-03 Hartree
             zcut3     3.67493254E-03 Hartree
             zcut4     3.67493254E-03 Hartree
             zcut5     3.67493254E-03 Hartree
             zcut6     3.67493254E-03 Hartree
            znucl       14.00000

================================================================================


- Timing analysis has been suppressed with timopt=0



================================================================================

 Suggested references for the acknowledgment of ABINIT usage.

 The users of ABINIT have little formal obligations with respect to the ABINIT group
 (those specified in the GNU General Public License, http://www.gnu.org/copyleft/gpl.txt).
 However, it is common practice in the scientific literature,
 to acknowledge the efforts of people that have made the research possible.
 In this spirit, please find below suggested citations of work written by ABINIT developers,
 corresponding to implementations inside of ABINIT that you have used in the present run.
 Note also that it will be of great value to readers of publications presenting these results,
 to read papers enabling them to understand the theoretical formalism and details
 of the ABINIT implementation.
 For information on why they are suggested, see also http://www.abinit.org/about/?text=acknowledgments.

 [1] ABINIT : First-principles approach of materials and nanosystem properties.
 X. Gonze, B. Amadon, P.-M. Anglade, J.-M. Beuken, F. Bottin, P. Boulanger, F. Bruneval,
 D. Caliste, R. Caracas, M. Cote, T. Deutsch, L. Genovese, Ph. Ghosez, M. Giantomassi
 S. Goedecker, D.R. Hamann, P. Hermet, F. Jollet, G. Jomard, S. Leroux, M. Mancini, S. Mazevet,
 M.J.T. Oliveira, G. Onida, Y. Pouillon, T. Rangel, G.-M. Rignanese, D. Sangalli, R. Shaltaf,
 M. Torrent, M.J. Verstraete, G. Zerah, J.W. Zwanziger
 Computer Phys. Comm. 180, 2582-2615 (2009).
 Comment : the third generic paper describing the ABINIT project.
 Note that a version of this paper, that is not formatted for Computer Phys. Comm. 
 is available at http://www.abinit.org/about/ABINIT_CPC_v10.pdf .
 The licence allows the authors to put it on the Web.

 [2] A brief introduction to the ABINIT software package.
 X. Gonze, G.-M. Rignanese, M. Verstraete, J.-M. Beuken, Y. Pouillon, R. Caracas, F. Jollet,
 M. Torrent, G. Zerah, M. Mikami, Ph. Ghosez, M. Veithen, J.-Y. Raty, V. Olevano, F. Bruneval,
 L. Reining, R. Godby, G. Onida, D.R. Hamann, and D.C. Allan.
 Z. Kristallogr. 220, 558-562 (2005).
 Comment : the second generic paper describing the ABINIT project. Note that this paper
 should be cited especially if you are using the GW part of ABINIT, as several authors
 of this part are not in the list of authors of the first or third paper.
 The .pdf of the latter paper is available at http://www.abinit.org/about/zfk_0505-06_558-562.pdf.
 Note that it should not redistributed (Copyright by Oldenburg Wissenshaftverlag,
 the licence allows the authors to put it on the Web).


 And optionally :

 [3] First-principles computation of material properties : the ABINIT software project. 
 X. Gonze, J.-M. Beuken, R. Caracas, F. Detraux, M. Fuchs, G.-M. Rignanese, L. Sindic,
 M. Verstraete, G. Zerah, F. Jollet, M. Torrent, A. Roy, M. Mikami, Ph. Ghosez, J.-Y. Raty, D.C. Allan.
 Computational Materials Science 25, 478-492 (2002). http://dx.doi.org/10.1016/S0927-0256(02)00325-7
 Comment : the original paper describing the ABINIT project.

 [4] Fast radix 2, 3, 4 and 5 kernels for Fast Fourier Transformations
 on computers with overlapping multiply-add instructions.
 S. Goedecker, SIAM J. on Scientific Computing 18, 1605 (1997).

 [5] Towards a potential-based conjugate gradient algorithm for order-N self-consistent
 total energy calculations.
 X. Gonze, Phys. Rev. B 54, 4383 (1996).
 Comment : The potential-based conjugate-gradient algorithm, used when iscf=5, is not published.
 However, many elements of this algorithm have been explained in the paper above.
-
- Proc.   0 individual time (sec): cpu=          3.6  wall=          3.6

================================================================================

 Calculation completed.
.Delivered   17 WARNINGs and  14 COMMENTs to log file.
+Overall time at end (sec) : cpu=          3.6  wall=          3.6
