
.Version 7.9.3 of ABINIT 
.(MPI version, prepared for a x86_64_linux_gnu4.7 computer) 

.Copyright (C) 1998-2014 ABINIT group . 
 ABINIT comes with ABSOLUTELY NO WARRANTY.
 It is free software, and you are welcome to redistribute it
 under certain conditions (GNU General Public License,
 see ~abinit/COPYING or http://www.gnu.org/copyleft/gpl.txt).

 ABINIT is a project of the Universite Catholique de Louvain,
 Corning Inc. and other collaborators, see ~abinit/doc/developers/contributors.txt .
 Please read ~abinit/doc/users/acknowledgments.html for suggested
 acknowledgments of the ABINIT effort.
 For more information, see http://www.abinit.org .

.Starting date : Sat 30 Aug 2014.
- ( at 22h33 )
  
- input  file    -> t40.in
- output file    -> t40.out
- root for input  files -> t40i
- root for output files -> t40o


 Symmetries : space group P4 m m (# 99); Bravais tP (primitive tetrag.)
================================================================================
 Values of the parameters that define the memory need of the present run
   intxc =         0  ionmov =         1    iscf =         5 xclevel =         1
  lmnmax =         2   lnmax =         2   mband =        20  mffmem =         1
P  mgfft =        48   mkmem =         1 mpssoang=         3     mpw =        88
  mqgrid =      3001   natom =         8    nfft =      3072    nkpt =         1
  nloalg =         4  nspden =         1 nspinor =         1  nsppol =         1
    nsym =         8  n1xccc =      2501  ntypat =         1  occopt =         3
================================================================================
P This job should need less than                       2.103 Mbytes of memory.
P Max. in main chain + fourwf.f
P            6 blocks of mpw  integer numbers, for      0.002 Mbytes.
P           79 blocks of mpw  real(dp)  numbers, for      0.053 Mbytes.
P            2 blocks of nfft integer numbers, for      0.023 Mbytes.
P           29 blocks of nfft real(dp)  numbers, for      0.680 Mbytes.
P              Additional     real(dp)  numbers, for      0.368 Mbytes.
P              With residue estimated to be             0.976 Mbytes.
P
P Comparison of the memory needs of different chains
P Main chain + fourwf.f                 2.103 Mbytes.
P Main chain + nonlop.f + opernl.f      2.082 Mbytes.
P XC chain                              1.924 Mbytes.
P mkrho chain                           1.966 Mbytes.
P fourdp chain                          1.938 Mbytes.
- parallel k-point chain                1.877 Mbytes.
P newvtr chain                          1.924 Mbytes.
  Rough estimation (10% accuracy) of disk space for files :
_ WF disk file :      0.029 Mbytes ; DEN or POT disk file :      0.025 Mbytes.
================================================================================

--------------------------------------------------------------------------------
------------- Echo of variables that govern the present computation ------------
--------------------------------------------------------------------------------
-
- outvars: echo of selected default values                                      
-   accesswff0 =  0 , fftalg0 =112 , wfoptalg0 =  0
-
- outvars: echo of global parameters not present in the input file              
-  max_nthreads =    0
-
 -outvars: echo values of preprocessed input variables --------
            acell      5.0000000000E+00  3.0000000000E+01  5.0000000000E+00 Bohr
              amu      2.80855000E+01
            dtion      3.50000000E+02
             ecut      3.00000000E+00 Hartree
-          fftalg         112
           iatfix        1    2    3    4
           ionmov           1
             iscf           5
           istwfk        2
           kptopt           0
P           mkmem           1
           natfix           4
            natom           8
            nband          20
           nconeq           1
            ngfft           8      48       8
             nkpt           1
            nline           6
            nstep         100
             nsym           8
            ntime          10
           ntypat           1
              occ      2.000000  2.000000  2.000000  2.000000  2.000000  2.000000
                       2.000000  2.000000  2.000000  2.000000  2.000000  2.000000
                       2.000000  2.000000  2.000000  2.000000  0.000000  0.000000
                       0.000000  0.000000
           occopt           3
        optforces           1
           prtvol          10
          spgroup          99
           symrel      1  0  0   0  1  0   0  0  1      -1  0  0   0  1  0   0  0  1
                      -1  0  0   0  1  0   0  0 -1       1  0  0   0  1  0   0  0 -1
                       0  0  1   0  1  0   1  0  0       0  0 -1   0  1  0   1  0  0
                       0  0 -1   0  1  0  -1  0  0       0  0  1   0  1  0  -1  0  0
           toldff      1.00000000E-05
           tolmxf      1.00000000E-03
            typat      1  1  1  1  1  1  1  1
          wtatcon      0.00000000E+00  0.00000000E+00  0.00000000E+00
                       0.00000000E+00  0.00000000E+00  0.00000000E+00
                       0.00000000E+00  0.00000000E+00  0.00000000E+00
                       0.00000000E+00  0.00000000E+00  0.00000000E+00
                       0.00000000E+00 -1.00000000E+00  0.00000000E+00
                       0.00000000E+00  1.00000000E+00  0.00000000E+00
                       0.00000000E+00  1.00000000E+00  0.00000000E+00
                       0.00000000E+00 -1.00000000E+00  0.00000000E+00
           xangst      0.0000000000E+00  5.2917720859E+00  0.0000000000E+00
                       0.0000000000E+00  6.8793037117E+00  0.0000000000E+00
                       0.0000000000E+00  8.4668353374E+00  0.0000000000E+00
                       0.0000000000E+00  1.0054366963E+01  0.0000000000E+00
                       0.0000000000E+00 -3.1750632515E+00  0.0000000000E+00
                       0.0000000000E+00 -1.0583544172E+00  0.0000000000E+00
                       0.0000000000E+00  3.4396518558E+00  0.0000000000E+00
                       0.0000000000E+00  1.3229430215E+00  0.0000000000E+00
            xcart      0.0000000000E+00  1.0000000000E+01  0.0000000000E+00
                       0.0000000000E+00  1.3000000000E+01  0.0000000000E+00
                       0.0000000000E+00  1.6000000000E+01  0.0000000000E+00
                       0.0000000000E+00  1.9000000000E+01  0.0000000000E+00
                       0.0000000000E+00 -6.0000000000E+00  0.0000000000E+00
                       0.0000000000E+00 -2.0000000000E+00  0.0000000000E+00
                       0.0000000000E+00  6.5000000000E+00  0.0000000000E+00
                       0.0000000000E+00  2.5000000000E+00  0.0000000000E+00
             xred      0.0000000000E+00  3.3333333333E-01  0.0000000000E+00
                       0.0000000000E+00  4.3333333333E-01  0.0000000000E+00
                       0.0000000000E+00  5.3333333333E-01  0.0000000000E+00
                       0.0000000000E+00  6.3333333333E-01  0.0000000000E+00
                       0.0000000000E+00 -2.0000000000E-01  0.0000000000E+00
                       0.0000000000E+00 -6.6666666667E-02  0.0000000000E+00
                       0.0000000000E+00  2.1666666667E-01  0.0000000000E+00
                       0.0000000000E+00  8.3333333333E-02  0.0000000000E+00
            znucl       14.00000

================================================================================

 chkinp: Checking input parameters for consistency.

================================================================================
== DATASET  1 ==================================================================
-   nproc =    1

 Exchange-correlation functional for the present dataset will be:
  LDA: new Teter (4/93) with spin-polarized option - ixc=1
 Citation for XC functional:
  S. Goedecker, M. Teter, J. Huetter, PRB 54, 1703 (1996)

 Real(R)+Recip(G) space primitive vectors, cartesian coordinates (Bohr,Bohr^-1):
 R(1)=  5.0000000  0.0000000  0.0000000  G(1)=  0.2000000  0.0000000  0.0000000
 R(2)=  0.0000000 30.0000000  0.0000000  G(2)=  0.0000000  0.0333333  0.0000000
 R(3)=  0.0000000  0.0000000  5.0000000  G(3)=  0.0000000  0.0000000  0.2000000
 Unit cell volume ucvol=  7.5000000E+02 bohr^3
 Angles (23,13,12)=  9.00000000E+01  9.00000000E+01  9.00000000E+01 degrees

 getcut: wavevector=  0.0000  0.0000  0.0000  ngfft=   8  48   8
         ecut(hartree)=      3.000   => boxcut(ratio)=   2.05208

--- Pseudopotential description ------------------------------------------------
- pspini: atom type   1  psp file is /home/gonze/ABINIT/ABINITv7.9.3/trunk/7.9.3-private/tests/Psps_for_tests/14si.pspnc
- pspatm: opening atomic psp file    /home/gonze/ABINIT/ABINITv7.9.3/trunk/7.9.3-private/tests/Psps_for_tests/14si.pspnc
-  Troullier-Martins psp for element  Si        Thu Oct 27 17:31:21 EDT 1994
- 14.00000   4.00000    940714                znucl, zion, pspdat
    1    1    2    2      2001   0.00000      pspcod,pspxc,lmax,lloc,mmax,r2well
    0   5.907  14.692    1   2.0872718        l,e99.0,e99.9,nproj,rcpsp
   0.00000000   0.00000000   0.00000000   0.00000000     rms, ekb1, ekb2, epsatm
    1   2.617   4.181    1   2.0872718        l,e99.0,e99.9,nproj,rcpsp
   0.00000000   0.00000000   0.00000000   0.00000000     rms, ekb1, ekb2, epsatm
    2   0.000   0.000    0   2.0872718        l,e99.0,e99.9,nproj,rcpsp
   0.00000000   0.00000000   0.00000000   0.00000000     rms, ekb1, ekb2, epsatm
    1.80626423934776    0.22824404341771    1.17378968127746   rchrg,fchrg,qchrg
 pspatm: epsatm=    1.43386982
         --- l  ekb(1:nproj) -->
             0    3.287949
             1    1.849886
 pspatm: atomic psp has been read  and splines computed

   3.67070674E+02                                ecore*ucvol(ha*bohr**3)
--------------------------------------------------------------------------------

P newkpt: treating     20 bands with npw=      88 for ikpt=   1 by node    0

_setup2: Arith. and geom. avg. npw (full set) are     175.000     175.000

================================================================================

=== [ionmov= 1] Molecular dynamics with viscosity (vis= 1.00000E+02)        
================================================================================

--- Iteration: ( 1/10) Internal Cycle: (1/4)
--------------------------------------------------------------------------------

---SELF-CONSISTENT-FIELD CONVERGENCE--------------------------------------------

     iter   Etot(hartree)      deltaE(h)  residm     vres2    diffor    maxfor

 ETOT  1  -25.602997337083    -2.560E+01 2.275E-03 1.786E+04 4.160E-01 4.160E-01

 cartesian forces (ha/bohr); non-corrected avg=  0.00E+00 -1.40E-04  0.00E+00
    1     0.00000000000E+00   -3.93392460353E-01    0.00000000000E+00
    2     0.00000000000E+00   -2.51893817725E-01    0.00000000000E+00
    3     0.00000000000E+00    2.96723417268E-01    0.00000000000E+00
    4     0.00000000000E+00    5.91206892380E-01    0.00000000000E+00
    5     0.00000000000E+00   -4.16046521982E-01    0.00000000000E+00
    6     0.00000000000E+00   -1.45072965769E-01    0.00000000000E+00
    7     0.00000000000E+00    2.37509499849E-02    0.00000000000E+00
    8     0.00000000000E+00    2.94724506198E-01    0.00000000000E+00
 prteigrs : about to open file t40o_TIMA_EIG
 Fermi (or HOMO) energy (hartree) =   0.51070   Average Vxc (hartree)=  -0.40613
 Eigenvalues (hartree) for nkpt=   1  k points:
 kpt#   1, nband= 20, wtk=  1.00000, kpt=  0.0000  0.0000  0.0000 (reduced coord)
  -0.26679  -0.20072  -0.12918  -0.08624  -0.06588  -0.00397   0.04747   0.12838
   0.20483   0.31597   0.37805   0.39931   0.39940   0.47158   0.47186   0.50588
   0.52546   0.53592   0.55745   0.57020
      occupation numbers for kpt#   1
   2.00000   2.00000   2.00000   2.00000   2.00000   1.99999   1.99998   1.99986
   1.99905   1.98474   1.92996   1.88368   1.88343   1.45345   1.45059   1.06017
   0.81759   0.69479   0.47414   0.36857

 ETOT  2  -9.7915048111233     1.581E+01 2.057E-04 5.408E+04 7.035E-01 7.325E-01

 cartesian forces (ha/bohr); non-corrected avg=  0.00E+00 -2.20E-04  0.00E+00
    1     0.00000000000E+00   -1.31741870488E+00    0.00000000000E+00
    2     0.00000000000E+00   -9.12027892030E-01    0.00000000000E+00
    3     0.00000000000E+00    4.14402632161E-01    0.00000000000E+00
    4     0.00000000000E+00    1.82563234366E+00    0.00000000000E+00
    5     0.00000000000E+00   -6.88315275236E-01    0.00000000000E+00
    6     0.00000000000E+00   -7.32537243044E-01    0.00000000000E+00
    7     0.00000000000E+00    7.27243053591E-01    0.00000000000E+00
    8     0.00000000000E+00    6.83021085782E-01    0.00000000000E+00
 prteigrs : about to open file t40o_TIMA_EIG
 Fermi (or HOMO) energy (hartree) =   0.54189   Average Vxc (hartree)=  -0.40941
 Eigenvalues (hartree) for nkpt=   1  k points:
 kpt#   1, nband= 20, wtk=  1.00000, kpt=  0.0000  0.0000  0.0000 (reduced coord)
  -0.20425  -0.18441  -0.11533  -0.05981  -0.04985   0.02207   0.04992   0.15490
   0.17960   0.30940   0.37268   0.48773   0.48792   0.50516   0.50522   0.52316
   0.56493   0.56501   0.56574   0.57389
      occupation numbers for kpt#   1
   2.00000   2.00000   2.00000   2.00000   2.00000   2.00000   1.99999   1.99987
   1.99977   1.99404   1.97132   1.58961   1.58804   1.42939   1.42878   1.23002
   0.71977   0.71884   0.71047   0.62009

 ETOT  3  -32.906673981990    -2.312E+01 8.381E-03 7.651E+02 9.376E-01 2.104E-01

 cartesian forces (ha/bohr); non-corrected avg=  0.00E+00  2.28E-03  0.00E+00
    1     0.00000000000E+00   -2.11958141958E-01    0.00000000000E+00
    2     0.00000000000E+00   -8.75325959396E-02    0.00000000000E+00
    3     0.00000000000E+00    8.49745960599E-02    0.00000000000E+00
    4     0.00000000000E+00    5.37906510853E-01    0.00000000000E+00
    5     0.00000000000E+00   -1.00326388277E-01    0.00000000000E+00
    6     0.00000000000E+00    4.86598056244E-02    0.00000000000E+00
    7     0.00000000000E+00   -2.10354990132E-01    0.00000000000E+00
    8     0.00000000000E+00   -6.13687962303E-02    0.00000000000E+00
 prteigrs : about to open file t40o_TIMA_EIG
 Fermi (or HOMO) energy (hartree) =   0.54517   Average Vxc (hartree)=  -0.40899
 Eigenvalues (hartree) for nkpt=   1  k points:
 kpt#   1, nband= 20, wtk=  1.00000, kpt=  0.0000  0.0000  0.0000 (reduced coord)
  -0.19792  -0.16154  -0.12984  -0.10336  -0.06022   0.01651   0.03403   0.12528
   0.19596   0.30802   0.38521   0.47228   0.47362   0.52596   0.52662   0.52989
   0.54522   0.56618   0.57162   0.58587
      occupation numbers for kpt#   1
   2.00000   2.00000   2.00000   2.00000   2.00000   2.00000   1.99999   1.99994
   1.99968   1.99469   1.96399   1.72166   1.71355   1.23556   1.22774   1.18870
   0.99940   0.74323   0.68085   0.53102

 ETOT  4  -33.020259592934    -1.136E-01 1.774E-04 7.015E+02 9.510E-02 1.153E-01

 cartesian forces (ha/bohr); non-corrected avg=  0.00E+00 -2.71E-04  0.00E+00
    1     0.00000000000E+00   -4.38519535904E-01    0.00000000000E+00
    2     0.00000000000E+00   -1.93780420699E-02    0.00000000000E+00
    3     0.00000000000E+00   -1.15280616035E-02    0.00000000000E+00
    4     0.00000000000E+00    6.42499716737E-01    0.00000000000E+00
    5     0.00000000000E+00   -5.98080089755E-02    0.00000000000E+00
    6     0.00000000000E+00    2.87228273748E-02    0.00000000000E+00
    7     0.00000000000E+00   -1.15259865954E-01    0.00000000000E+00
    8     0.00000000000E+00   -2.67290296041E-02    0.00000000000E+00
 prteigrs : about to open file t40o_TIMA_EIG
 Fermi (or HOMO) energy (hartree) =   0.54367   Average Vxc (hartree)=  -0.40985
 Eigenvalues (hartree) for nkpt=   1  k points:
 kpt#   1, nband= 20, wtk=  1.00000, kpt=  0.0000  0.0000  0.0000 (reduced coord)
  -0.18642  -0.15466  -0.13707  -0.10108  -0.05886   0.01552   0.03737   0.12522
   0.19323   0.30607   0.38355   0.48608   0.48612   0.52400   0.52402   0.52947
   0.54656   0.55343   0.55348   0.59548
      occupation numbers for kpt#   1
   2.00000   2.00000   2.00000   2.00000   2.00000   2.00000   1.99999   1.99994
   1.99969   1.99475   1.96414   1.61682   1.61656   1.24106   1.24079   1.17570
   0.96399   0.87861   0.87806   0.42992

 ETOT  5  -33.126162295400    -1.059E-01 3.975E-05 5.494E+02 3.879E-02 1.540E-01

 cartesian forces (ha/bohr); non-corrected avg=  0.00E+00 -9.63E-05  0.00E+00
    1     0.00000000000E+00   -3.94509957633E-01    0.00000000000E+00
    2     0.00000000000E+00   -9.81193789993E-03    0.00000000000E+00
    3     0.00000000000E+00    3.60956187190E-03    0.00000000000E+00
    4     0.00000000000E+00    6.07737097087E-01    0.00000000000E+00
    5     0.00000000000E+00   -8.69334271745E-02    0.00000000000E+00
    6     0.00000000000E+00    5.05363099471E-02    0.00000000000E+00
    7     0.00000000000E+00   -1.54048691660E-01    0.00000000000E+00
    8     0.00000000000E+00   -1.65789545383E-02    0.00000000000E+00
 prteigrs : about to open file t40o_TIMA_EIG
 Fermi (or HOMO) energy (hartree) =   0.54126   Average Vxc (hartree)=  -0.40957
 Eigenvalues (hartree) for nkpt=   1  k points:
 kpt#   1, nband= 20, wtk=  1.00000, kpt=  0.0000  0.0000  0.0000 (reduced coord)
  -0.19194  -0.15873  -0.13415  -0.10299  -0.06030   0.01571   0.03463   0.12432
   0.19377   0.30614   0.38325   0.47834   0.47834   0.52024   0.52024   0.52759
   0.54500   0.55579   0.55580   0.59022
      occupation numbers for kpt#   1
   2.00000   2.00000   2.00000   2.00000   2.00000   2.00000   1.99999   1.99994
   1.99966   1.99441   1.96223   1.65642   1.65642   1.25679   1.25678   1.16915
   0.95325   0.82027   0.82021   0.45448

 ETOT  6  -32.422674177760     7.035E-01 1.209E-03 2.151E+03 1.160E-01 2.354E-01

 cartesian forces (ha/bohr); non-corrected avg=  0.00E+00  3.97E-04  0.00E+00
    1     0.00000000000E+00   -2.84704391344E-01    0.00000000000E+00
    2     0.00000000000E+00    7.86973888593E-02    0.00000000000E+00
    3     0.00000000000E+00   -8.65254076982E-03    0.00000000000E+00
    4     0.00000000000E+00    5.63172657884E-01    0.00000000000E+00
    5     0.00000000000E+00   -4.16923417954E-02    0.00000000000E+00
    6     0.00000000000E+00    6.11052584521E-02    0.00000000000E+00
    7     0.00000000000E+00   -2.35361815767E-01    0.00000000000E+00
    8     0.00000000000E+00   -1.32564215519E-01    0.00000000000E+00
 prteigrs : about to open file t40o_TIMA_EIG
 Fermi (or HOMO) energy (hartree) =   0.54592   Average Vxc (hartree)=  -0.41027
 Eigenvalues (hartree) for nkpt=   1  k points:
 kpt#   1, nband= 20, wtk=  1.00000, kpt=  0.0000  0.0000  0.0000 (reduced coord)
  -0.18180  -0.14822  -0.13401  -0.09830  -0.05293   0.01461   0.03984   0.13112
   0.18943   0.30481   0.39118   0.48143   0.48143   0.53771   0.54109   0.54109
   0.54304   0.54304   0.54761   0.59688
      occupation numbers for kpt#   1
   2.00000   2.00000   2.00000   2.00000   2.00000   2.00000   1.99999   1.99994
   1.99973   1.99519   1.95908   1.66746   1.66746   1.10232   1.06040   1.06038
   1.03603   1.03600   0.97890   0.43714

 ETOT  7  -33.347917499339    -9.252E-01 5.705E-04 7.456E+01 7.491E-02 1.605E-01

 cartesian forces (ha/bohr); non-corrected avg=  0.00E+00 -1.12E-04  0.00E+00
    1     0.00000000000E+00   -3.80496306571E-01    0.00000000000E+00
    2     0.00000000000E+00    1.17597656837E-02    0.00000000000E+00
    3     0.00000000000E+00    2.43631838701E-02    0.00000000000E+00
    4     0.00000000000E+00    6.09802376558E-01    0.00000000000E+00
    5     0.00000000000E+00   -6.77431471268E-02    0.00000000000E+00
    6     0.00000000000E+00    2.77364922028E-02    0.00000000000E+00
    7     0.00000000000E+00   -1.60451001973E-01    0.00000000000E+00
    8     0.00000000000E+00   -6.49713626435E-02    0.00000000000E+00
 prteigrs : about to open file t40o_TIMA_EIG
 Fermi (or HOMO) energy (hartree) =   0.54269   Average Vxc (hartree)=  -0.40983
 Eigenvalues (hartree) for nkpt=   1  k points:
 kpt#   1, nband= 20, wtk=  1.00000, kpt=  0.0000  0.0000  0.0000 (reduced coord)
  -0.18605  -0.15309  -0.13794  -0.10167  -0.05850   0.01461   0.03583   0.12543
   0.19164   0.30503   0.38550   0.48070   0.48070   0.52733   0.52734   0.53110
   0.54536   0.55141   0.55141   0.58972
      occupation numbers for kpt#   1
   2.00000   2.00000   2.00000   2.00000   2.00000   2.00000   1.99999   1.99994
   1.99969   1.99476   1.96146   1.64980   1.64980   1.18972   1.18964   1.14391
   0.96664   0.89155   0.89145   0.47165

 ETOT  8  -33.350057582380    -2.140E-03 3.941E-04 8.224E+01 7.579E-03 1.660E-01

 cartesian forces (ha/bohr); non-corrected avg=  0.00E+00  1.73E-06  0.00E+00
    1     0.00000000000E+00   -3.74523936492E-01    0.00000000000E+00
    2     0.00000000000E+00   -1.87099471494E-04    0.00000000000E+00
    3     0.00000000000E+00    2.76191748550E-02    0.00000000000E+00
    4     0.00000000000E+00    6.11283986565E-01    0.00000000000E+00
    5     0.00000000000E+00   -7.47041524828E-02    0.00000000000E+00
    6     0.00000000000E+00    3.38873333446E-02    0.00000000000E+00
    7     0.00000000000E+00   -1.65983396073E-01    0.00000000000E+00
    8     0.00000000000E+00   -5.73919102452E-02    0.00000000000E+00
 prteigrs : about to open file t40o_TIMA_EIG
 Fermi (or HOMO) energy (hartree) =   0.54163   Average Vxc (hartree)=  -0.40966
 Eigenvalues (hartree) for nkpt=   1  k points:
 kpt#   1, nband= 20, wtk=  1.00000, kpt=  0.0000  0.0000  0.0000 (reduced coord)
  -0.18671  -0.15406  -0.13681  -0.10161  -0.05856   0.01518   0.03590   0.12547
   0.19245   0.30562   0.38536   0.48067   0.48067   0.52606   0.52606   0.53074
   0.54562   0.55280   0.55280   0.57862
      occupation numbers for kpt#   1
   2.00000   2.00000   2.00000   2.00000   2.00000   2.00000   1.99999   1.99994
   1.99968   1.99454   1.96059   1.64225   1.64225   1.19225   1.19223   1.13537
   0.95020   0.86136   0.86131   0.56805

 ETOT  9  -33.377174645092    -2.712E-02 6.257E-05 3.433E+01 3.164E-02 1.976E-01

 cartesian forces (ha/bohr); non-corrected avg=  0.00E+00  8.81E-06  0.00E+00
    1     0.00000000000E+00   -3.35038586704E-01    0.00000000000E+00
    2     0.00000000000E+00   -3.76311800675E-03    0.00000000000E+00
    3     0.00000000000E+00    1.34990010546E-02    0.00000000000E+00
    4     0.00000000000E+00    6.06982152518E-01    0.00000000000E+00
    5     0.00000000000E+00   -9.65112134654E-02    0.00000000000E+00
    6     0.00000000000E+00    5.67870171137E-02    0.00000000000E+00
    7     0.00000000000E+00   -1.97626741544E-01    0.00000000000E+00
    8     0.00000000000E+00   -4.43285109653E-02    0.00000000000E+00
 prteigrs : about to open file t40o_TIMA_EIG
 Fermi (or HOMO) energy (hartree) =   0.54287   Average Vxc (hartree)=  -0.40976
 Eigenvalues (hartree) for nkpt=   1  k points:
 kpt#   1, nband= 20, wtk=  1.00000, kpt=  0.0000  0.0000  0.0000 (reduced coord)
  -0.18859  -0.15168  -0.12980  -0.09941  -0.05815   0.01700   0.03618   0.12895
   0.19285   0.30799   0.38663   0.47672   0.47672   0.52752   0.52752   0.53284
   0.54722   0.55607   0.55607   0.58006
      occupation numbers for kpt#   1
   2.00000   2.00000   2.00000   2.00000   2.00000   2.00000   1.99999   1.99994
   1.99968   1.99438   1.96055   1.67878   1.67877   1.18945   1.18945   1.12471
   0.94557   0.83647   0.83639   0.56587

 ETOT 10  -33.387731110054    -1.056E-02 9.131E-06 1.225E+01 9.073E-03 1.928E-01

 cartesian forces (ha/bohr); non-corrected avg=  0.00E+00  3.35E-05  0.00E+00
    1     0.00000000000E+00   -3.39426994184E-01    0.00000000000E+00
    2     0.00000000000E+00    1.73372967196E-03    0.00000000000E+00
    3     0.00000000000E+00    1.74916037863E-02    0.00000000000E+00
    4     0.00000000000E+00    6.07180955224E-01    0.00000000000E+00
    5     0.00000000000E+00   -9.00882525225E-02    0.00000000000E+00
    6     0.00000000000E+00    4.93234179655E-02    0.00000000000E+00
    7     0.00000000000E+00   -1.92813065215E-01    0.00000000000E+00
    8     0.00000000000E+00   -5.34013947267E-02    0.00000000000E+00
 prteigrs : about to open file t40o_TIMA_EIG
 Fermi (or HOMO) energy (hartree) =   0.54283   Average Vxc (hartree)=  -0.40980
 Eigenvalues (hartree) for nkpt=   1  k points:
 kpt#   1, nband= 20, wtk=  1.00000, kpt=  0.0000  0.0000  0.0000 (reduced coord)
  -0.18715  -0.15094  -0.13222  -0.09996  -0.05781   0.01637   0.03637   0.12835
   0.19234   0.30715   0.38679   0.47816   0.47816   0.52868   0.52868   0.53298
   0.54690   0.55456   0.55456   0.57886
      occupation numbers for kpt#   1
   2.00000   2.00000   2.00000   2.00000   2.00000   2.00000   1.99999   1.99994
   1.99969   1.99449   1.96036   1.66867   1.66867   1.17503   1.17503   1.12243
   0.94911   0.85440   0.85440   0.57779

 ETOT 11  -33.395119179175    -7.388E-03 1.352E-05 1.141E+00 9.526E-03 1.833E-01

 cartesian forces (ha/bohr); non-corrected avg=  0.00E+00 -5.15E-06  0.00E+00
    1     0.00000000000E+00   -3.45426175610E-01    0.00000000000E+00
    2     0.00000000000E+00    6.23601894590E-04    0.00000000000E+00
    3     0.00000000000E+00    1.07439672986E-02    0.00000000000E+00
    4     0.00000000000E+00    6.11410456808E-01    0.00000000000E+00
    5     0.00000000000E+00   -8.68634238390E-02    0.00000000000E+00
    6     0.00000000000E+00    4.46110382056E-02    0.00000000000E+00
    7     0.00000000000E+00   -1.83286963401E-01    0.00000000000E+00
    8     0.00000000000E+00   -5.18125013565E-02    0.00000000000E+00
 prteigrs : about to open file t40o_TIMA_EIG
 Fermi (or HOMO) energy (hartree) =   0.54317   Average Vxc (hartree)=  -0.40988
 Eigenvalues (hartree) for nkpt=   1  k points:
 kpt#   1, nband= 20, wtk=  1.00000, kpt=  0.0000  0.0000  0.0000 (reduced coord)
  -0.18761  -0.15025  -0.13069  -0.09770  -0.05789   0.01742   0.03626   0.12991
   0.19264   0.30810   0.38695   0.47740   0.47740   0.52783   0.52783   0.53328
   0.54789   0.55600   0.55600   0.58015
      occupation numbers for kpt#   1
   2.00000   2.00000   2.00000   2.00000   2.00000   2.00000   1.99999   1.99993
   1.99969   1.99441   1.96053   1.67622   1.67622   1.18944   1.18944   1.12300
   0.94102   0.84100   0.84099   0.56811

 ETOT 12  -33.395113088610     6.091E-06 8.612E-08 9.690E-01 6.650E-04 1.829E-01

 cartesian forces (ha/bohr); non-corrected avg=  0.00E+00  4.44E-06  0.00E+00
    1     0.00000000000E+00   -3.46000458493E-01    0.00000000000E+00
    2     0.00000000000E+00    7.39604543805E-04    0.00000000000E+00
    3     0.00000000000E+00    1.12911934917E-02    0.00000000000E+00
    4     0.00000000000E+00    6.11400291310E-01    0.00000000000E+00
    5     0.00000000000E+00   -8.62378431795E-02    0.00000000000E+00
    6     0.00000000000E+00    4.42080816289E-02    0.00000000000E+00
    7     0.00000000000E+00   -1.82923397055E-01    0.00000000000E+00
    8     0.00000000000E+00   -5.24774722469E-02    0.00000000000E+00
 prteigrs : about to open file t40o_TIMA_EIG
 Fermi (or HOMO) energy (hartree) =   0.54304   Average Vxc (hartree)=  -0.40988
 Eigenvalues (hartree) for nkpt=   1  k points:
 kpt#   1, nband= 20, wtk=  1.00000, kpt=  0.0000  0.0000  0.0000 (reduced coord)
  -0.18762  -0.15041  -0.13100  -0.09794  -0.05797   0.01725   0.03618   0.12967
   0.19254   0.30792   0.38684   0.47745   0.47745   0.52776   0.52776   0.53314
   0.54773   0.55577   0.55577   0.57995
      occupation numbers for kpt#   1
   2.00000   2.00000   2.00000   2.00000   2.00000   2.00000   1.99999   1.99994
   1.99969   1.99442   1.96052   1.67500   1.67500   1.18873   1.18873   1.12318
   0.94152   0.84220   0.84220   0.56888

 ETOT 13  -33.395804022629    -6.909E-04 2.168E-06 1.588E-01 5.864E-04 1.835E-01

 cartesian forces (ha/bohr); non-corrected avg=  0.00E+00  4.05E-06  0.00E+00
    1     0.00000000000E+00   -3.47821252140E-01    0.00000000000E+00
    2     0.00000000000E+00    3.61217743616E-03    0.00000000000E+00
    3     0.00000000000E+00    1.13562877095E-02    0.00000000000E+00
    4     0.00000000000E+00    6.10654347896E-01    0.00000000000E+00
    5     0.00000000000E+00   -8.68085314124E-02    0.00000000000E+00
    6     0.00000000000E+00    4.46090058676E-02    0.00000000000E+00
    7     0.00000000000E+00   -1.83509786318E-01    0.00000000000E+00
    8     0.00000000000E+00   -5.20922490383E-02    0.00000000000E+00
 prteigrs : about to open file t40o_TIMA_EIG
 Fermi (or HOMO) energy (hartree) =   0.54341   Average Vxc (hartree)=  -0.40995
 Eigenvalues (hartree) for nkpt=   1  k points:
 kpt#   1, nband= 20, wtk=  1.00000, kpt=  0.0000  0.0000  0.0000 (reduced coord)
  -0.18708  -0.14984  -0.13018  -0.09693  -0.05791   0.01767   0.03648   0.13062
   0.19238   0.30826   0.38711   0.47762   0.47762   0.52797   0.52797   0.53370
   0.54824   0.55615   0.55615   0.58054
      occupation numbers for kpt#   1
   2.00000   2.00000   2.00000   2.00000   2.00000   2.00000   1.99999   1.99993
   1.99969   1.99442   1.96061   1.67636   1.67636   1.19067   1.19067   1.12082
   0.93969   0.84213   0.84213   0.56655

 ETOT 14  -33.395897591227    -9.357E-05 6.312E-07 1.052E-01 3.382E-04 1.838E-01

 cartesian forces (ha/bohr); non-corrected avg=  0.00E+00  3.37E-06  0.00E+00
    1     0.00000000000E+00   -3.48745384831E-01    0.00000000000E+00
    2     0.00000000000E+00    5.07614175191E-03    0.00000000000E+00
    3     0.00000000000E+00    1.13810902445E-02    0.00000000000E+00
    4     0.00000000000E+00    6.10281428476E-01    0.00000000000E+00
    5     0.00000000000E+00   -8.71405423785E-02    0.00000000000E+00
    6     0.00000000000E+00    4.48513642754E-02    0.00000000000E+00
    7     0.00000000000E+00   -1.83848002096E-01    0.00000000000E+00
    8     0.00000000000E+00   -5.18560954424E-02    0.00000000000E+00
 prteigrs : about to open file t40o_TIMA_EIG
 Fermi (or HOMO) energy (hartree) =   0.54353   Average Vxc (hartree)=  -0.40999
 Eigenvalues (hartree) for nkpt=   1  k points:
 kpt#   1, nband= 20, wtk=  1.00000, kpt=  0.0000  0.0000  0.0000 (reduced coord)
  -0.18687  -0.14962  -0.12982  -0.09646  -0.05795   0.01782   0.03657   0.13107
   0.19223   0.30838   0.38718   0.47763   0.47763   0.52800   0.52800   0.53392
   0.54844   0.55627   0.55627   0.58079
      occupation numbers for kpt#   1
   2.00000   2.00000   2.00000   2.00000   2.00000   2.00000   1.99999   1.99993
   1.99969   1.99442   1.96066   1.67711   1.67711   1.19173   1.19173   1.11955
   0.93866   0.84207   0.84207   0.56529

 ETOT 15  -33.395967351966    -6.976E-05 3.495E-07 6.354E-02 6.704E-04 1.832E-01

 cartesian forces (ha/bohr); non-corrected avg=  0.00E+00 -2.56E-06  0.00E+00
    1     0.00000000000E+00   -3.48705437683E-01    0.00000000000E+00
    2     0.00000000000E+00    4.44769990770E-03    0.00000000000E+00
    3     0.00000000000E+00    9.23412625858E-03    0.00000000000E+00
    4     0.00000000000E+00    6.12640419526E-01    0.00000000000E+00
    5     0.00000000000E+00   -8.64701578092E-02    0.00000000000E+00
    6     0.00000000000E+00    4.43954805810E-02    0.00000000000E+00
    7     0.00000000000E+00   -1.83203884585E-01    0.00000000000E+00
    8     0.00000000000E+00   -5.23382461951E-02    0.00000000000E+00
 prteigrs : about to open file t40o_TIMA_EIG
 Fermi (or HOMO) energy (hartree) =   0.54364   Average Vxc (hartree)=  -0.41002
 Eigenvalues (hartree) for nkpt=   1  k points:
 kpt#   1, nband= 20, wtk=  1.00000, kpt=  0.0000  0.0000  0.0000 (reduced coord)
  -0.18660  -0.14929  -0.12979  -0.09614  -0.05790   0.01792   0.03658   0.13134
   0.19216   0.30845   0.38718   0.47784   0.47784   0.52819   0.52819   0.53407
   0.54861   0.55621   0.55621   0.58088
      occupation numbers for kpt#   1
   2.00000   2.00000   2.00000   2.00000   2.00000   2.00000   1.99999   1.99993
   1.99969   1.99442   1.96076   1.67639   1.67639   1.19077   1.19077   1.11910
   0.93793   0.84419   0.84419   0.56547

 ETOT 16  -33.396011438371    -4.409E-05 3.002E-07 4.700E-03 3.644E-04 1.836E-01

 cartesian forces (ha/bohr); non-corrected avg=  0.00E+00 -1.27E-06  0.00E+00
    1     0.00000000000E+00   -3.48903923714E-01    0.00000000000E+00
    2     0.00000000000E+00    4.83600171281E-03    0.00000000000E+00
    3     0.00000000000E+00    9.52850360769E-03    0.00000000000E+00
    4     0.00000000000E+00    6.12362563279E-01    0.00000000000E+00
    5     0.00000000000E+00   -8.67791307169E-02    0.00000000000E+00
    6     0.00000000000E+00    4.46567450412E-02    0.00000000000E+00
    7     0.00000000000E+00   -1.83568317484E-01    0.00000000000E+00
    8     0.00000000000E+00   -5.21324417262E-02    0.00000000000E+00
 prteigrs : about to open file t40o_TIMA_EIG
 Fermi (or HOMO) energy (hartree) =   0.54375   Average Vxc (hartree)=  -0.41004
 Eigenvalues (hartree) for nkpt=   1  k points:
 kpt#   1, nband= 20, wtk=  1.00000, kpt=  0.0000  0.0000  0.0000 (reduced coord)
  -0.18642  -0.14909  -0.12950  -0.09581  -0.05788   0.01806   0.03663   0.13169
   0.19204   0.30853   0.38726   0.47789   0.47789   0.52823   0.52823   0.53425
   0.54876   0.55631   0.55631   0.58106
      occupation numbers for kpt#   1
   2.00000   2.00000   2.00000   2.00000   2.00000   2.00000   1.99999   1.99993
   1.99970   1.99443   1.96079   1.67679   1.67679   1.19149   1.19149   1.11813
   0.93737   0.84419   0.84419   0.56472

 ETOT 17  -33.396011527905    -8.953E-08 1.926E-09 3.760E-03 2.505E-05 1.835E-01

 cartesian forces (ha/bohr); non-corrected avg=  0.00E+00 -1.19E-06  0.00E+00
    1     0.00000000000E+00   -3.48963781809E-01    0.00000000000E+00
    2     0.00000000000E+00    4.90713942147E-03    0.00000000000E+00
    3     0.00000000000E+00    9.41282617241E-03    0.00000000000E+00
    4     0.00000000000E+00    6.12449298760E-01    0.00000000000E+00
    5     0.00000000000E+00   -8.67557591664E-02    0.00000000000E+00
    6     0.00000000000E+00    4.46405277486E-02    0.00000000000E+00
    7     0.00000000000E+00   -1.83543269021E-01    0.00000000000E+00
    8     0.00000000000E+00   -5.21469821064E-02    0.00000000000E+00
 prteigrs : about to open file t40o_TIMA_EIG
 Fermi (or HOMO) energy (hartree) =   0.54373   Average Vxc (hartree)=  -0.41005
 Eigenvalues (hartree) for nkpt=   1  k points:
 kpt#   1, nband= 20, wtk=  1.00000, kpt=  0.0000  0.0000  0.0000 (reduced coord)
  -0.18643  -0.14909  -0.12952  -0.09580  -0.05791   0.01804   0.03662   0.13169
   0.19201   0.30851   0.38723   0.47788   0.47788   0.52822   0.52822   0.53424
   0.54875   0.55629   0.55629   0.58105
      occupation numbers for kpt#   1
   2.00000   2.00000   2.00000   2.00000   2.00000   2.00000   1.99999   1.99993
   1.99970   1.99443   1.96080   1.67679   1.67679   1.19148   1.19148   1.11808
   0.93729   0.84429   0.84429   0.56468

 ETOT 18  -33.396011554543    -2.664E-08 9.962E-11 3.284E-03 1.485E-05 1.835E-01

 cartesian forces (ha/bohr); non-corrected avg=  0.00E+00 -1.10E-06  0.00E+00
    1     0.00000000000E+00   -3.49005363909E-01    0.00000000000E+00
    2     0.00000000000E+00    4.96420115422E-03    0.00000000000E+00
    3     0.00000000000E+00    9.38862239210E-03    0.00000000000E+00
    4     0.00000000000E+00    6.12450849949E-01    0.00000000000E+00
    5     0.00000000000E+00   -8.67445810485E-02    0.00000000000E+00
    6     0.00000000000E+00    4.46292617018E-02    0.00000000000E+00
    7     0.00000000000E+00   -1.83528416495E-01    0.00000000000E+00
    8     0.00000000000E+00   -5.21545737447E-02    0.00000000000E+00
 prteigrs : about to open file t40o_TIMA_EIG
 Fermi (or HOMO) energy (hartree) =   0.54373   Average Vxc (hartree)=  -0.41005
 Eigenvalues (hartree) for nkpt=   1  k points:
 kpt#   1, nband= 20, wtk=  1.00000, kpt=  0.0000  0.0000  0.0000 (reduced coord)
  -0.18643  -0.14910  -0.12952  -0.09581  -0.05791   0.01804   0.03662   0.13168
   0.19201   0.30851   0.38723   0.47787   0.47787   0.52822   0.52822   0.53424
   0.54875   0.55629   0.55629   0.58104
      occupation numbers for kpt#   1
   2.00000   2.00000   2.00000   2.00000   2.00000   2.00000   1.99999   1.99993
   1.99970   1.99443   1.96080   1.67680   1.67680   1.19147   1.19147   1.11809
   0.93728   0.84429   0.84429   0.56468

 ETOT 19  -33.396013399240    -1.845E-06 2.231E-09 8.437E-04 4.889E-05 1.836E-01

 cartesian forces (ha/bohr); non-corrected avg=  0.00E+00 -8.48E-07  0.00E+00
    1     0.00000000000E+00   -3.48849583733E-01    0.00000000000E+00
    2     0.00000000000E+00    4.81588424340E-03    0.00000000000E+00
    3     0.00000000000E+00    9.57659567389E-03    0.00000000000E+00
    4     0.00000000000E+00    6.12332528358E-01    0.00000000000E+00
    5     0.00000000000E+00   -8.67624221757E-02    0.00000000000E+00
    6     0.00000000000E+00    4.46395900417E-02    0.00000000000E+00
    7     0.00000000000E+00   -1.83577302313E-01    0.00000000000E+00
    8     0.00000000000E+00   -5.21752900958E-02    0.00000000000E+00
 prteigrs : about to open file t40o_TIMA_EIG
 Fermi (or HOMO) energy (hartree) =   0.54373   Average Vxc (hartree)=  -0.41005
 Eigenvalues (hartree) for nkpt=   1  k points:
 kpt#   1, nband= 20, wtk=  1.00000, kpt=  0.0000  0.0000  0.0000 (reduced coord)
  -0.18642  -0.14909  -0.12952  -0.09581  -0.05790   0.01804   0.03660   0.13168
   0.19199   0.30849   0.38724   0.47788   0.47788   0.52823   0.52823   0.53424
   0.54874   0.55629   0.55629   0.58104
      occupation numbers for kpt#   1
   2.00000   2.00000   2.00000   2.00000   2.00000   2.00000   1.99999   1.99993
   1.99970   1.99443   1.96079   1.67675   1.67675   1.19140   1.19140   1.11806
   0.93747   0.84431   0.84431   0.56473

 ETOT 20  -33.396013810864    -4.116E-07 1.347E-09 3.241E-04 3.991E-05 1.836E-01

 cartesian forces (ha/bohr); non-corrected avg=  0.00E+00 -5.97E-07  0.00E+00
    1     0.00000000000E+00   -3.48720241028E-01    0.00000000000E+00
    2     0.00000000000E+00    4.68600404955E-03    0.00000000000E+00
    3     0.00000000000E+00    9.72565967539E-03    0.00000000000E+00
    4     0.00000000000E+00    6.12244371667E-01    0.00000000000E+00
    5     0.00000000000E+00   -8.67779606834E-02    0.00000000000E+00
    6     0.00000000000E+00    4.46493187552E-02    0.00000000000E+00
    7     0.00000000000E+00   -1.83617215937E-01    0.00000000000E+00
    8     0.00000000000E+00   -5.21899364985E-02    0.00000000000E+00
 prteigrs : about to open file t40o_TIMA_EIG
 Fermi (or HOMO) energy (hartree) =   0.54373   Average Vxc (hartree)=  -0.41004
 Eigenvalues (hartree) for nkpt=   1  k points:
 kpt#   1, nband= 20, wtk=  1.00000, kpt=  0.0000  0.0000  0.0000 (reduced coord)
  -0.18641  -0.14908  -0.12952  -0.09581  -0.05789   0.01804   0.03659   0.13168
   0.19198   0.30848   0.38724   0.47789   0.47789   0.52823   0.52823   0.53425
   0.54873   0.55629   0.55629   0.58104
      occupation numbers for kpt#   1
   2.00000   2.00000   2.00000   2.00000   2.00000   2.00000   1.99999   1.99993
   1.99970   1.99443   1.96079   1.67671   1.67671   1.19134   1.19134   1.11803
   0.93761   0.84433   0.84433   0.56477

 ETOT 21  -33.396013764311     4.655E-08 5.365E-10 7.936E-04 2.399E-05 1.836E-01

 cartesian forces (ha/bohr); non-corrected avg=  0.00E+00 -1.26E-06  0.00E+00
    1     0.00000000000E+00   -3.48791265822E-01    0.00000000000E+00
    2     0.00000000000E+00    4.74458206587E-03    0.00000000000E+00
    3     0.00000000000E+00    9.56509072201E-03    0.00000000000E+00
    4     0.00000000000E+00    6.12351850797E-01    0.00000000000E+00
    5     0.00000000000E+00   -8.67614997521E-02    0.00000000000E+00
    6     0.00000000000E+00    4.46580976902E-02    0.00000000000E+00
    7     0.00000000000E+00   -1.83593226571E-01    0.00000000000E+00
    8     0.00000000000E+00   -5.21736291291E-02    0.00000000000E+00
 prteigrs : about to open file t40o_TIMA_EIG
 Fermi (or HOMO) energy (hartree) =   0.54374   Average Vxc (hartree)=  -0.41005
 Eigenvalues (hartree) for nkpt=   1  k points:
 kpt#   1, nband= 20, wtk=  1.00000, kpt=  0.0000  0.0000  0.0000 (reduced coord)
  -0.18640  -0.14907  -0.12951  -0.09580  -0.05789   0.01804   0.03659   0.13168
   0.19198   0.30848   0.38724   0.47790   0.47790   0.52825   0.52825   0.53425
   0.54873   0.55629   0.55629   0.58105
      occupation numbers for kpt#   1
   2.00000   2.00000   2.00000   2.00000   2.00000   2.00000   1.99999   1.99993
   1.99970   1.99443   1.96080   1.67667   1.67667   1.19129   1.19129   1.11810
   0.93768   0.84436   0.84436   0.56473

 ETOT 22  -33.396014041970    -2.777E-07 3.807E-10 1.925E-04 9.344E-06 1.836E-01

 cartesian forces (ha/bohr); non-corrected avg=  0.00E+00 -1.31E-06  0.00E+00
    1     0.00000000000E+00   -3.48768247651E-01    0.00000000000E+00
    2     0.00000000000E+00    4.73470953928E-03    0.00000000000E+00
    3     0.00000000000E+00    9.59830095921E-03    0.00000000000E+00
    4     0.00000000000E+00    6.12316794637E-01    0.00000000000E+00
    5     0.00000000000E+00   -8.67578052942E-02    0.00000000000E+00
    6     0.00000000000E+00    4.46602152158E-02    0.00000000000E+00
    7     0.00000000000E+00   -1.83600993958E-01    0.00000000000E+00
    8     0.00000000000E+00   -5.21829734483E-02    0.00000000000E+00
 prteigrs : about to open file t40o_TIMA_EIG
 Fermi (or HOMO) energy (hartree) =   0.54374   Average Vxc (hartree)=  -0.41005
 Eigenvalues (hartree) for nkpt=   1  k points:
 kpt#   1, nband= 20, wtk=  1.00000, kpt=  0.0000  0.0000  0.0000 (reduced coord)
  -0.18640  -0.14907  -0.12950  -0.09579  -0.05789   0.01804   0.03658   0.13168
   0.19197   0.30847   0.38725   0.47791   0.47791   0.52825   0.52825   0.53425
   0.54873   0.55630   0.55630   0.58106
      occupation numbers for kpt#   1
   2.00000   2.00000   2.00000   2.00000   2.00000   2.00000   1.99999   1.99993
   1.99970   1.99444   1.96080   1.67666   1.67666   1.19126   1.19126   1.11811
   0.93776   0.84436   0.84436   0.56470

 ETOT 23  -33.396014056609    -1.464E-08 4.235E-11 1.486E-04 4.765E-06 1.836E-01

 cartesian forces (ha/bohr); non-corrected avg=  0.00E+00 -1.23E-06  0.00E+00
    1     0.00000000000E+00   -3.48781064858E-01    0.00000000000E+00
    2     0.00000000000E+00    4.75107580020E-03    0.00000000000E+00
    3     0.00000000000E+00    9.59666400823E-03    0.00000000000E+00
    4     0.00000000000E+00    6.12313199380E-01    0.00000000000E+00
    5     0.00000000000E+00   -8.67555591341E-02    0.00000000000E+00
    6     0.00000000000E+00    4.46562921349E-02    0.00000000000E+00
    7     0.00000000000E+00   -1.83596229300E-01    0.00000000000E+00
    8     0.00000000000E+00   -5.21843780308E-02    0.00000000000E+00
 prteigrs : about to open file t40o_TIMA_EIG
 Fermi (or HOMO) energy (hartree) =   0.54374   Average Vxc (hartree)=  -0.41005
 Eigenvalues (hartree) for nkpt=   1  k points:
 kpt#   1, nband= 20, wtk=  1.00000, kpt=  0.0000  0.0000  0.0000 (reduced coord)
  -0.18640  -0.14907  -0.12951  -0.09579  -0.05789   0.01804   0.03658   0.13168
   0.19197   0.30847   0.38725   0.47791   0.47791   0.52825   0.52825   0.53425
   0.54873   0.55630   0.55630   0.58106
      occupation numbers for kpt#   1
   2.00000   2.00000   2.00000   2.00000   2.00000   2.00000   1.99999   1.99993
   1.99970   1.99444   1.96080   1.67667   1.67667   1.19128   1.19128   1.11811
   0.93773   0.84435   0.84435   0.56469

 At SCF step   23, forces are converged : 
  for the second time, max diff in force=  4.765E-06 < toldff=  1.000E-05

 Cartesian components of stress tensor (hartree/bohr^3)
  sigma(1 1)=  1.47554921E-03  sigma(3 2)=  0.00000000E+00
  sigma(2 2)= -1.43143203E-02  sigma(3 1)=  0.00000000E+00
  sigma(3 3)=  1.47554921E-03  sigma(2 1)=  0.00000000E+00


---OUTPUT-----------------------------------------------------------------------

 Cartesian coordinates (xcart) [bohr]
  0.00000000000000E+00  1.00000000000000E+01  0.00000000000000E+00
  0.00000000000000E+00  1.30000000000000E+01  0.00000000000000E+00
  0.00000000000000E+00  1.60000000000000E+01  0.00000000000000E+00
  0.00000000000000E+00  1.90000000000000E+01  0.00000000000000E+00
  0.00000000000000E+00 -6.00000000000000E+00  0.00000000000000E+00
  0.00000000000000E+00 -2.00000000000000E+00  0.00000000000000E+00
  0.00000000000000E+00  6.50000000000000E+00  0.00000000000000E+00
  0.00000000000000E+00  2.50000000000000E+00  0.00000000000000E+00
 Reduced coordinates (xred)
  0.00000000000000E+00  3.33333333333333E-01  0.00000000000000E+00
  0.00000000000000E+00  4.33333333333333E-01  0.00000000000000E+00
  0.00000000000000E+00  5.33333333333333E-01  0.00000000000000E+00
  0.00000000000000E+00  6.33333333333333E-01  0.00000000000000E+00
  0.00000000000000E+00 -2.00000000000000E-01  0.00000000000000E+00
  0.00000000000000E+00 -6.66666666666667E-02  0.00000000000000E+00
  0.00000000000000E+00  2.16666666666667E-01  0.00000000000000E+00
  0.00000000000000E+00  8.33333333333333E-02  0.00000000000000E+00
 Cartesian forces (fcart) [Ha/bohr]; max,rms= 1.83596E-01 6.18813E-02 (free atoms)
 -0.00000000000000E+00 -3.48781064858182E-01 -0.00000000000000E+00
 -0.00000000000000E+00  4.75107580019513E-03 -0.00000000000000E+00
 -0.00000000000000E+00  9.59666400823263E-03 -0.00000000000000E+00
 -0.00000000000000E+00  6.12313199379631E-01 -0.00000000000000E+00
 -0.00000000000000E+00 -8.67555591341161E-02 -0.00000000000000E+00
 -0.00000000000000E+00  4.46562921349258E-02 -0.00000000000000E+00
 -0.00000000000000E+00 -1.83596229299864E-01 -0.00000000000000E+00
 -0.00000000000000E+00 -5.21843780308222E-02 -0.00000000000000E+00
 Reduced forces (fred)
  0.00000000000000E+00  1.04634319457455E+01  0.00000000000000E+00
 -0.00000000000000E+00 -1.42532274005854E-01 -0.00000000000000E+00
 -0.00000000000000E+00 -2.87899920246979E-01 -0.00000000000000E+00
 -0.00000000000000E+00 -1.83693959813889E+01 -0.00000000000000E+00
  0.00000000000000E+00  2.60266677402348E+00  0.00000000000000E+00
 -0.00000000000000E+00 -1.33968876404777E+00 -0.00000000000000E+00
  0.00000000000000E+00  5.50788687899592E+00  0.00000000000000E+00
  0.00000000000000E+00  1.56553134092467E+00  0.00000000000000E+00
 Cartesian velocities (vel) [bohr*Ha/hbar]; max,rms= 0.00000E+00 0.00000E+00 (free atoms)
  0.00000000000000E+00  0.00000000000000E+00  0.00000000000000E+00
  0.00000000000000E+00  0.00000000000000E+00  0.00000000000000E+00
  0.00000000000000E+00  0.00000000000000E+00  0.00000000000000E+00
  0.00000000000000E+00  0.00000000000000E+00  0.00000000000000E+00
  0.00000000000000E+00  0.00000000000000E+00  0.00000000000000E+00
  0.00000000000000E+00  0.00000000000000E+00  0.00000000000000E+00
  0.00000000000000E+00  0.00000000000000E+00  0.00000000000000E+00
  0.00000000000000E+00  0.00000000000000E+00  0.00000000000000E+00
 Kinetic energy of ions (ekin) [Ha]=  0.00000000000000E+00
 Total energy (etotal) [Ha]= -3.33960140566089E+01

--- Iteration: ( 1/10) Internal Cycle: (2/4)
--------------------------------------------------------------------------------

---SELF-CONSISTENT-FIELD CONVERGENCE--------------------------------------------

     iter   Etot(hartree)      deltaE(h)  residm     vres2    diffor    maxfor

 ETOT  1  -33.395899771522    -3.340E+01 7.379E-11 2.687E-01 1.835E-01 1.835E-01

 cartesian forces (ha/bohr); non-corrected avg=  0.00E+00  2.23E-06  0.00E+00
    1     0.00000000000E+00   -3.48640000129E-01    0.00000000000E+00
    2     0.00000000000E+00    4.96415617809E-03    0.00000000000E+00
    3     0.00000000000E+00    1.03854328359E-02    0.00000000000E+00
    4     0.00000000000E+00    6.11671550421E-01    0.00000000000E+00
    5     0.00000000000E+00   -8.64345815044E-02    0.00000000000E+00
    6     0.00000000000E+00    4.42983185125E-02    0.00000000000E+00
    7     0.00000000000E+00   -1.83488888166E-01    0.00000000000E+00
    8     0.00000000000E+00   -5.27559881486E-02    0.00000000000E+00
 prteigrs : about to open file t40o_TIMB_EIG
 Fermi (or HOMO) energy (hartree) =   0.54377   Average Vxc (hartree)=  -0.41005
 Eigenvalues (hartree) for nkpt=   1  k points:
 kpt#   1, nband= 20, wtk=  1.00000, kpt=  0.0000  0.0000  0.0000 (reduced coord)
  -0.18632  -0.14896  -0.12956  -0.09574  -0.05787   0.01805   0.03656   0.13166
   0.19191   0.30841   0.38730   0.47796   0.47796   0.52833   0.52833   0.53430
   0.54871   0.55628   0.55628   0.58108
      occupation numbers for kpt#   1
   2.00000   2.00000   2.00000   2.00000   2.00000   2.00000   1.99999   1.99993
   1.99970   1.99445   1.96077   1.67650   1.67650   1.19068   1.19068   1.11788
   0.93837   0.84491   0.84491   0.56473

 ETOT  2  -33.395987653873    -8.788E-05 7.757E-12 5.725E-02 9.295E-04 1.837E-01

 cartesian forces (ha/bohr); non-corrected avg=  0.00E+00 -2.94E-06  0.00E+00
    1     0.00000000000E+00   -3.48832274432E-01    0.00000000000E+00
    2     0.00000000000E+00    4.60256457867E-03    0.00000000000E+00
    3     0.00000000000E+00    9.23953671121E-03    0.00000000000E+00
    4     0.00000000000E+00    6.12538282544E-01    0.00000000000E+00
    5     0.00000000000E+00   -8.69476141625E-02    0.00000000000E+00
    6     0.00000000000E+00    4.49181222124E-02    0.00000000000E+00
    7     0.00000000000E+00   -1.83692176914E-01    0.00000000000E+00
    8     0.00000000000E+00   -5.18264405387E-02    0.00000000000E+00
 prteigrs : about to open file t40o_TIMB_EIG
 Fermi (or HOMO) energy (hartree) =   0.54376   Average Vxc (hartree)=  -0.41005
 Eigenvalues (hartree) for nkpt=   1  k points:
 kpt#   1, nband= 20, wtk=  1.00000, kpt=  0.0000  0.0000  0.0000 (reduced coord)
  -0.18640  -0.14908  -0.12942  -0.09576  -0.05792   0.01806   0.03654   0.13166
   0.19196   0.30847   0.38723   0.47792   0.47792   0.52824   0.52824   0.53425
   0.54873   0.55635   0.55635   0.58109
      occupation numbers for kpt#   1
   2.00000   2.00000   2.00000   2.00000   2.00000   2.00000   1.99999   1.99993
   1.99970   1.99444   1.96083   1.67669   1.67669   1.19157   1.19157   1.11833
   0.93797   0.84390   0.84390   0.56448

 ETOT  3  -33.396013078620    -2.542E-05 7.489E-09 1.317E-03 2.955E-04 1.836E-01

 cartesian forces (ha/bohr); non-corrected avg=  0.00E+00 -1.19E-06  0.00E+00
    1     0.00000000000E+00   -3.48768767906E-01    0.00000000000E+00
    2     0.00000000000E+00    4.71333149598E-03    0.00000000000E+00
    3     0.00000000000E+00    9.60834093869E-03    0.00000000000E+00
    4     0.00000000000E+00    6.12261534921E-01    0.00000000000E+00
    5     0.00000000000E+00   -8.67853285805E-02    0.00000000000E+00
    6     0.00000000000E+00    4.47146155001E-02    0.00000000000E+00
    7     0.00000000000E+00   -1.83621835225E-01    0.00000000000E+00
    8     0.00000000000E+00   -5.21218911445E-02    0.00000000000E+00
 prteigrs : about to open file t40o_TIMB_EIG
 Fermi (or HOMO) energy (hartree) =   0.54377   Average Vxc (hartree)=  -0.41005
 Eigenvalues (hartree) for nkpt=   1  k points:
 kpt#   1, nband= 20, wtk=  1.00000, kpt=  0.0000  0.0000  0.0000 (reduced coord)
  -0.18637  -0.14904  -0.12946  -0.09575  -0.05790   0.01806   0.03655   0.13167
   0.19195   0.30846   0.38726   0.47794   0.47794   0.52827   0.52827   0.53427
   0.54872   0.55633   0.55633   0.58109
      occupation numbers for kpt#   1
   2.00000   2.00000   2.00000   2.00000   2.00000   2.00000   1.99999   1.99993
   1.99970   1.99444   1.96081   1.67663   1.67663   1.19129   1.19129   1.11819
   0.93810   0.84422   0.84422   0.56456

 ETOT  4  -33.396013272886    -1.943E-07 2.054E-09 2.019E-03 1.182E-04 1.836E-01

 cartesian forces (ha/bohr); non-corrected avg=  0.00E+00 -1.30E-06  0.00E+00
    1     0.00000000000E+00   -3.48788337222E-01    0.00000000000E+00
    2     0.00000000000E+00    4.78371044301E-03    0.00000000000E+00
    3     0.00000000000E+00    9.56035964773E-03    0.00000000000E+00
    4     0.00000000000E+00    6.12308100091E-01    0.00000000000E+00
    5     0.00000000000E+00   -8.66918316749E-02    0.00000000000E+00
    6     0.00000000000E+00    4.46355229316E-02    0.00000000000E+00
    7     0.00000000000E+00   -1.83567439412E-01    0.00000000000E+00
    8     0.00000000000E+00   -5.22400848050E-02    0.00000000000E+00
 prteigrs : about to open file t40o_TIMB_EIG
 Fermi (or HOMO) energy (hartree) =   0.54376   Average Vxc (hartree)=  -0.41005
 Eigenvalues (hartree) for nkpt=   1  k points:
 kpt#   1, nband= 20, wtk=  1.00000, kpt=  0.0000  0.0000  0.0000 (reduced coord)
  -0.18637  -0.14904  -0.12950  -0.09576  -0.05789   0.01805   0.03656   0.13167
   0.19195   0.30846   0.38726   0.47793   0.47793   0.52828   0.52828   0.53426
   0.54873   0.55631   0.55631   0.58108
      occupation numbers for kpt#   1
   2.00000   2.00000   2.00000   2.00000   2.00000   2.00000   1.99999   1.99993
   1.99970   1.99444   1.96081   1.67661   1.67661   1.19115   1.19115   1.11816
   0.93799   0.84443   0.84443   0.56461

 ETOT  5  -33.396014017915    -7.450E-07 2.262E-10 9.507E-05 5.407E-05 1.836E-01

 cartesian forces (ha/bohr); non-corrected avg=  0.00E+00 -1.56E-06  0.00E+00
    1     0.00000000000E+00   -3.48795125918E-01    0.00000000000E+00
    2     0.00000000000E+00    4.76014385796E-03    0.00000000000E+00
    3     0.00000000000E+00    9.50451125491E-03    0.00000000000E+00
    4     0.00000000000E+00    6.12349669362E-01    0.00000000000E+00
    5     0.00000000000E+00   -8.67235835719E-02    0.00000000000E+00
    6     0.00000000000E+00    4.46711927139E-02    0.00000000000E+00
    7     0.00000000000E+00   -1.83580791992E-01    0.00000000000E+00
    8     0.00000000000E+00   -5.21860157064E-02    0.00000000000E+00
 prteigrs : about to open file t40o_TIMB_EIG
 Fermi (or HOMO) energy (hartree) =   0.54376   Average Vxc (hartree)=  -0.41005
 Eigenvalues (hartree) for nkpt=   1  k points:
 kpt#   1, nband= 20, wtk=  1.00000, kpt=  0.0000  0.0000  0.0000 (reduced coord)
  -0.18638  -0.14904  -0.12949  -0.09576  -0.05790   0.01805   0.03656   0.13167
   0.19195   0.30846   0.38725   0.47793   0.47793   0.52827   0.52827   0.53426
   0.54873   0.55631   0.55631   0.58108
      occupation numbers for kpt#   1
   2.00000   2.00000   2.00000   2.00000   2.00000   2.00000   1.99999   1.99993
   1.99970   1.99444   1.96081   1.67662   1.67662   1.19121   1.19121   1.11819
   0.93798   0.84436   0.84436   0.56459

 ETOT  6  -33.396013950109     6.781E-08 3.024E-10 4.343E-04 1.377E-05 1.836E-01

 cartesian forces (ha/bohr); non-corrected avg=  0.00E+00 -1.28E-06  0.00E+00
    1     0.00000000000E+00   -3.48778051452E-01    0.00000000000E+00
    2     0.00000000000E+00    4.75905046277E-03    0.00000000000E+00
    3     0.00000000000E+00    9.61871292678E-03    0.00000000000E+00
    4     0.00000000000E+00    6.12260416107E-01    0.00000000000E+00
    5     0.00000000000E+00   -8.67302808855E-02    0.00000000000E+00
    6     0.00000000000E+00    4.46608581842E-02    0.00000000000E+00
    7     0.00000000000E+00   -1.83590922207E-01    0.00000000000E+00
    8     0.00000000000E+00   -5.21997831369E-02    0.00000000000E+00
 prteigrs : about to open file t40o_TIMB_EIG
 Fermi (or HOMO) energy (hartree) =   0.54375   Average Vxc (hartree)=  -0.41005
 Eigenvalues (hartree) for nkpt=   1  k points:
 kpt#   1, nband= 20, wtk=  1.00000, kpt=  0.0000  0.0000  0.0000 (reduced coord)
  -0.18638  -0.14905  -0.12949  -0.09576  -0.05789   0.01805   0.03657   0.13167
   0.19196   0.30846   0.38725   0.47792   0.47792   0.52826   0.52826   0.53426
   0.54873   0.55631   0.55631   0.58108
      occupation numbers for kpt#   1
   2.00000   2.00000   2.00000   2.00000   2.00000   2.00000   1.99999   1.99993
   1.99970   1.99444   1.96080   1.67665   1.67665   1.19124   1.19124   1.11816
   0.93793   0.84434   0.84434   0.56460

 ETOT  7  -33.396014071104    -1.210E-07 5.135E-11 1.495E-04 6.062E-06 1.836E-01

 cartesian forces (ha/bohr); non-corrected avg=  0.00E+00 -1.37E-06  0.00E+00
    1     0.00000000000E+00   -3.48780695299E-01    0.00000000000E+00
    2     0.00000000000E+00    4.75392931360E-03    0.00000000000E+00
    3     0.00000000000E+00    9.60744095611E-03    0.00000000000E+00
    4     0.00000000000E+00    6.12273109908E-01    0.00000000000E+00
    5     0.00000000000E+00   -8.67331715739E-02    0.00000000000E+00
    6     0.00000000000E+00    4.46628333797E-02    0.00000000000E+00
    7     0.00000000000E+00   -1.83589725819E-01    0.00000000000E+00
    8     0.00000000000E+00   -5.21937208652E-02    0.00000000000E+00
 prteigrs : about to open file t40o_TIMB_EIG
 Fermi (or HOMO) energy (hartree) =   0.54375   Average Vxc (hartree)=  -0.41005
 Eigenvalues (hartree) for nkpt=   1  k points:
 kpt#   1, nband= 20, wtk=  1.00000, kpt=  0.0000  0.0000  0.0000 (reduced coord)
  -0.18638  -0.14905  -0.12949  -0.09577  -0.05789   0.01805   0.03657   0.13167
   0.19196   0.30846   0.38725   0.47792   0.47792   0.52826   0.52826   0.53426
   0.54873   0.55631   0.55631   0.58108
      occupation numbers for kpt#   1
   2.00000   2.00000   2.00000   2.00000   2.00000   2.00000   1.99999   1.99993
   1.99970   1.99444   1.96080   1.67665   1.67665   1.19125   1.19125   1.11816
   0.93790   0.84434   0.84434   0.56461

 ETOT  8  -33.396014086840    -1.574E-08 4.576E-11 7.393E-05 7.420E-06 1.836E-01

 cartesian forces (ha/bohr); non-corrected avg=  0.00E+00 -1.45E-06  0.00E+00
    1     0.00000000000E+00   -3.48784323948E-01    0.00000000000E+00
    2     0.00000000000E+00    4.75243951973E-03    0.00000000000E+00
    3     0.00000000000E+00    9.57927144976E-03    0.00000000000E+00
    4     0.00000000000E+00    6.12294436125E-01    0.00000000000E+00
    5     0.00000000000E+00   -8.67346107653E-02    0.00000000000E+00
    6     0.00000000000E+00    4.46681220731E-02    0.00000000000E+00
    7     0.00000000000E+00   -1.83589033646E-01    0.00000000000E+00
    8     0.00000000000E+00   -5.21863008078E-02    0.00000000000E+00
 prteigrs : about to open file t40o_TIMB_EIG
 Fermi (or HOMO) energy (hartree) =   0.54376   Average Vxc (hartree)=  -0.41005
 Eigenvalues (hartree) for nkpt=   1  k points:
 kpt#   1, nband= 20, wtk=  1.00000, kpt=  0.0000  0.0000  0.0000 (reduced coord)
  -0.18638  -0.14905  -0.12949  -0.09576  -0.05789   0.01805   0.03657   0.13167
   0.19196   0.30846   0.38725   0.47792   0.47792   0.52827   0.52827   0.53426
   0.54873   0.55631   0.55631   0.58108
      occupation numbers for kpt#   1
   2.00000   2.00000   2.00000   2.00000   2.00000   2.00000   1.99999   1.99993
   1.99970   1.99444   1.96081   1.67664   1.67664   1.19124   1.19124   1.11817
   0.93793   0.84434   0.84434   0.56460

 At SCF step    8, forces are converged : 
  for the second time, max diff in force=  7.420E-06 < toldff=  1.000E-05

 Cartesian components of stress tensor (hartree/bohr^3)
  sigma(1 1)=  1.47566203E-03  sigma(3 2)=  0.00000000E+00
  sigma(2 2)= -1.43144653E-02  sigma(3 1)=  0.00000000E+00
  sigma(3 3)=  1.47566203E-03  sigma(2 1)=  0.00000000E+00


---OUTPUT-----------------------------------------------------------------------

 Cartesian coordinates (xcart) [bohr]
  0.00000000000000E+00  1.00000000000000E+01  0.00000000000000E+00
  0.00000000000000E+00  1.30000000000000E+01  0.00000000000000E+00
  0.00000000000000E+00  1.60000000000000E+01  0.00000000000000E+00
  0.00000000000000E+00  1.90000000000000E+01  0.00000000000000E+00
  0.00000000000000E+00 -6.00000000000000E+00  0.00000000000000E+00
  0.00000000000000E+00 -2.00000000000000E+00  0.00000000000000E+00
  0.00000000000000E+00  6.50000000000000E+00  0.00000000000000E+00
  0.00000000000000E+00  2.50000000000000E+00  0.00000000000000E+00
 Reduced coordinates (xred)
  0.00000000000000E+00  3.33333333333333E-01  0.00000000000000E+00
  0.00000000000000E+00  4.33333333333333E-01  0.00000000000000E+00
  0.00000000000000E+00  5.33333333333333E-01  0.00000000000000E+00
  0.00000000000000E+00  6.33333333333333E-01  0.00000000000000E+00
  0.00000000000000E+00 -2.00000000000000E-01  0.00000000000000E+00
  0.00000000000000E+00 -6.66666666666667E-02  0.00000000000000E+00
  0.00000000000000E+00  2.16666666666667E-01  0.00000000000000E+00
  0.00000000000000E+00  8.33333333333333E-02  0.00000000000000E+00
 Cartesian forces (fcart) [Ha/bohr]; max,rms= 1.83589E-01 6.18779E-02 (free atoms)
 -0.00000000000000E+00 -3.48784323948148E-01 -0.00000000000000E+00
 -0.00000000000000E+00  4.75243951973446E-03 -0.00000000000000E+00
 -0.00000000000000E+00  9.57927144976349E-03 -0.00000000000000E+00
 -0.00000000000000E+00  6.12294436125002E-01 -0.00000000000000E+00
 -0.00000000000000E+00 -8.67346107653451E-02 -0.00000000000000E+00
 -0.00000000000000E+00  4.46681220730867E-02 -0.00000000000000E+00
 -0.00000000000000E+00 -1.83589033646263E-01 -0.00000000000000E+00
 -0.00000000000000E+00 -5.21863008078311E-02 -0.00000000000000E+00
 Reduced forces (fred)
  0.00000000000000E+00  1.04635297184444E+01  0.00000000000000E+00
 -0.00000000000000E+00 -1.42573185592034E-01 -0.00000000000000E+00
 -0.00000000000000E+00 -2.87378143492905E-01 -0.00000000000000E+00
 -0.00000000000000E+00 -1.83688330837501E+01 -0.00000000000000E+00
  0.00000000000000E+00  2.60203832296035E+00  0.00000000000000E+00
 -0.00000000000000E+00 -1.34004366219260E+00 -0.00000000000000E+00
  0.00000000000000E+00  5.50767100938788E+00  0.00000000000000E+00
  0.00000000000000E+00  1.56558902423493E+00  0.00000000000000E+00
 Cartesian velocities (vel) [bohr*Ha/hbar]; max,rms= 6.27566E-04 2.11522E-04 (free atoms)
  0.00000000000000E+00  0.00000000000000E+00  0.00000000000000E+00
  0.00000000000000E+00  0.00000000000000E+00  0.00000000000000E+00
  0.00000000000000E+00  0.00000000000000E+00  0.00000000000000E+00
  0.00000000000000E+00  0.00000000000000E+00  0.00000000000000E+00
  0.00000000000000E+00 -2.96546703405711E-04  0.00000000000000E+00
  0.00000000000000E+00  1.52643546432139E-04  0.00000000000000E+00
  0.00000000000000E+00 -6.27566199791612E-04  0.00000000000000E+00
  0.00000000000000E+00 -1.78375949953762E-04  0.00000000000000E+00
 Kinetic energy of ions (ekin) [Ha]=  1.37436946313717E-02
 Total energy (etotal) [Ha]= -3.33960140868397E+01

 Difference of energy with previous step (new-old):
           Absolute (Ha)=-3.02308E-08
           Relative     =-9.05221E-10

--- Iteration: ( 1/10) Internal Cycle: (3/4)
--------------------------------------------------------------------------------

---SELF-CONSISTENT-FIELD CONVERGENCE--------------------------------------------

     iter   Etot(hartree)      deltaE(h)  residm     vres2    diffor    maxfor

 ETOT  1  -33.357721447505    -3.336E+01 1.139E-07 1.131E+02 1.595E-01 1.595E-01

 cartesian forces (ha/bohr); non-corrected avg=  0.00E+00 -7.14E-06  0.00E+00
    1     0.00000000000E+00   -3.95323655554E-01    0.00000000000E+00
    2     0.00000000000E+00    6.65167776626E-03    0.00000000000E+00
    3     0.00000000000E+00    6.22920853860E-03    0.00000000000E+00
    4     0.00000000000E+00    6.11896422322E-01    0.00000000000E+00
    5     0.00000000000E+00   -7.74991720537E-02    0.00000000000E+00
    6     0.00000000000E+00    4.47837086974E-02    0.00000000000E+00
    7     0.00000000000E+00   -1.59510535234E-01    0.00000000000E+00
    8     0.00000000000E+00   -3.72276544830E-02    0.00000000000E+00
 prteigrs : about to open file t40o_TIMC_EIG
 Fermi (or HOMO) energy (hartree) =   0.54468   Average Vxc (hartree)=  -0.41022
 Eigenvalues (hartree) for nkpt=   1  k points:
 kpt#   1, nband= 20, wtk=  1.00000, kpt=  0.0000  0.0000  0.0000 (reduced coord)
  -0.18177  -0.15093  -0.12667  -0.09605  -0.05647   0.01494   0.03765   0.13074
   0.19219   0.31102   0.38353   0.48254   0.48254   0.53128   0.53128   0.53378
   0.54804   0.55507   0.55507   0.58124
      occupation numbers for kpt#   1
   2.00000   2.00000   2.00000   2.00000   2.00000   2.00000   1.99999   1.99994
   1.99970   1.99421   1.96503   1.65083   1.65083   1.16596   1.16596   1.13548
   0.95803   0.87086   0.87086   0.57232

 ETOT  2  -33.408140842278    -5.042E-02 1.064E-07 2.272E+01 2.925E-02 1.319E-01

 cartesian forces (ha/bohr); non-corrected avg=  0.00E+00  4.13E-06  0.00E+00
    1     0.00000000000E+00   -3.82368500360E-01    0.00000000000E+00
    2     0.00000000000E+00   -3.90729504351E-04    0.00000000000E+00
    3     0.00000000000E+00    1.05491061338E-02    0.00000000000E+00
    4     0.00000000000E+00    6.04906873003E-01    0.00000000000E+00
    5     0.00000000000E+00   -5.75988080366E-02    0.00000000000E+00
    6     0.00000000000E+00    1.55307592861E-02    0.00000000000E+00
    7     0.00000000000E+00   -1.31879133922E-01    0.00000000000E+00
    8     0.00000000000E+00   -5.87495665997E-02    0.00000000000E+00
 prteigrs : about to open file t40o_TIMC_EIG
 Fermi (or HOMO) energy (hartree) =   0.54455   Average Vxc (hartree)=  -0.41016
 Eigenvalues (hartree) for nkpt=   1  k points:
 kpt#   1, nband= 20, wtk=  1.00000, kpt=  0.0000  0.0000  0.0000 (reduced coord)
  -0.18490  -0.14667  -0.12965  -0.09496  -0.05642   0.01531   0.03671   0.13070
   0.19261   0.31106   0.38441   0.47900   0.47900   0.53177   0.53177   0.53360
   0.54784   0.55599   0.55599   0.58185
      occupation numbers for kpt#   1
   2.00000   2.00000   2.00000   2.00000   2.00000   2.00000   1.99999   1.99994
   1.99970   1.99418   1.96415   1.67475   1.67475   1.15837   1.15837   1.13603
   0.95893   0.85799   0.85799   0.56487

 ETOT  3  -33.418175365201    -1.003E-02 7.388E-06 3.130E+00 8.324E-03 1.402E-01

 cartesian forces (ha/bohr); non-corrected avg=  0.00E+00  3.31E-06  0.00E+00
    1     0.00000000000E+00   -3.85374984690E-01    0.00000000000E+00
    2     0.00000000000E+00    2.40036064914E-03    0.00000000000E+00
    3     0.00000000000E+00    9.34168873618E-03    0.00000000000E+00
    4     0.00000000000E+00    6.07049858591E-01    0.00000000000E+00
    5     0.00000000000E+00   -6.49870843527E-02    0.00000000000E+00
    6     0.00000000000E+00    2.34946074599E-02    0.00000000000E+00
    7     0.00000000000E+00   -1.40203069103E-01    0.00000000000E+00
    8     0.00000000000E+00   -5.17213772905E-02    0.00000000000E+00
 prteigrs : about to open file t40o_TIMC_EIG
 Fermi (or HOMO) energy (hartree) =   0.54471   Average Vxc (hartree)=  -0.41019
 Eigenvalues (hartree) for nkpt=   1  k points:
 kpt#   1, nband= 20, wtk=  1.00000, kpt=  0.0000  0.0000  0.0000 (reduced coord)
  -0.18390  -0.14760  -0.12873  -0.09539  -0.05638   0.01525   0.03703   0.13076
   0.19254   0.31110   0.38422   0.48009   0.48009   0.53195   0.53195   0.53373
   0.54795   0.55587   0.55587   0.58148
      occupation numbers for kpt#   1
   2.00000   2.00000   2.00000   2.00000   2.00000   2.00000   1.99999   1.99994
   1.99970   1.99420   1.96446   1.66834   1.66834   1.15816   1.15816   1.13632
   0.95946   0.86138   0.86138   0.57017

 ETOT  4  -33.419555888861    -1.381E-03 3.020E-06 5.407E-01 3.588E-03 1.366E-01

 cartesian forces (ha/bohr); non-corrected avg=  0.00E+00 -5.28E-06  0.00E+00
    1     0.00000000000E+00   -3.90111381932E-01    0.00000000000E+00
    2     0.00000000000E+00    2.34704661121E-03    0.00000000000E+00
    3     0.00000000000E+00    1.00361115157E-02    0.00000000000E+00
    4     0.00000000000E+00    6.05575743387E-01    0.00000000000E+00
    5     0.00000000000E+00   -6.47500537456E-02    0.00000000000E+00
    6     0.00000000000E+00    2.26912248160E-02    0.00000000000E+00
    7     0.00000000000E+00   -1.36614984607E-01    0.00000000000E+00
    8     0.00000000000E+00   -4.91737060452E-02    0.00000000000E+00
 prteigrs : about to open file t40o_TIMC_EIG
 Fermi (or HOMO) energy (hartree) =   0.54465   Average Vxc (hartree)=  -0.41016
 Eigenvalues (hartree) for nkpt=   1  k points:
 kpt#   1, nband= 20, wtk=  1.00000, kpt=  0.0000  0.0000  0.0000 (reduced coord)
  -0.18446  -0.14810  -0.12815  -0.09489  -0.05693   0.01560   0.03672   0.13078
   0.19257   0.31119   0.38411   0.47965   0.47965   0.53115   0.53115   0.53354
   0.54790   0.55654   0.55654   0.58210
      occupation numbers for kpt#   1
   2.00000   2.00000   2.00000   2.00000   2.00000   2.00000   1.99999   1.99994
   1.99970   1.99418   1.96450   1.67093   1.67093   1.16714   1.16714   1.13791
   0.95940   0.85248   0.85248   0.56327

 ETOT  5  -33.419760690983    -2.048E-04 1.040E-07 2.184E-02 9.920E-04 1.368E-01

 cartesian forces (ha/bohr); non-corrected avg=  0.00E+00 -3.77E-06  0.00E+00
    1     0.00000000000E+00   -3.88824765762E-01    0.00000000000E+00
    2     0.00000000000E+00    2.15005032411E-03    0.00000000000E+00
    3     0.00000000000E+00    1.00061358228E-02    0.00000000000E+00
    4     0.00000000000E+00    6.05729722296E-01    0.00000000000E+00
    5     0.00000000000E+00   -6.43648307454E-02    0.00000000000E+00
    6     0.00000000000E+00    2.22980823276E-02    0.00000000000E+00
    7     0.00000000000E+00   -1.36828653668E-01    0.00000000000E+00
    8     0.00000000000E+00   -5.01657405951E-02    0.00000000000E+00
 prteigrs : about to open file t40o_TIMC_EIG
 Fermi (or HOMO) energy (hartree) =   0.54468   Average Vxc (hartree)=  -0.41017
 Eigenvalues (hartree) for nkpt=   1  k points:
 kpt#   1, nband= 20, wtk=  1.00000, kpt=  0.0000  0.0000  0.0000 (reduced coord)
  -0.18438  -0.14790  -0.12832  -0.09496  -0.05679   0.01555   0.03679   0.13079
   0.19259   0.31119   0.38417   0.47970   0.47970   0.53134   0.53134   0.53360
   0.54792   0.55643   0.55643   0.58200
      occupation numbers for kpt#   1
   2.00000   2.00000   2.00000   2.00000   2.00000   2.00000   1.99999   1.99994
   1.99970   1.99418   1.96447   1.67081   1.67081   1.16513   1.16513   1.13755
   0.95941   0.85415   0.85415   0.56457

 ETOT  6  -33.419794497701    -3.381E-05 2.860E-07 4.253E-02 8.543E-04 1.360E-01

 cartesian forces (ha/bohr); non-corrected avg=  0.00E+00 -4.21E-06  0.00E+00
    1     0.00000000000E+00   -3.91243778288E-01    0.00000000000E+00
    2     0.00000000000E+00    3.79553387464E-03    0.00000000000E+00
    3     0.00000000000E+00    9.38630712126E-03    0.00000000000E+00
    4     0.00000000000E+00    6.06017615640E-01    0.00000000000E+00
    5     0.00000000000E+00   -6.37391489279E-02    0.00000000000E+00
    6     0.00000000000E+00    2.19965436835E-02    0.00000000000E+00
    7     0.00000000000E+00   -1.35974382857E-01    0.00000000000E+00
    8     0.00000000000E+00   -5.02386902457E-02    0.00000000000E+00
 prteigrs : about to open file t40o_TIMC_EIG
 Fermi (or HOMO) energy (hartree) =   0.54472   Average Vxc (hartree)=  -0.41017
 Eigenvalues (hartree) for nkpt=   1  k points:
 kpt#   1, nband= 20, wtk=  1.00000, kpt=  0.0000  0.0000  0.0000 (reduced coord)
  -0.18427  -0.14793  -0.12831  -0.09475  -0.05700   0.01564   0.03673   0.13078
   0.19252   0.31115   0.38417   0.47983   0.47983   0.53137   0.53137   0.53357
   0.54795   0.55646   0.55646   0.58217
      occupation numbers for kpt#   1
   2.00000   2.00000   2.00000   2.00000   2.00000   2.00000   1.99999   1.99994
   1.99970   1.99420   1.96451   1.67023   1.67023   1.16541   1.16541   1.13857
   0.95965   0.85439   0.85439   0.56338

 ETOT  7  -33.419815236334    -2.074E-05 7.626E-08 1.322E-02 4.140E-04 1.356E-01

 cartesian forces (ha/bohr); non-corrected avg=  0.00E+00 -3.31E-06  0.00E+00
    1     0.00000000000E+00   -3.91773274898E-01    0.00000000000E+00
    2     0.00000000000E+00    4.19799787127E-03    0.00000000000E+00
    3     0.00000000000E+00    9.21428792311E-03    0.00000000000E+00
    4     0.00000000000E+00    6.05979967567E-01    0.00000000000E+00
    5     0.00000000000E+00   -6.34409960630E-02    0.00000000000E+00
    6     0.00000000000E+00    2.17509153973E-02    0.00000000000E+00
    7     0.00000000000E+00   -1.35560404629E-01    0.00000000000E+00
    8     0.00000000000E+00   -5.03684931683E-02    0.00000000000E+00
 prteigrs : about to open file t40o_TIMC_EIG
 Fermi (or HOMO) energy (hartree) =   0.54474   Average Vxc (hartree)=  -0.41017
 Eigenvalues (hartree) for nkpt=   1  k points:
 kpt#   1, nband= 20, wtk=  1.00000, kpt=  0.0000  0.0000  0.0000 (reduced coord)
  -0.18429  -0.14790  -0.12830  -0.09466  -0.05709   0.01571   0.03667   0.13076
   0.19249   0.31113   0.38418   0.47981   0.47981   0.53138   0.53138   0.53355
   0.54795   0.55649   0.55649   0.58226
      occupation numbers for kpt#   1
   2.00000   2.00000   2.00000   2.00000   2.00000   2.00000   1.99999   1.99994
   1.99970   1.99420   1.96452   1.67047   1.67047   1.16549   1.16549   1.13894
   0.95991   0.85414   0.85414   0.56261

 ETOT  8  -33.419820767212    -5.531E-06 3.184E-08 4.428E-03 2.179E-04 1.353E-01

 cartesian forces (ha/bohr); non-corrected avg=  0.00E+00 -1.97E-06  0.00E+00
    1     0.00000000000E+00   -3.92005113678E-01    0.00000000000E+00
    2     0.00000000000E+00    4.48046355718E-03    0.00000000000E+00
    3     0.00000000000E+00    9.07382919763E-03    0.00000000000E+00
    4     0.00000000000E+00    6.05961614392E-01    0.00000000000E+00
    5     0.00000000000E+00   -6.32272064073E-02    0.00000000000E+00
    6     0.00000000000E+00    2.15871432199E-02    0.00000000000E+00
    7     0.00000000000E+00   -1.35342539954E-01    0.00000000000E+00
    8     0.00000000000E+00   -5.05281903272E-02    0.00000000000E+00
 prteigrs : about to open file t40o_TIMC_EIG
 Fermi (or HOMO) energy (hartree) =   0.54476   Average Vxc (hartree)=  -0.41017
 Eigenvalues (hartree) for nkpt=   1  k points:
 kpt#   1, nband= 20, wtk=  1.00000, kpt=  0.0000  0.0000  0.0000 (reduced coord)
  -0.18429  -0.14786  -0.12831  -0.09460  -0.05715   0.01576   0.03664   0.13076
   0.19246   0.31111   0.38420   0.47981   0.47981   0.53141   0.53141   0.53355
   0.54795   0.55651   0.55651   0.58232
      occupation numbers for kpt#   1
   2.00000   2.00000   2.00000   2.00000   2.00000   2.00000   1.99999   1.99994
   1.99970   1.99421   1.96452   1.67062   1.67062   1.16532   1.16532   1.13917
   0.96013   0.85415   0.85415   0.56218

 ETOT  9  -33.419821036904    -2.697E-07 7.159E-09 7.540E-03 1.780E-04 1.353E-01

 cartesian forces (ha/bohr); non-corrected avg=  0.00E+00 -2.16E-06  0.00E+00
    1     0.00000000000E+00   -3.92230418258E-01    0.00000000000E+00
    2     0.00000000000E+00    4.42032708208E-03    0.00000000000E+00
    3     0.00000000000E+00    9.05914360308E-03    0.00000000000E+00
    4     0.00000000000E+00    6.05993204555E-01    0.00000000000E+00
    5     0.00000000000E+00   -6.32709031259E-02    0.00000000000E+00
    6     0.00000000000E+00    2.16398102843E-02    0.00000000000E+00
    7     0.00000000000E+00   -1.35260938776E-01    0.00000000000E+00
    8     0.00000000000E+00   -5.03502253656E-02    0.00000000000E+00
 prteigrs : about to open file t40o_TIMC_EIG
 Fermi (or HOMO) energy (hartree) =   0.54477   Average Vxc (hartree)=  -0.41017
 Eigenvalues (hartree) for nkpt=   1  k points:
 kpt#   1, nband= 20, wtk=  1.00000, kpt=  0.0000  0.0000  0.0000 (reduced coord)
  -0.18429  -0.14788  -0.12827  -0.09458  -0.05718   0.01580   0.03661   0.13075
   0.19245   0.31111   0.38419   0.47983   0.47983   0.53139   0.53139   0.53355
   0.54795   0.55654   0.55654   0.58235
      occupation numbers for kpt#   1
   2.00000   2.00000   2.00000   2.00000   2.00000   2.00000   1.99999   1.99994
   1.99970   1.99421   1.96453   1.67057   1.67057   1.16565   1.16565   1.13928
   0.96026   0.85385   0.85385   0.56197

 ETOT 10  -33.419824124285    -3.087E-06 7.344E-09 5.538E-04 1.227E-04 1.351E-01

 cartesian forces (ha/bohr); non-corrected avg=  0.00E+00 -1.24E-06  0.00E+00
    1     0.00000000000E+00   -3.92342575070E-01    0.00000000000E+00
    2     0.00000000000E+00    4.51982047052E-03    0.00000000000E+00
    3     0.00000000000E+00    9.03025684367E-03    0.00000000000E+00
    4     0.00000000000E+00    6.05971905001E-01    0.00000000000E+00
    5     0.00000000000E+00   -6.31548385780E-02    0.00000000000E+00
    6     0.00000000000E+00    2.15485407224E-02    0.00000000000E+00
    7     0.00000000000E+00   -1.35138244345E-01    0.00000000000E+00
    8     0.00000000000E+00   -5.04348650445E-02    0.00000000000E+00
 prteigrs : about to open file t40o_TIMC_EIG
 Fermi (or HOMO) energy (hartree) =   0.54478   Average Vxc (hartree)=  -0.41017
 Eigenvalues (hartree) for nkpt=   1  k points:
 kpt#   1, nband= 20, wtk=  1.00000, kpt=  0.0000  0.0000  0.0000 (reduced coord)
  -0.18428  -0.14785  -0.12828  -0.09455  -0.05720   0.01583   0.03658   0.13075
   0.19242   0.31110   0.38420   0.47983   0.47983   0.53141   0.53141   0.53356
   0.54795   0.55656   0.55656   0.58238
      occupation numbers for kpt#   1
   2.00000   2.00000   2.00000   2.00000   2.00000   2.00000   1.99999   1.99994
   1.99970   1.99421   1.96453   1.67060   1.67060   1.16557   1.16557   1.13938
   0.96043   0.85384   0.85384   0.56180

 ETOT 11  -33.419824212102    -8.782E-08 9.225E-10 3.517E-04 2.969E-05 1.352E-01

 cartesian forces (ha/bohr); non-corrected avg=  0.00E+00 -1.26E-06  0.00E+00
    1     0.00000000000E+00   -3.92268961505E-01    0.00000000000E+00
    2     0.00000000000E+00    4.45333645010E-03    0.00000000000E+00
    3     0.00000000000E+00    9.06896884838E-03    0.00000000000E+00
    4     0.00000000000E+00    6.05962042545E-01    0.00000000000E+00
    5     0.00000000000E+00   -6.31764258045E-02    0.00000000000E+00
    6     0.00000000000E+00    2.15602447467E-02    0.00000000000E+00
    7     0.00000000000E+00   -1.35167937916E-01    0.00000000000E+00
    8     0.00000000000E+00   -5.04312673644E-02    0.00000000000E+00
 prteigrs : about to open file t40o_TIMC_EIG
 Fermi (or HOMO) energy (hartree) =   0.54478   Average Vxc (hartree)=  -0.41017
 Eigenvalues (hartree) for nkpt=   1  k points:
 kpt#   1, nband= 20, wtk=  1.00000, kpt=  0.0000  0.0000  0.0000 (reduced coord)
  -0.18428  -0.14785  -0.12828  -0.09456  -0.05719   0.01582   0.03658   0.13075
   0.19243   0.31110   0.38420   0.47983   0.47983   0.53141   0.53141   0.53356
   0.54795   0.55655   0.55655   0.58237
      occupation numbers for kpt#   1
   2.00000   2.00000   2.00000   2.00000   2.00000   2.00000   1.99999   1.99994
   1.99970   1.99421   1.96453   1.67058   1.67058   1.16557   1.16557   1.13933
   0.96042   0.85384   0.85384   0.56189

 ETOT 12  -33.419824314186    -1.021E-07 2.516E-10 1.462E-04 1.509E-05 1.352E-01

 cartesian forces (ha/bohr); non-corrected avg=  0.00E+00 -1.29E-06  0.00E+00
    1     0.00000000000E+00   -3.92276840717E-01    0.00000000000E+00
    2     0.00000000000E+00    4.49002417019E-03    0.00000000000E+00
    3     0.00000000000E+00    9.04180796630E-03    0.00000000000E+00
    4     0.00000000000E+00    6.05958860602E-01    0.00000000000E+00
    5     0.00000000000E+00   -6.31613346419E-02    0.00000000000E+00
    6     0.00000000000E+00    2.15624834406E-02    0.00000000000E+00
    7     0.00000000000E+00   -1.35169409451E-01    0.00000000000E+00
    8     0.00000000000E+00   -5.04455913687E-02    0.00000000000E+00
 prteigrs : about to open file t40o_TIMC_EIG
 Fermi (or HOMO) energy (hartree) =   0.54478   Average Vxc (hartree)=  -0.41017
 Eigenvalues (hartree) for nkpt=   1  k points:
 kpt#   1, nband= 20, wtk=  1.00000, kpt=  0.0000  0.0000  0.0000 (reduced coord)
  -0.18428  -0.14785  -0.12828  -0.09455  -0.05719   0.01583   0.03658   0.13074
   0.19242   0.31109   0.38421   0.47984   0.47984   0.53141   0.53141   0.53356
   0.54795   0.55656   0.55656   0.58238
      occupation numbers for kpt#   1
   2.00000   2.00000   2.00000   2.00000   2.00000   2.00000   1.99999   1.99994
   1.99970   1.99421   1.96453   1.67059   1.67059   1.16554   1.16554   1.13935
   0.96046   0.85385   0.85385   0.56186

 ETOT 13  -33.419824383821    -6.964E-08 4.866E-10 1.370E-05 1.004E-05 1.352E-01

 cartesian forces (ha/bohr); non-corrected avg=  0.00E+00 -1.25E-06  0.00E+00
    1     0.00000000000E+00   -3.92269284408E-01    0.00000000000E+00
    2     0.00000000000E+00    4.47051950201E-03    0.00000000000E+00
    3     0.00000000000E+00    9.04906976680E-03    0.00000000000E+00
    4     0.00000000000E+00    6.05944523643E-01    0.00000000000E+00
    5     0.00000000000E+00   -6.31512922707E-02    0.00000000000E+00
    6     0.00000000000E+00    2.15645495523E-02    0.00000000000E+00
[...]
  0.00000000000000E+00  0.00000000000000E+00  0.00000000000000E+00
  0.00000000000000E+00  0.00000000000000E+00  0.00000000000000E+00
 -0.00000000000000E+00 -1.48783377737479E-04 -0.00000000000000E+00
 -0.00000000000000E+00 -1.28604221138110E-04 -0.00000000000000E+00
 -0.00000000000000E+00 -9.03415046322178E-05 -0.00000000000000E+00
 -0.00000000000000E+00 -7.01623480328484E-05 -0.00000000000000E+00
 Kinetic energy of ions (ekin) [Ha]=  1.32496846188619E-03
 Total energy (etotal) [Ha]= -3.34904852079781E+01

 Difference of energy with previous step (new-old):
           Absolute (Ha)=-8.27737E-04
           Relative     =-2.47159E-05
================================================================================

 ----iterations are completed or convergence reached----

 Mean square residual over all n,k,spin=   6.8264E-13; max=  1.5453E-12
   0.0000  0.0000  0.0000    1  1.54532E-12 kpt; spin; max resid(k); each band:
  5.24E-13 1.29E-12 1.04E-12 1.16E-12 1.26E-12 8.31E-13 9.34E-13 1.51E-12
  8.03E-13 1.55E-12 8.38E-13 1.14E-14 1.13E-14 1.20E-12 1.65E-14 2.88E-14
  4.43E-13 5.02E-14 7.09E-14 8.49E-14
 reduced coordinates (array xred) for    8 atoms
       0.000000000000      0.333333333333      0.000000000000
       0.000000000000      0.433333333333      0.000000000000
       0.000000000000      0.533333333333      0.000000000000
       0.000000000000      0.633333333333      0.000000000000
       0.000000000000     -0.218163346708      0.000000000000
       0.000000000000     -0.083382598421      0.000000000000
       0.000000000000      0.190350168901      0.000000000000
       0.000000000000      0.058464250521      0.000000000000
 rms dE/dt=  4.7462E+00; max dE/dt=  1.6159E+01; dE/dt below (all hartree)
    1       0.000000000000     16.159137844924      0.000000000000
    2       0.000000000000      0.094280627428      0.000000000000
    3      -0.000000000000     -0.142174360098     -0.000000000000
    4      -0.000000000000    -16.715025681943     -0.000000000000
    5       0.000000000000      0.092982145815      0.000000000000
    6       0.000000000000      0.177378164043      0.000000000000
    7       0.000000000000      0.124512620801      0.000000000000
    8       0.000000000000      0.208908639028      0.000000000000

 cartesian coordinates (angstrom) at end:
    1      0.00000000000000     5.29177208590000     0.00000000000000
    2      0.00000000000000     6.87930371167000     0.00000000000000
    3      0.00000000000000     8.46683533744000     0.00000000000000
    4      0.00000000000000    10.05436696321000     0.00000000000000
    5      0.00000000000000    -3.46341212483354     0.00000000000000
    6      0.00000000000000    -1.32372512032909     0.00000000000000
    7      0.00000000000000     3.02186913100491     0.00000000000000
    8      0.00000000000000     0.92813846678937     0.00000000000000

 cartesian forces (hartree/bohr) at end:
    1     -0.00000000000000    -0.53863792816413    -0.00000000000000
    2     -0.00000000000000    -0.00314268758095    -0.00000000000000
    3      0.00000000000000     0.00473914533659     0.00000000000000
    4      0.00000000000000     0.55716752273142     0.00000000000000
    5     -0.00000000000000    -0.00309940486052    -0.00000000000000
    6     -0.00000000000000    -0.00591260546809    -0.00000000000000
    7     -0.00000000000000    -0.00415042069337    -0.00000000000000
    8     -0.00000000000000    -0.00696362130095    -0.00000000000000
 frms,max,avg= 3.0315456E-03 6.9636213E-03   0.000E+00  0.000E+00  0.000E+00 h/b

 cartesian forces (eV/Angstrom) at end:
    1     -0.00000000000000   -27.69787357978488    -0.00000000000000
    2     -0.00000000000000    -0.16160347938092    -0.00000000000000
    3      0.00000000000000     0.24369663097513     0.00000000000000
    4      0.00000000000000    28.65070356255032     0.00000000000000
    5     -0.00000000000000    -0.15937779259571    -0.00000000000000
    6     -0.00000000000000    -0.30403837201098    -0.00000000000000
    7     -0.00000000000000    -0.21342319516885    -0.00000000000000
    8     -0.00000000000000    -0.35808377458412    -0.00000000000000
 frms,max,avg= 1.5588833E-01 3.5808377E-01   0.000E+00  0.000E+00  0.000E+00 e/A
 length scales=  5.000000000000 30.000000000000  5.000000000000 bohr
              =  2.645886042950 15.875316257700  2.645886042950 angstroms
 prteigrs : about to open file t40o_EIG
 Fermi (or HOMO) energy (hartree) =   0.54890   Average Vxc (hartree)=  -0.41059
 Eigenvalues (hartree) for nkpt=   1  k points:
 kpt#   1, nband= 20, wtk=  1.00000, kpt=  0.0000  0.0000  0.0000 (reduced coord)
  -0.17648  -0.13685  -0.12949  -0.08982  -0.05621   0.01791   0.03252   0.12837
   0.19467   0.31555   0.37164   0.48619   0.48619   0.53189   0.54549   0.54549
   0.54967   0.55405   0.55405   0.58632
      occupation numbers for kpt#   1
   2.00000   2.00000   2.00000   2.00000   2.00000   2.00000   2.00000   1.99995
   1.99971   1.99416   1.97648   1.65491   1.65491   1.20940   1.04260   1.04260
   0.99037   0.93565   0.93565   0.56361
 Total charge density [el/Bohr^3]
,     Maximum=    1.2195E-01  at reduced coord.    0.0000    0.5833    0.8750
,Next maximum=    1.2195E-01  at reduced coord.    0.0000    0.5833    0.1250
,     Minimum=    7.7570E-03  at reduced coord.    0.5000    0.5833    0.5000
,Next minimum=    7.9102E-03  at reduced coord.    0.5000    0.4792    0.5000
,  Integrated=    3.2000E+01

--------------------------------------------------------------------------------
 Components of total free energy (in Hartree) :

    Kinetic energy  =  1.46957432392600E+01
    Hartree energy  =  4.26549446733915E+00
    XC energy       = -1.49443115865098E+01
    Ewald energy    = -3.47331031447885E+01
    PspCore energy  =  4.89427565698322E-01
    Loc. psp. energy= -1.29384310384269E+01
    NL   psp  energy=  1.01331675223182E+01
    >>>>> Internal E= -3.30320129751095E+01

    -kT*entropy     = -4.58472232868543E-01
    >>>>>>>>> Etotal= -3.34904852079781E+01

 Other information on the energy :
    Total energy(eV)= -9.11322448651944E+02 ; Band energy (Ha)=   6.2345078029E+00
--------------------------------------------------------------------------------

          ===> extra information on forces <===
 ewald contribution to reduced grads
    1       0.000000000000     80.777222790349      0.000000000000
    2      -0.000000000000     20.981907524447     -0.000000000000
    3       0.000000000000    -27.716435496942      0.000000000000
    4      -0.000000000000    -87.985067556445     -0.000000000000
    5       0.000000000000    -28.986386111394     -0.000000000000
    6       0.000000000000    -12.323876095941     -0.000000000000
    7      -0.000000000000     32.990036862692     -0.000000000000
    8       0.000000000000     22.262598083234     -0.000000000000
 nonlocal contribution to red. grads
    1       0.000000000000     13.766138745408      0.000000000000
    2       0.000000000000     -2.388239456044      0.000000000000
    3       0.000000000000      2.369258394481      0.000000000000
    4       0.000000000000    -14.389457258868      0.000000000000
    5       0.000000000000      1.676756193033      0.000000000000
    6       0.000000000000     -0.752096858322      0.000000000000
    7       0.000000000000     -1.717026292901      0.000000000000
    8       0.000000000000      1.493683333046      0.000000000000
 local psp contribution to red. grads
    1      -0.000000000000    -77.386893137786      0.000000000000
    2      -0.000000000000    -18.617213542080     -0.000000000000
    3      -0.000000000000     25.323883312550     -0.000000000000
    4      -0.000000000000     84.599802446222      0.000000000000
    5      -0.000000000000     27.593173425918     -0.000000000000
    6      -0.000000000000     13.161227390178     -0.000000000000
    7      -0.000000000000    -31.335838912685      0.000000000000
    8      -0.000000000000    -23.394681244674     -0.000000000000
 core charge xc contribution to reduced grads
    1       0.000000000000     -0.996788211332     -0.000000000000
    2       0.000000000000      0.117902091445      0.000000000000
    3       0.000000000000     -0.119398224790      0.000000000000
    4       0.000000000000      1.058851843463     -0.000000000000
    5       0.000000000000     -0.191701388039      0.000000000000
    6       0.000000000000      0.091592452087      0.000000000000
    7       0.000000000000      0.189012656668     -0.000000000000
    8       0.000000000000     -0.152032744944      0.000000000000
 residual contribution to red. grads
    1       0.000000000000     -0.000542341715      0.000000000000
    2       0.000000000000     -0.000075990340     -0.000000000000
    3       0.000000000000      0.000517654603     -0.000000000000
    4      -0.000000000000      0.000844843685     -0.000000000000
    5       0.000000000000      0.001140026298      0.000000000000
    6       0.000000000000      0.000531276041      0.000000000000
    7      -0.000000000000     -0.001671692973     -0.000000000000
    8       0.000000000000     -0.000658787634     -0.000000000000
 rms coord change=  8.9451E-03   atom, delta coord (reduced):
     1        0.000000000000      0.000000000000      0.000000000000
     2        0.000000000000      0.000000000000      0.000000000000
     3        0.000000000000      0.000000000000      0.000000000000
     4        0.000000000000      0.000000000000      0.000000000000
     5        0.000000000000     -0.018163346708      0.000000000000
     6        0.000000000000     -0.016715931755      0.000000000000
     7        0.000000000000     -0.026316497766      0.000000000000
     8        0.000000000000     -0.024869082812      0.000000000000

 Cartesian components of stress tensor (hartree/bohr^3)
  sigma(1 1)=  1.59546593E-03  sigma(3 2)=  0.00000000E+00
  sigma(2 2)= -1.39120493E-02  sigma(3 1)=  0.00000000E+00
  sigma(3 3)=  1.59546593E-03  sigma(2 1)=  0.00000000E+00

-Cartesian components of stress tensor (GPa)         [Pressure=  1.0514E+02 GPa]
- sigma(1 1)=  4.69402203E+01  sigma(3 2)=  0.00000000E+00
- sigma(2 2)= -4.09306553E+02  sigma(3 1)=  0.00000000E+00
- sigma(3 3)=  4.69402203E+01  sigma(2 1)=  0.00000000E+00

== END DATASET(S) ==============================================================
================================================================================
  
 -outvars: echo values of variables after computation  --------
            acell      5.0000000000E+00  3.0000000000E+01  5.0000000000E+00 Bohr
              amu      2.80855000E+01
            dtion      3.50000000E+02
             ecut      3.00000000E+00 Hartree
           etotal     -3.3490485208E+01
            fcart     -0.0000000000E+00 -5.3863792816E-01 -0.0000000000E+00
                      -0.0000000000E+00 -3.1426875809E-03 -0.0000000000E+00
                      -0.0000000000E+00  4.7391453366E-03 -0.0000000000E+00
                      -0.0000000000E+00  5.5716752273E-01 -0.0000000000E+00
                      -0.0000000000E+00 -3.0994048605E-03 -0.0000000000E+00
                      -0.0000000000E+00 -5.9126054681E-03 -0.0000000000E+00
                      -0.0000000000E+00 -4.1504206934E-03 -0.0000000000E+00
                      -0.0000000000E+00 -6.9636213009E-03 -0.0000000000E+00
-          fftalg         112
           iatfix        1    2    3    4
           ionmov           1
             iscf           5
           istwfk        2
           kptopt           0
P           mkmem           1
           natfix           4
            natom           8
            nband          20
           nconeq           1
            ngfft           8      48       8
             nkpt           1
            nline           6
            nstep         100
             nsym           8
            ntime          10
           ntypat           1
              occ      2.000000  2.000000  2.000000  2.000000  1.999999  1.999997
                       1.999995  1.999946  1.999715  1.994163  1.976484  1.654910
                       1.654910  1.209397  1.042604  1.042604  0.990366  0.935650
                       0.935650  0.563610
           occopt           3
        optforces           1
           prtvol          10
          spgroup          99
           strten      1.5954659283E-03 -1.3912049303E-02  1.5954659283E-03
                       0.0000000000E+00  0.0000000000E+00  0.0000000000E+00
           symrel      1  0  0   0  1  0   0  0  1      -1  0  0   0  1  0   0  0  1
                      -1  0  0   0  1  0   0  0 -1       1  0  0   0  1  0   0  0 -1
                       0  0  1   0  1  0   1  0  0       0  0 -1   0  1  0   1  0  0
                       0  0 -1   0  1  0  -1  0  0       0  0  1   0  1  0  -1  0  0
           toldff      1.00000000E-05
           tolmxf      1.00000000E-03
            typat      1  1  1  1  1  1  1  1
              vel      0.0000000000E+00  0.0000000000E+00  0.0000000000E+00
                       0.0000000000E+00  0.0000000000E+00  0.0000000000E+00
                       0.0000000000E+00  0.0000000000E+00  0.0000000000E+00
                       0.0000000000E+00  0.0000000000E+00  0.0000000000E+00
                      -0.0000000000E+00 -1.4878337774E-04 -0.0000000000E+00
                      -0.0000000000E+00 -1.2860422114E-04 -0.0000000000E+00
                      -0.0000000000E+00 -9.0341504632E-05 -0.0000000000E+00
                      -0.0000000000E+00 -7.0162348033E-05 -0.0000000000E+00
          wtatcon      0.00000000E+00  0.00000000E+00  0.00000000E+00
                       0.00000000E+00  0.00000000E+00  0.00000000E+00
                       0.00000000E+00  0.00000000E+00  0.00000000E+00
                       0.00000000E+00  0.00000000E+00  0.00000000E+00
                       0.00000000E+00 -1.00000000E+00  0.00000000E+00
                       0.00000000E+00  1.00000000E+00  0.00000000E+00
                       0.00000000E+00  1.00000000E+00  0.00000000E+00
                       0.00000000E+00 -1.00000000E+00  0.00000000E+00
           xangst      0.0000000000E+00  5.2917720859E+00  0.0000000000E+00
                       0.0000000000E+00  6.8793037117E+00  0.0000000000E+00
                       0.0000000000E+00  8.4668353374E+00  0.0000000000E+00
                       0.0000000000E+00  1.0054366963E+01  0.0000000000E+00
                       0.0000000000E+00 -3.4634121248E+00  0.0000000000E+00
                       0.0000000000E+00 -1.3237251203E+00  0.0000000000E+00
                       0.0000000000E+00  3.0218691310E+00  0.0000000000E+00
                       0.0000000000E+00  9.2813846679E-01  0.0000000000E+00
            xcart      0.0000000000E+00  1.0000000000E+01  0.0000000000E+00
                       0.0000000000E+00  1.3000000000E+01  0.0000000000E+00
                       0.0000000000E+00  1.6000000000E+01  0.0000000000E+00
                       0.0000000000E+00  1.9000000000E+01  0.0000000000E+00
                       0.0000000000E+00 -6.5449004013E+00  0.0000000000E+00
                       0.0000000000E+00 -2.5014779526E+00  0.0000000000E+00
                       0.0000000000E+00  5.7105050670E+00  0.0000000000E+00
                       0.0000000000E+00  1.7539275156E+00  0.0000000000E+00
             xred      0.0000000000E+00  3.3333333333E-01  0.0000000000E+00
                       0.0000000000E+00  4.3333333333E-01  0.0000000000E+00
                       0.0000000000E+00  5.3333333333E-01  0.0000000000E+00
                       0.0000000000E+00  6.3333333333E-01  0.0000000000E+00
                       0.0000000000E+00 -2.1816334671E-01  0.0000000000E+00
                       0.0000000000E+00 -8.3382598421E-02  0.0000000000E+00
                       0.0000000000E+00  1.9035016890E-01  0.0000000000E+00
                       0.0000000000E+00  5.8464250521E-02  0.0000000000E+00
            znucl       14.00000

================================================================================


- Timing analysis has been suppressed with timopt=0



================================================================================

 Suggested references for the acknowledgment of ABINIT usage.

 The users of ABINIT have little formal obligations with respect to the ABINIT group
 (those specified in the GNU General Public License, http://www.gnu.org/copyleft/gpl.txt).
 However, it is common practice in the scientific literature,
 to acknowledge the efforts of people that have made the research possible.
 In this spirit, please find below suggested citations of work written by ABINIT developers,
 corresponding to implementations inside of ABINIT that you have used in the present run.
 Note also that it will be of great value to readers of publications presenting these results,
 to read papers enabling them to understand the theoretical formalism and details
 of the ABINIT implementation.
 For information on why they are suggested, see also http://www.abinit.org/about/?text=acknowledgments.

 [1] ABINIT : First-principles approach of materials and nanosystem properties.
 X. Gonze, B. Amadon, P.-M. Anglade, J.-M. Beuken, F. Bottin, P. Boulanger, F. Bruneval,
 D. Caliste, R. Caracas, M. Cote, T. Deutsch, L. Genovese, Ph. Ghosez, M. Giantomassi
 S. Goedecker, D.R. Hamann, P. Hermet, F. Jollet, G. Jomard, S. Leroux, M. Mancini, S. Mazevet,
 M.J.T. Oliveira, G. Onida, Y. Pouillon, T. Rangel, G.-M. Rignanese, D. Sangalli, R. Shaltaf,
 M. Torrent, M.J. Verstraete, G. Zerah, J.W. Zwanziger
 Computer Phys. Comm. 180, 2582-2615 (2009).
 Comment : the third generic paper describing the ABINIT project.
 Note that a version of this paper, that is not formatted for Computer Phys. Comm. 
 is available at http://www.abinit.org/about/ABINIT_CPC_v10.pdf .
 The licence allows the authors to put it on the Web.

 [2] A brief introduction to the ABINIT software package.
 X. Gonze, G.-M. Rignanese, M. Verstraete, J.-M. Beuken, Y. Pouillon, R. Caracas, F. Jollet,
 M. Torrent, G. Zerah, M. Mikami, Ph. Ghosez, M. Veithen, J.-Y. Raty, V. Olevano, F. Bruneval,
 L. Reining, R. Godby, G. Onida, D.R. Hamann, and D.C. Allan.
 Z. Kristallogr. 220, 558-562 (2005).
 Comment : the second generic paper describing the ABINIT project. Note that this paper
 should be cited especially if you are using the GW part of ABINIT, as several authors
 of this part are not in the list of authors of the first or third paper.
 The .pdf of the latter paper is available at http://www.abinit.org/about/zfk_0505-06_558-562.pdf.
 Note that it should not redistributed (Copyright by Oldenburg Wissenshaftverlag,
 the licence allows the authors to put it on the Web).


 And optionally :

 [3] First-principles computation of material properties : the ABINIT software project. 
 X. Gonze, J.-M. Beuken, R. Caracas, F. Detraux, M. Fuchs, G.-M. Rignanese, L. Sindic,
 M. Verstraete, G. Zerah, F. Jollet, M. Torrent, A. Roy, M. Mikami, Ph. Ghosez, J.-Y. Raty, D.C. Allan.
 Computational Materials Science 25, 478-492 (2002). http://dx.doi.org/10.1016/S0927-0256(02)00325-7
 Comment : the original paper describing the ABINIT project.

 [4] Fast radix 2, 3, 4 and 5 kernels for Fast Fourier Transformations
 on computers with overlapping multiply-add instructions.
 S. Goedecker, SIAM J. on Scientific Computing 18, 1605 (1997).

 [5] Towards a potential-based conjugate gradient algorithm for order-N self-consistent
 total energy calculations.
 X. Gonze, Phys. Rev. B 54, 4383 (1996).
 Comment : The potential-based conjugate-gradient algorithm, used when iscf=5, is not published.
 However, many elements of this algorithm have been explained in the paper above.
-
- Proc.   0 individual time (sec): cpu=          5.6  wall=          5.6

================================================================================

 Calculation completed.
.Delivered    5 WARNINGs and   0 COMMENTs to log file.
+Overall time at end (sec) : cpu=          5.6  wall=          5.6
