
.Version 7.9.3 of ABINIT 
.(MPI version, prepared for a x86_64_linux_gnu4.7 computer) 

.Copyright (C) 1998-2014 ABINIT group . 
 ABINIT comes with ABSOLUTELY NO WARRANTY.
 It is free software, and you are welcome to redistribute it
 under certain conditions (GNU General Public License,
 see ~abinit/COPYING or http://www.gnu.org/copyleft/gpl.txt).

 ABINIT is a project of the Universite Catholique de Louvain,
 Corning Inc. and other collaborators, see ~abinit/doc/developers/contributors.txt .
 Please read ~abinit/doc/users/acknowledgments.html for suggested
 acknowledgments of the ABINIT effort.
 For more information, see http://www.abinit.org .

.Starting date : Sat 30 Aug 2014.
- ( at 22h33 )
  
- input  file    -> t05.in
- output file    -> t05.out
- root for input  files -> t05i
- root for output files -> t05o


 DATASET    1 : space group P1 (#  1); Bravais aP (primitive triclinic)
================================================================================
 Values of the parameters that define the memory need for DATASET  1.
   intxc =         0  ionmov =         0    iscf =        14 xclevel =         1
  lmnmax =         8   lnmax =         4   mband =         6  mffmem =         1
P  mgfft =        10   mkmem =         1 mpssoang=         2     mpw =        29
  mqgrid =      3001   natom =         1    nfft =       640    nkpt =         1
  nloalg =         4  nspden =         1 nspinor =         1  nsppol =         1
    nsym =         1  n1xccc =         1  ntypat =         1  occopt =         7
 PAW method is used; the additional fine FFT grid is defined by:
   mgfftf=        20    nfftf =      5760
================================================================================
P This job should need less than                       2.443 Mbytes of memory.
  Rough estimation (10% accuracy) of disk space for files :
_ WF disk file :      0.005 Mbytes ; DEN or POT disk file :      0.046 Mbytes.
================================================================================


 DATASET    2 : space group P1 (#  1); Bravais aP (primitive triclinic)
================================================================================
 Values of the parameters that define the memory need for DATASET  2.
   intxc =         0  ionmov =         0    iscf =        14 xclevel =         1
  lmnmax =         8   lnmax =         4   mband =         6  mffmem =         1
P  mgfft =        10   mkmem =         1 mpssoang=         2     mpw =        29
  mqgrid =      3001   natom =         1    nfft =       640    nkpt =         1
  nloalg =         4  nspden =         1 nspinor =         1  nsppol =         1
    nsym =         1  n1xccc =         1  ntypat =         1  occopt =         7
 PAW method is used; the additional fine FFT grid is defined by:
   mgfftf=        20    nfftf =      5760
================================================================================
P This job should need less than                       2.443 Mbytes of memory.
  Rough estimation (10% accuracy) of disk space for files :
_ WF disk file :      0.005 Mbytes ; DEN or POT disk file :      0.046 Mbytes.
================================================================================


 DATASET    3 : space group P1 (#  1); Bravais aP (primitive triclinic)
================================================================================
 Values of the parameters that define the memory need for DATASET  3.
   intxc =         0  ionmov =         0    iscf =        14 xclevel =         1
  lmnmax =         8   lnmax =         4   mband =         6  mffmem =         1
P  mgfft =        10   mkmem =         1 mpssoang=         2     mpw =        29
  mqgrid =      3001   natom =         1    nfft =       640    nkpt =         1
  nloalg =         4  nspden =         1 nspinor =         1  nsppol =         1
    nsym =         1  n1xccc =         1  ntypat =         1  occopt =         7
 PAW method is used; the additional fine FFT grid is defined by:
   mgfftf=        20    nfftf =      5760
================================================================================
P This job should need less than                       2.443 Mbytes of memory.
  Rough estimation (10% accuracy) of disk space for files :
_ WF disk file :      0.005 Mbytes ; DEN or POT disk file :      0.046 Mbytes.
================================================================================


 DATASET    4 : space group P1 (#  1); Bravais aP (primitive triclinic)
================================================================================
 Values of the parameters that define the memory need for DATASET  4.
   intxc =         0  ionmov =         0    iscf =        14 xclevel =         1
  lmnmax =         8   lnmax =         4   mband =         6  mffmem =         1
P  mgfft =        10   mkmem =         1 mpssoang=         2     mpw =        29
  mqgrid =      3001   natom =         1    nfft =       640    nkpt =         1
  nloalg =         4  nspden =         1 nspinor =         1  nsppol =         1
    nsym =         1  n1xccc =         1  ntypat =         1  occopt =         7
 PAW method is used; the additional fine FFT grid is defined by:
   mgfftf=        20    nfftf =      5760
================================================================================
P This job should need less than                       2.443 Mbytes of memory.
  Rough estimation (10% accuracy) of disk space for files :
_ WF disk file :      0.005 Mbytes ; DEN or POT disk file :      0.046 Mbytes.
================================================================================


 DATASET    5 : space group P1 (#  1); Bravais aP (primitive triclinic)
================================================================================
 Values of the parameters that define the memory need for DATASET  5.
   intxc =         0  ionmov =         0    iscf =        14 xclevel =         1
  lmnmax =         8   lnmax =         4   mband =         6  mffmem =         1
P  mgfft =        10   mkmem =         1 mpssoang=         2     mpw =        29
  mqgrid =      3001   natom =         1    nfft =       640    nkpt =         1
  nloalg =         4  nspden =         1 nspinor =         1  nsppol =         1
    nsym =         1  n1xccc =         1  ntypat =         1  occopt =         7
 PAW method is used; the additional fine FFT grid is defined by:
   mgfftf=        20    nfftf =      5760
================================================================================
P This job should need less than                       2.443 Mbytes of memory.
  Rough estimation (10% accuracy) of disk space for files :
_ WF disk file :      0.005 Mbytes ; DEN or POT disk file :      0.046 Mbytes.
================================================================================

--------------------------------------------------------------------------------
------------- Echo of variables that govern the present computation ------------
--------------------------------------------------------------------------------
-
- outvars: echo of selected default values                                      
-   accesswff0 =  0 , fftalg0 =112 , wfoptalg0 = 10
-
- outvars: echo of global parameters not present in the input file              
-  max_nthreads =    0
-
 -outvars: echo values of preprocessed input variables --------
            acell      3.0000000000E+00  3.5000000000E+00  4.0000000000E+00 Bohr
              amu      1.59994000E+01
             ecut      3.00000000E+00 Hartree
           enunit           2
-          fftalg         112
             iscf          14
           istwfk        1
              ixc           7
           jdtset        1    2    3    4    5
           kptopt           0
P           mkmem           1
            natom           1
            nband           6
           ndtset           5
            ngfft           8       8      10
          ngfftdg          16      18      20
             nkpt           1
            nline           5
            nstep          20
             nsym           1
            ntime           5
           ntypat           1
              occ      2.000000  2.000000  2.000000  0.000000  0.000000  0.000000
           occopt           7
           ortalg1          1
           ortalg2         -1
           ortalg3          2
           ortalg4         -2
           ortalg5          3
        pawecutdg      1.50000000E+01 Hartree
         pawmixdg           1
        pawoptmix           1
            prtwf           0
            rprim      1.4000000000E+00  0.0000000000E+00  0.0000000000E+00
                       0.0000000000E+00  1.4000000000E+00  0.0000000000E+00
                       0.0000000000E+00  0.0000000000E+00  1.4000000000E+00
          spgroup           1
           toldfe      1.00000000E-08 Hartree
           tsmear      2.00000000E-02 Hartree
            typat      1
           useylm           1
            znucl        8.00000

================================================================================

 chkinp: Checking input parameters for consistency, jdtset=   1.

 chkinp: Checking input parameters for consistency, jdtset=   2.

 chkinp: Checking input parameters for consistency, jdtset=   3.

 chkinp: Checking input parameters for consistency, jdtset=   4.

 chkinp: Checking input parameters for consistency, jdtset=   5.

================================================================================
== DATASET  1 ==================================================================
-   nproc =    1

 Exchange-correlation functional for the present dataset will be:
  LDA: Perdew-Wang 92 LSD fit to Ceperley-Alder data - ixc=7
 Citation for XC functional:
  J.P.Perdew and Y.Wang, PRB 45, 13244 (1992)

 Real(R)+Recip(G) space primitive vectors, cartesian coordinates (Bohr,Bohr^-1):
 R(1)=  4.2000000  0.0000000  0.0000000  G(1)=  0.2380952  0.0000000  0.0000000
 R(2)=  0.0000000  4.9000000  0.0000000  G(2)=  0.0000000  0.2040816  0.0000000
 R(3)=  0.0000000  0.0000000  5.6000000  G(3)=  0.0000000  0.0000000  0.1785714
 Unit cell volume ucvol=  1.1524800E+02 bohr^3
 Angles (23,13,12)=  9.00000000E+01  9.00000000E+01  9.00000000E+01 degrees

 Coarse grid specifications (used for wave-functions):

 getcut: wavevector=  0.0000  0.0000  0.0000  ngfft=   8   8  10
         ecut(hartree)=      3.000   => boxcut(ratio)=   2.09396

 Fine grid specifications (used for densities):

 getcut: wavevector=  0.0000  0.0000  0.0000  ngfft=  16  18  20
         ecut(hartree)=     15.000   => boxcut(ratio)=   2.04848

--- Pseudopotential description ------------------------------------------------
- pspini: atom type   1  psp file is /home/gonze/ABINIT/ABINITv7.9.3/trunk/7.9.3-private/tests/Psps_for_tests/8o.paw
- pspatm: opening atomic psp file    /home/gonze/ABINIT/ABINITv7.9.3/trunk/7.9.3-private/tests/Psps_for_tests/8o.paw
- Paw atomic data for element O - Generated by AtomPAW (N. Holzwarth)
-  8.00000   6.00000  20040423                znucl, zion, pspdat
    7    7    1    0       350   0.00000      pspcod,pspxc,lmax,lloc,mmax,r2well
 Pseudopotential format is: paw2
 basis_size (lnmax)=  4 (lmn_size=  8), orbitals=   0   0   1   1
 Spheres core radius: rc_sph= 1.41000000
 2 radial meshes are used:
  - mesh 1: r(i)=AA*exp(BB*(i-2)), size= 350 , AA= 0.72362E-05 BB= 0.35000E-01
  - mesh 2: r(i)=step*(i-1), size= 566 , step= 0.25000E-02
 Shapefunction is SIN type: shapef(r)=[sin(pi*r/rshp)/(pi*r/rshp)]**2
 Radius for shape functions = sphere core radius
 Radial grid used for partial waves is grid 1
 Radial grid used for projectors is grid  2
 Radial grid used for (t)core density is grid 1
 Radial grid used for Vloc is grid 1
 Compensation charge density is taken into account in XC energy/potential
 pspatm: atomic psp has been read  and splines computed

   5.36358311E+01                                ecore*ucvol(ha*bohr**3)
--------------------------------------------------------------------------------

P newkpt: treating      6 bands with npw=      29 for ikpt=   1 by node    0

_setup2: Arith. and geom. avg. npw (full set) are      29.000      29.000

================================================================================

     iter   Etot(hartree)      deltaE(h)  residm     nres2
 ETOT  1  -14.315521004073    -1.432E+01 4.934E-05 4.998E+01
 ETOT  2  -13.180903453381     1.135E+00 1.223E-07 8.012E+00
 ETOT  3  -13.130158410680     5.075E-02 2.002E-03 3.825E+00
 ETOT  4  -13.114945190929     1.521E-02 4.754E-05 6.469E-02
 ETOT  5  -13.115212531604    -2.673E-04 1.244E-05 2.162E-03
 ETOT  6  -13.115311551296    -9.902E-05 1.101E-06 8.018E-04
 ETOT  7  -13.115340088398    -2.854E-05 9.483E-08 2.243E-04
 ETOT  8  -13.115358538639    -1.845E-05 4.050E-07 1.004E-05
 ETOT  9  -13.115359625595    -1.087E-06 2.332E-08 8.826E-07
 ETOT 10  -13.115359691999    -6.640E-08 4.514E-09 5.409E-08
 ETOT 11  -13.115359694334    -2.335E-09 1.463E-10 2.937E-08
 ETOT 12  -13.115359694896    -5.615E-10 1.420E-11 5.947E-09

 At SCF step   12, etot is converged : 
  for the second time, diff in etot=  5.615E-10 < toldfe=  1.000E-08

 Cartesian components of stress tensor (hartree/bohr^3)
  sigma(1 1)=  1.18310924E-02  sigma(3 2)= -5.27520590E-13
  sigma(2 2)=  1.51008123E-02  sigma(3 1)= -4.09246624E-13
  sigma(3 3)=  1.45353237E-02  sigma(2 1)= -2.25255952E-13


 PAW TEST:
 ==== Compensation charge inside spheres ============
 The following values must be close to each other ...
 Compensation charge over spherical meshes =     -0.050800609211643
 Compensation charge over fine fft grid    =     -0.050798040673541

 ==== Results concerning PAW augmentation regions ====

 Total pseudopotential strength Dij (hartree):
   0.20547  -0.00331   0.00000   0.00000   0.00000   0.00000   0.00000   0.00000
  -0.00331   0.12678   0.00000   0.00000   0.00000   0.00000   0.00000   0.00000
   0.00000   0.00000  -0.90811   0.00000   0.00000   0.07684   0.00000   0.00000
   0.00000   0.00000   0.00000  -0.90673   0.00000   0.00000   0.07793   0.00000
   0.00000   0.00000   0.00000   0.00000  -0.90912   0.00000   0.00000   0.07615
   0.00000   0.00000   0.07684   0.00000   0.00000  -1.29606   0.00000   0.00000
   0.00000   0.00000   0.00000   0.07793   0.00000   0.00000  -1.29422   0.00000
   0.00000   0.00000   0.00000   0.00000   0.07615   0.00000   0.00000  -1.29684

 Total pseudopotential strength Dij (eV):
   5.59102  -0.09001   0.00000   0.00000   0.00000   0.00000   0.00000   0.00000
  -0.09001   3.44973   0.00000   0.00000   0.00000   0.00000   0.00000   0.00000
   0.00000   0.00000 -24.71092   0.00000   0.00000   2.09092   0.00000   0.00000
   0.00000   0.00000   0.00000 -24.67326   0.00000   0.00000   2.12066   0.00000
   0.00000   0.00000   0.00000   0.00000 -24.73841   0.00000   0.00000   2.07215
   0.00000   0.00000   2.09092   0.00000   0.00000 -35.26746   0.00000   0.00000
   0.00000   0.00000   0.00000   2.12066   0.00000   0.00000 -35.21757   0.00000
   0.00000   0.00000   0.00000   0.00000   2.07215   0.00000   0.00000 -35.28869

 Augmentation waves occupancies Rhoij:
   1.36109   0.12757   0.00000   0.00000  -0.00000   0.00000   0.00000  -0.00000
   0.12757   0.01196   0.00000   0.00000   0.00000   0.00000   0.00000   0.00000
   0.00000   0.00000   0.25314   0.00000   0.00000   0.07442   0.00000   0.00000
   0.00000   0.00000   0.00000   0.37353  -0.00000   0.00000   0.11029   0.00000
  -0.00000   0.00000   0.00000  -0.00000   0.27947   0.00000   0.00000   0.07574
   0.00000   0.00000   0.07442   0.00000   0.00000   0.02188   0.00000   0.00000
   0.00000   0.00000   0.00000   0.11029   0.00000   0.00000   0.03256   0.00000
  -0.00000   0.00000   0.00000   0.00000   0.07574   0.00000   0.00000   0.02053


================================================================================

 ----iterations are completed or convergence reached----

 Mean square residual over all n,k,spin=   4.7503E-12; max=  1.4196E-11
   0.0000  0.0000  0.0000    1  1.41962E-11 kpt; spin; max resid(k); each band:
  3.32E-13 3.41E-17 2.02E-16 1.96E-16 1.42E-11 1.40E-11
 reduced coordinates (array xred) for    1 atoms
       0.000000000000      0.000000000000      0.000000000000
 rms dE/dt=  4.0494E-09; max dE/dt=  6.8535E-09; dE/dt below (all hartree)
    1       0.000000001196      0.000000000890      0.000000006854

 cartesian coordinates (angstrom) at end:
    1      0.00000000000000     0.00000000000000     0.00000000000000

 cartesian forces (hartree/bohr) at end:
    1      0.00000000000000     0.00000000000000     0.00000000000000
 frms,max,avg= 0.0000000E+00 0.0000000E+00  -2.848E-10 -1.816E-10 -1.224E-09 h/b

 cartesian forces (eV/Angstrom) at end:
    1      0.00000000000000     0.00000000000000     0.00000000000000
 frms,max,avg= 0.0000000E+00 0.0000000E+00  -1.465E-08 -9.337E-09 -6.293E-08 e/A
 length scales=  3.000000000000  3.500000000000  4.000000000000 bohr
              =  1.587531625770  1.852120230065  2.116708834360 angstroms
 prteigrs : about to open file t05o_DS1_EIG
 Fermi (or HOMO) energy (hartree) =   0.07713   Average Vxc (hartree)=  -0.33816
 Eigenvalues (hartree) for nkpt=   1  k points:
 kpt#   1, nband=  6, wtk=  1.00000, kpt=  0.0000  0.0000  0.0000 (reduced coord)
  -1.12267   0.00806   0.07399   0.08026   0.18952   0.56314
      occupation numbers for kpt#   1
   2.00000   2.00000   1.17532   0.82468   0.00000   0.00000
 Fermi (or HOMO) energy (eV) =   2.09875   Average Vxc (eV)=  -9.20174
 Eigenvalues (   eV  ) for nkpt=   1  k points:
 kpt#   1, nband=  6, wtk=  1.00000, kpt=  0.0000  0.0000  0.0000 (reduced coord)
 -30.54945   0.21935   2.01350   2.18400   5.15706  15.32394
 Total charge density [el/Bohr^3]
,     Maximum=    3.1088E-01  at reduced coord.    0.0000    0.0000    0.9000
,Next maximum=    3.1088E-01  at reduced coord.    0.0000    0.0000    0.1000
,     Minimum=    6.9255E-05  at reduced coord.    0.0000    0.2222    0.5000
,Next minimum=    6.9255E-05  at reduced coord.    0.0000    0.7778    0.5000
,  Integrated=    6.0000E+00

--------------------------------------------------------------------------------
 Components of total free energy (in Hartree) :

    Kinetic energy  =  5.90381809737125E+00
    Hartree energy  =  1.99550647205668E+00
    XC energy       = -2.56726740964017E+00
    Ewald energy    = -1.02694599429949E+01
    PspCore energy  =  4.65394896970391E-01
    Loc. psp. energy= -7.85697437221351E+00
    Spherical terms = -7.64385610696104E-01
    >>>>> Internal E= -1.30933678691464E+01

    -kT*entropy     = -2.20206305420226E-02
    >>>>>>>>> Etotal= -1.31153884996884E+01

 "Double-counting" decomposition of free energy:
    Band energy     = -2.07606520545974E+00
    Ewald energy    = -1.02694599429949E+01
    PspCore energy  =  4.65394896970391E-01
    Dble-C XC-energy= -1.20485135296542E+00
    Spherical terms = -8.35745990393510E-03
    >>>>> Internal E= -1.30933390643536E+01

    -kT*entropy     = -2.20206305420226E-02
    >>>> Etotal (DC)= -1.31153596948956E+01

  >Total energy in eV           = -3.56887870938050E+02
  >Total DC energy in eV        = -3.56887087119777E+02
--------------------------------------------------------------------------------

 Cartesian components of stress tensor (hartree/bohr^3)
  sigma(1 1)=  1.18310924E-02  sigma(3 2)= -5.27520590E-13
  sigma(2 2)=  1.51008123E-02  sigma(3 1)= -4.09246624E-13
  sigma(3 3)=  1.45353237E-02  sigma(2 1)= -2.25255952E-13

-Cartesian components of stress tensor (GPa)         [Pressure= -4.0667E+02 GPa]
- sigma(1 1)=  3.48082698E+02  sigma(3 2)= -1.55201890E-08
- sigma(2 2)=  4.44281161E+02  sigma(3 1)= -1.20404493E-08
- sigma(3 3)=  4.27643915E+02  sigma(2 1)= -6.62725781E-09

================================================================================
== DATASET  2 ==================================================================
-   nproc =    1

 Exchange-correlation functional for the present dataset will be:
  LDA: Perdew-Wang 92 LSD fit to Ceperley-Alder data - ixc=7
 Citation for XC functional:
  J.P.Perdew and Y.Wang, PRB 45, 13244 (1992)

 Real(R)+Recip(G) space primitive vectors, cartesian coordinates (Bohr,Bohr^-1):
 R(1)=  4.2000000  0.0000000  0.0000000  G(1)=  0.2380952  0.0000000  0.0000000
 R(2)=  0.0000000  4.9000000  0.0000000  G(2)=  0.0000000  0.2040816  0.0000000
 R(3)=  0.0000000  0.0000000  5.6000000  G(3)=  0.0000000  0.0000000  0.1785714
 Unit cell volume ucvol=  1.1524800E+02 bohr^3
 Angles (23,13,12)=  9.00000000E+01  9.00000000E+01  9.00000000E+01 degrees

 Coarse grid specifications (used for wave-functions):

 getcut: wavevector=  0.0000  0.0000  0.0000  ngfft=   8   8  10
         ecut(hartree)=      3.000   => boxcut(ratio)=   2.09396

 Fine grid specifications (used for densities):

 getcut: wavevector=  0.0000  0.0000  0.0000  ngfft=  16  18  20
         ecut(hartree)=     15.000   => boxcut(ratio)=   2.04848
--------------------------------------------------------------------------------

P newkpt: treating      6 bands with npw=      29 for ikpt=   1 by node    0

_setup2: Arith. and geom. avg. npw (full set) are      29.000      29.000

================================================================================

     iter   Etot(hartree)      deltaE(h)  residm     nres2
 ETOT  1  -14.282067503129    -1.428E+01 8.843E-02 5.177E+01
 ETOT  2  -13.175691001880     1.106E+00 9.577E-06 7.664E+00
 ETOT  3  -13.129344807227     4.635E-02 1.857E-03 3.709E+00
 ETOT  4  -13.114874527396     1.447E-02 4.708E-05 6.662E-02
 ETOT  5  -13.115196319365    -3.218E-04 1.297E-05 2.492E-03
 ETOT  6  -13.115306930838    -1.106E-04 1.334E-06 8.832E-04
 ETOT  7  -13.115334813302    -2.788E-05 8.542E-08 2.400E-04
 ETOT  8  -13.115358722256    -2.391E-05 5.249E-07 9.074E-06
 ETOT  9  -13.115359635659    -9.134E-07 2.167E-08 8.268E-07
 ETOT 10  -13.115359691477    -5.582E-08 3.956E-09 7.574E-08
 ETOT 11  -13.115359693689    -2.212E-09 2.481E-10 3.558E-08
 ETOT 12  -13.115359694924    -1.234E-09 1.568E-11 7.036E-09

 At SCF step   12, etot is converged : 
  for the second time, diff in etot=  1.234E-09 < toldfe=  1.000E-08

 Cartesian components of stress tensor (hartree/bohr^3)
  sigma(1 1)=  1.18311426E-02  sigma(3 2)=  9.35129969E-11
  sigma(2 2)=  1.51008366E-02  sigma(3 1)=  6.40553931E-12
  sigma(3 3)=  1.45353779E-02  sigma(2 1)=  2.64611792E-09


 PAW TEST:
 ==== Compensation charge inside spheres ============
 The following values must be close to each other ...
 Compensation charge over spherical meshes =     -0.050800538054092
 Compensation charge over fine fft grid    =     -0.050797868339757

 ==== Results concerning PAW augmentation regions ====

 Total pseudopotential strength Dij (hartree):
   0.20547  -0.00331  -0.00000   0.00000   0.00000  -0.00000  -0.00000  -0.00000
  -0.00331   0.12678   0.00000   0.00000   0.00000  -0.00000   0.00000   0.00000
  -0.00000   0.00000  -0.90811   0.00000  -0.00000   0.07684   0.00000  -0.00000
   0.00000   0.00000   0.00000  -0.90673   0.00000   0.00000   0.07793   0.00000
   0.00000   0.00000  -0.00000   0.00000  -0.90912  -0.00000   0.00000   0.07615
  -0.00000  -0.00000   0.07684   0.00000  -0.00000  -1.29606   0.00000  -0.00000
  -0.00000   0.00000   0.00000   0.07793   0.00000   0.00000  -1.29422   0.00000
  -0.00000   0.00000  -0.00000   0.00000   0.07615  -0.00000   0.00000  -1.29684

 Total pseudopotential strength Dij (eV):
   5.59103  -0.09001  -0.00000   0.00000   0.00000  -0.00000  -0.00000  -0.00000
  -0.09001   3.44974   0.00000   0.00000   0.00000  -0.00000   0.00000   0.00000
  -0.00000   0.00000 -24.71092   0.00000  -0.00000   2.09092   0.00000  -0.00000
   0.00000   0.00000   0.00000 -24.67327   0.00000   0.00000   2.12066   0.00000
   0.00000   0.00000  -0.00000   0.00000 -24.73841  -0.00000   0.00000   2.07215
  -0.00000  -0.00000   2.09092   0.00000  -0.00000 -35.26746   0.00000  -0.00000
  -0.00000   0.00000   0.00000   2.12066   0.00000   0.00000 -35.21757   0.00000
  -0.00000   0.00000  -0.00000   0.00000   2.07215  -0.00000   0.00000 -35.28870

 Augmentation waves occupancies Rhoij:
   1.36109   0.12757  -0.00000   0.00000  -0.00000  -0.00000   0.00000  -0.00000
   0.12757   0.01196  -0.00000   0.00000  -0.00000  -0.00000   0.00000   0.00000
  -0.00000  -0.00000   0.25314   0.00000   0.00000   0.07442   0.00000   0.00000
   0.00000   0.00000   0.00000   0.37353   0.00000   0.00000   0.11029   0.00000
  -0.00000  -0.00000   0.00000   0.00000   0.27948   0.00000   0.00000   0.07574
  -0.00000  -0.00000   0.07442   0.00000   0.00000   0.02188   0.00000   0.00000
   0.00000   0.00000   0.00000   0.11029   0.00000   0.00000   0.03256   0.00000
  -0.00000   0.00000   0.00000   0.00000   0.07574   0.00000   0.00000   0.02053


================================================================================

 ----iterations are completed or convergence reached----

 Mean square residual over all n,k,spin=   5.3018E-12; max=  1.5675E-11
   0.0000  0.0000  0.0000    1  1.56755E-11 kpt; spin; max resid(k); each band:
  7.02E-13 2.31E-14 2.80E-14 9.09E-16 1.57E-11 1.54E-11
 reduced coordinates (array xred) for    1 atoms
       0.000000000000      0.000000000000      0.000000000000
 rms dE/dt=  3.8231E-07; max dE/dt=  6.3794E-07; dE/dt below (all hartree)
    1      -0.000000005029     -0.000000177435      0.000000637942

 cartesian coordinates (angstrom) at end:
    1      0.00000000000000     0.00000000000000     0.00000000000000

 cartesian forces (hartree/bohr) at end:
    1      0.00000000000000     0.00000000000000     0.00000000000000
 frms,max,avg= 0.0000000E+00 0.0000000E+00   1.197E-09  3.621E-08 -1.139E-07 h/b

 cartesian forces (eV/Angstrom) at end:
    1      0.00000000000000     0.00000000000000     0.00000000000000
 frms,max,avg= 0.0000000E+00 0.0000000E+00   6.157E-08  1.862E-06 -5.858E-06 e/A
 length scales=  3.000000000000  3.500000000000  4.000000000000 bohr
              =  1.587531625770  1.852120230065  2.116708834360 angstroms
 prteigrs : about to open file t05o_DS2_EIG
 Fermi (or HOMO) energy (hartree) =   0.07713   Average Vxc (hartree)=  -0.33816
 Eigenvalues (hartree) for nkpt=   1  k points:
 kpt#   1, nband=  6, wtk=  1.00000, kpt=  0.0000  0.0000  0.0000 (reduced coord)
  -1.12267   0.00806   0.07399   0.08026   0.18952   0.56314
      occupation numbers for kpt#   1
   2.00000   2.00000   1.17531   0.82469   0.00000   0.00000
 Fermi (or HOMO) energy (eV) =   2.09873   Average Vxc (eV)=  -9.20177
 Eigenvalues (   eV  ) for nkpt=   1  k points:
 kpt#   1, nband=  6, wtk=  1.00000, kpt=  0.0000  0.0000  0.0000 (reduced coord)
 -30.54948   0.21933   2.01348   2.18398   5.15701  15.32392
 Total charge density [el/Bohr^3]
,     Maximum=    3.1088E-01  at reduced coord.    0.0000    0.0000    0.1000
,Next maximum=    3.1088E-01  at reduced coord.    0.0000    0.0000    0.9000
,     Minimum=    6.9250E-05  at reduced coord.    0.0000    0.7778    0.5000
,Next minimum=    6.9259E-05  at reduced coord.    0.0000    0.2222    0.5000
,  Integrated=    6.0000E+00

--------------------------------------------------------------------------------
 Components of total free energy (in Hartree) :

    Kinetic energy  =  5.90382301025809E+00
    Hartree energy  =  1.99550187967357E+00
    XC energy       = -2.56726586641325E+00
    Ewald energy    = -1.02694599429949E+01
    PspCore energy  =  4.65394896970391E-01
    Loc. psp. energy= -7.85696835797227E+00
    Spherical terms = -7.64383945029995E-01
    >>>>> Internal E= -1.30933583255084E+01

    -kT*entropy     = -2.20207031807443E-02
    >>>>>>>>> Etotal= -1.31153790286891E+01

 "Double-counting" decomposition of free energy:
    Band energy     = -2.07606924602509E+00
    Ewald energy    = -1.02694599429949E+01
    PspCore energy  =  4.65394896970391E-01
    Dble-C XC-energy= -1.20484724463852E+00
    Spherical terms = -8.35745505466923E-03
    >>>>> Internal E= -1.30933389917428E+01

    -kT*entropy     = -2.20207031807443E-02
    >>>> Etotal (DC)= -1.31153596949235E+01

  >Total energy in eV           = -3.56887613219053E+02
  >Total DC energy in eV        = -3.56887087120537E+02
--------------------------------------------------------------------------------

 Cartesian components of stress tensor (hartree/bohr^3)
  sigma(1 1)=  1.18311426E-02  sigma(3 2)=  9.35129969E-11
  sigma(2 2)=  1.51008366E-02  sigma(3 1)=  6.40553931E-12
  sigma(3 3)=  1.45353779E-02  sigma(2 1)=  2.64611792E-09

-Cartesian components of stress tensor (GPa)         [Pressure= -4.0667E+02 GPa]
- sigma(1 1)=  3.48084175E+02  sigma(3 2)=  2.75124689E-06
- sigma(2 2)=  4.44281878E+02  sigma(3 1)=  1.88457441E-07
- sigma(3 3)=  4.27645509E+02  sigma(2 1)=  7.78514641E-05

================================================================================
== DATASET  3 ==================================================================
-   nproc =    1

 Exchange-correlation functional for the present dataset will be:
  LDA: Perdew-Wang 92 LSD fit to Ceperley-Alder data - ixc=7
 Citation for XC functional:
  J.P.Perdew and Y.Wang, PRB 45, 13244 (1992)

 Real(R)+Recip(G) space primitive vectors, cartesian coordinates (Bohr,Bohr^-1):
 R(1)=  4.2000000  0.0000000  0.0000000  G(1)=  0.2380952  0.0000000  0.0000000
 R(2)=  0.0000000  4.9000000  0.0000000  G(2)=  0.0000000  0.2040816  0.0000000
 R(3)=  0.0000000  0.0000000  5.6000000  G(3)=  0.0000000  0.0000000  0.1785714
 Unit cell volume ucvol=  1.1524800E+02 bohr^3
 Angles (23,13,12)=  9.00000000E+01  9.00000000E+01  9.00000000E+01 degrees

 Coarse grid specifications (used for wave-functions):

 getcut: wavevector=  0.0000  0.0000  0.0000  ngfft=   8   8  10
         ecut(hartree)=      3.000   => boxcut(ratio)=   2.09396

 Fine grid specifications (used for densities):

 getcut: wavevector=  0.0000  0.0000  0.0000  ngfft=  16  18  20
         ecut(hartree)=     15.000   => boxcut(ratio)=   2.04848
--------------------------------------------------------------------------------

P newkpt: treating      6 bands with npw=      29 for ikpt=   1 by node    0

_setup2: Arith. and geom. avg. npw (full set) are      29.000      29.000

================================================================================

     iter   Etot(hartree)      deltaE(h)  residm     nres2
 ETOT  1  -14.315521004073    -1.432E+01 4.934E-05 4.998E+01
 ETOT  2  -13.180903453381     1.135E+00 1.223E-07 8.012E+00
 ETOT  3  -13.130158410680     5.075E-02 2.002E-03 3.825E+00
 ETOT  4  -13.114945190929     1.521E-02 4.754E-05 6.469E-02
 ETOT  5  -13.115212531604    -2.673E-04 1.244E-05 2.162E-03
 ETOT  6  -13.115311551296    -9.902E-05 1.101E-06 8.018E-04
 ETOT  7  -13.115340088398    -2.854E-05 9.483E-08 2.243E-04
 ETOT  8  -13.115358538639    -1.845E-05 4.050E-07 1.004E-05
 ETOT  9  -13.115359625595    -1.087E-06 2.332E-08 8.826E-07
 ETOT 10  -13.115359691999    -6.640E-08 4.514E-09 5.409E-08
 ETOT 11  -13.115359694334    -2.335E-09 1.463E-10 2.937E-08
 ETOT 12  -13.115359694896    -5.615E-10 1.420E-11 5.947E-09

 At SCF step   12, etot is converged : 
  for the second time, diff in etot=  5.615E-10 < toldfe=  1.000E-08

 Cartesian components of stress tensor (hartree/bohr^3)
  sigma(1 1)=  1.18310924E-02  sigma(3 2)= -5.27520590E-13
  sigma(2 2)=  1.51008123E-02  sigma(3 1)= -4.09246624E-13
  sigma(3 3)=  1.45353237E-02  sigma(2 1)= -2.25255952E-13


 PAW TEST:
 ==== Compensation charge inside spheres ============
 The following values must be close to each other ...
 Compensation charge over spherical meshes =     -0.050800609211643
 Compensation charge over fine fft grid    =     -0.050798040673541

 ==== Results concerning PAW augmentation regions ====

 Total pseudopotential strength Dij (hartree):
   0.20547  -0.00331   0.00000   0.00000   0.00000   0.00000   0.00000   0.00000
  -0.00331   0.12678   0.00000   0.00000   0.00000   0.00000   0.00000   0.00000
   0.00000   0.00000  -0.90811   0.00000   0.00000   0.07684   0.00000   0.00000
   0.00000   0.00000   0.00000  -0.90673   0.00000   0.00000   0.07793   0.00000
   0.00000   0.00000   0.00000   0.00000  -0.90912   0.00000   0.00000   0.07615
   0.00000   0.00000   0.07684   0.00000   0.00000  -1.29606   0.00000   0.00000
   0.00000   0.00000   0.00000   0.07793   0.00000   0.00000  -1.29422   0.00000
   0.00000   0.00000   0.00000   0.00000   0.07615   0.00000   0.00000  -1.29684

 Total pseudopotential strength Dij (eV):
   5.59102  -0.09001   0.00000   0.00000   0.00000   0.00000   0.00000   0.00000
  -0.09001   3.44973   0.00000   0.00000   0.00000   0.00000   0.00000   0.00000
   0.00000   0.00000 -24.71092   0.00000   0.00000   2.09092   0.00000   0.00000
   0.00000   0.00000   0.00000 -24.67326   0.00000   0.00000   2.12066   0.00000
   0.00000   0.00000   0.00000   0.00000 -24.73841   0.00000   0.00000   2.07215
   0.00000   0.00000   2.09092   0.00000   0.00000 -35.26746   0.00000   0.00000
   0.00000   0.00000   0.00000   2.12066   0.00000   0.00000 -35.21757   0.00000
   0.00000   0.00000   0.00000   0.00000   2.07215   0.00000   0.00000 -35.28869

 Augmentation waves occupancies Rhoij:
   1.36109   0.12757   0.00000   0.00000  -0.00000   0.00000   0.00000  -0.00000
   0.12757   0.01196   0.00000   0.00000   0.00000   0.00000   0.00000   0.00000
   0.00000   0.00000   0.25314   0.00000   0.00000   0.07442   0.00000   0.00000
   0.00000   0.00000   0.00000   0.37353  -0.00000   0.00000   0.11029   0.00000
  -0.00000   0.00000   0.00000  -0.00000   0.27947   0.00000   0.00000   0.07574
   0.00000   0.00000   0.07442   0.00000   0.00000   0.02188   0.00000   0.00000
   0.00000   0.00000   0.00000   0.11029   0.00000   0.00000   0.03256   0.00000
  -0.00000   0.00000   0.00000   0.00000   0.07574   0.00000   0.00000   0.02053


================================================================================

 ----iterations are completed or convergence reached----

 Mean square residual over all n,k,spin=   4.7503E-12; max=  1.4196E-11
   0.0000  0.0000  0.0000    1  1.41962E-11 kpt; spin; max resid(k); each band:
  3.32E-13 3.41E-17 2.02E-16 1.96E-16 1.42E-11 1.40E-11
 reduced coordinates (array xred) for    1 atoms
       0.000000000000      0.000000000000      0.000000000000
 rms dE/dt=  4.0494E-09; max dE/dt=  6.8535E-09; dE/dt below (all hartree)
    1       0.000000001196      0.000000000890      0.000000006854

 cartesian coordinates (angstrom) at end:
    1      0.00000000000000     0.00000000000000     0.00000000000000

 cartesian forces (hartree/bohr) at end:
    1      0.00000000000000     0.00000000000000     0.00000000000000
 frms,max,avg= 0.0000000E+00 0.0000000E+00  -2.848E-10 -1.816E-10 -1.224E-09 h/b

 cartesian forces (eV/Angstrom) at end:
    1      0.00000000000000     0.00000000000000     0.00000000000000
 frms,max,avg= 0.0000000E+00 0.0000000E+00  -1.465E-08 -9.337E-09 -6.293E-08 e/A
 length scales=  3.000000000000  3.500000000000  4.000000000000 bohr
              =  1.587531625770  1.852120230065  2.116708834360 angstroms
 prteigrs : about to open file t05o_DS3_EIG
 Fermi (or HOMO) energy (hartree) =   0.07713   Average Vxc (hartree)=  -0.33816
 Eigenvalues (hartree) for nkpt=   1  k points:
 kpt#   1, nband=  6, wtk=  1.00000, kpt=  0.0000  0.0000  0.0000 (reduced coord)
  -1.12267   0.00806   0.07399   0.08026   0.18952   0.56314
      occupation numbers for kpt#   1
   2.00000   2.00000   1.17532   0.82468   0.00000   0.00000
 Fermi (or HOMO) energy (eV) =   2.09875   Average Vxc (eV)=  -9.20174
 Eigenvalues (   eV  ) for nkpt=   1  k points:
 kpt#   1, nband=  6, wtk=  1.00000, kpt=  0.0000  0.0000  0.0000 (reduced coord)
 -30.54945   0.21935   2.01350   2.18400   5.15706  15.32394
 Total charge density [el/Bohr^3]
,     Maximum=    3.1088E-01  at reduced coord.    0.0000    0.0000    0.9000
,Next maximum=    3.1088E-01  at reduced coord.    0.0000    0.0000    0.1000
,     Minimum=    6.9255E-05  at reduced coord.    0.0000    0.2222    0.5000
,Next minimum=    6.9255E-05  at reduced coord.    0.0000    0.7778    0.5000
,  Integrated=    6.0000E+00

--------------------------------------------------------------------------------
 Components of total free energy (in Hartree) :

    Kinetic energy  =  5.90381809737125E+00
    Hartree energy  =  1.99550647205668E+00
    XC energy       = -2.56726740964017E+00
    Ewald energy    = -1.02694599429949E+01
    PspCore energy  =  4.65394896970391E-01
    Loc. psp. energy= -7.85697437221351E+00
    Spherical terms = -7.64385610696104E-01
    >>>>> Internal E= -1.30933678691464E+01

    -kT*entropy     = -2.20206305420226E-02
    >>>>>>>>> Etotal= -1.31153884996884E+01

 "Double-counting" decomposition of free energy:
    Band energy     = -2.07606520545974E+00
    Ewald energy    = -1.02694599429949E+01
    PspCore energy  =  4.65394896970391E-01
    Dble-C XC-energy= -1.20485135296542E+00
    Spherical terms = -8.35745990393510E-03
    >>>>> Internal E= -1.30933390643536E+01

    -kT*entropy     = -2.20206305420226E-02
    >>>> Etotal (DC)= -1.31153596948956E+01

  >Total energy in eV           = -3.56887870938050E+02
  >Total DC energy in eV        = -3.56887087119777E+02
--------------------------------------------------------------------------------

 Cartesian components of stress tensor (hartree/bohr^3)
  sigma(1 1)=  1.18310924E-02  sigma(3 2)= -5.27520590E-13
  sigma(2 2)=  1.51008123E-02  sigma(3 1)= -4.09246624E-13
  sigma(3 3)=  1.45353237E-02  sigma(2 1)= -2.25255952E-13

-Cartesian components of stress tensor (GPa)         [Pressure= -4.0667E+02 GPa]
- sigma(1 1)=  3.48082698E+02  sigma(3 2)= -1.55201890E-08
- sigma(2 2)=  4.44281161E+02  sigma(3 1)= -1.20404493E-08
- sigma(3 3)=  4.27643915E+02  sigma(2 1)= -6.62725781E-09

================================================================================
== DATASET  4 ==================================================================
-   nproc =    1

 Exchange-correlation functional for the present dataset will be:
  LDA: Perdew-Wang 92 LSD fit to Ceperley-Alder data - ixc=7
 Citation for XC functional:
  J.P.Perdew and Y.Wang, PRB 45, 13244 (1992)

 Real(R)+Recip(G) space primitive vectors, cartesian coordinates (Bohr,Bohr^-1):
 R(1)=  4.2000000  0.0000000  0.0000000  G(1)=  0.2380952  0.0000000  0.0000000
 R(2)=  0.0000000  4.9000000  0.0000000  G(2)=  0.0000000  0.2040816  0.0000000
 R(3)=  0.0000000  0.0000000  5.6000000  G(3)=  0.0000000  0.0000000  0.1785714
 Unit cell volume ucvol=  1.1524800E+02 bohr^3
 Angles (23,13,12)=  9.00000000E+01  9.00000000E+01  9.00000000E+01 degrees

 Coarse grid specifications (used for wave-functions):

 getcut: wavevector=  0.0000  0.0000  0.0000  ngfft=   8   8  10
         ecut(hartree)=      3.000   => boxcut(ratio)=   2.09396

 Fine grid specifications (used for densities):

 getcut: wavevector=  0.0000  0.0000  0.0000  ngfft=  16  18  20
         ecut(hartree)=     15.000   => boxcut(ratio)=   2.04848
--------------------------------------------------------------------------------

P newkpt: treating      6 bands with npw=      29 for ikpt=   1 by node    0

_setup2: Arith. and geom. avg. npw (full set) are      29.000      29.000

================================================================================

     iter   Etot(hartree)      deltaE(h)  residm     nres2
 ETOT  1  -14.282067503129    -1.428E+01 8.843E-02 5.177E+01
 ETOT  2  -13.175691001880     1.106E+00 9.577E-06 7.664E+00
 ETOT  3  -13.129344807227     4.635E-02 1.857E-03 3.709E+00
 ETOT  4  -13.114874527396     1.447E-02 4.708E-05 6.662E-02
 ETOT  5  -13.115196319365    -3.218E-04 1.297E-05 2.492E-03
 ETOT  6  -13.115306930838    -1.106E-04 1.334E-06 8.832E-04
 ETOT  7  -13.115334813302    -2.788E-05 8.542E-08 2.400E-04
 ETOT  8  -13.115358722256    -2.391E-05 5.249E-07 9.074E-06
 ETOT  9  -13.115359635659    -9.134E-07 2.167E-08 8.268E-07
 ETOT 10  -13.115359691477    -5.582E-08 3.956E-09 7.574E-08
 ETOT 11  -13.115359693689    -2.212E-09 2.481E-10 3.558E-08
 ETOT 12  -13.115359694924    -1.234E-09 1.568E-11 7.036E-09

 At SCF step   12, etot is converged : 
  for the second time, diff in etot=  1.234E-09 < toldfe=  1.000E-08

 Cartesian components of stress tensor (hartree/bohr^3)
  sigma(1 1)=  1.18311426E-02  sigma(3 2)=  9.35129969E-11
  sigma(2 2)=  1.51008366E-02  sigma(3 1)=  6.40553931E-12
  sigma(3 3)=  1.45353779E-02  sigma(2 1)=  2.64611792E-09


 PAW TEST:
 ==== Compensation charge inside spheres ============
 The following values must be close to each other ...
 Compensation charge over spherical meshes =     -0.050800538054092
 Compensation charge over fine fft grid    =     -0.050797868339757

 ==== Results concerning PAW augmentation regions ====

 Total pseudopotential strength Dij (hartree):
   0.20547  -0.00331  -0.00000   0.00000   0.00000  -0.00000  -0.00000  -0.00000
  -0.00331   0.12678   0.00000   0.00000   0.00000  -0.00000   0.00000   0.00000
  -0.00000   0.00000  -0.90811   0.00000  -0.00000   0.07684   0.00000  -0.00000
   0.00000   0.00000   0.00000  -0.90673   0.00000   0.00000   0.07793   0.00000
   0.00000   0.00000  -0.00000   0.00000  -0.90912  -0.00000   0.00000   0.07615
  -0.00000  -0.00000   0.07684   0.00000  -0.00000  -1.29606   0.00000  -0.00000
  -0.00000   0.00000   0.00000   0.07793   0.00000   0.00000  -1.29422   0.00000
  -0.00000   0.00000  -0.00000   0.00000   0.07615  -0.00000   0.00000  -1.29684

 Total pseudopotential strength Dij (eV):
   5.59103  -0.09001  -0.00000   0.00000   0.00000  -0.00000  -0.00000  -0.00000
  -0.09001   3.44974   0.00000   0.00000   0.00000  -0.00000   0.00000   0.00000
  -0.00000   0.00000 -24.71092   0.00000  -0.00000   2.09092   0.00000  -0.00000
   0.00000   0.00000   0.00000 -24.67327   0.00000   0.00000   2.12066   0.00000
   0.00000   0.00000  -0.00000   0.00000 -24.73841  -0.00000   0.00000   2.07215
  -0.00000  -0.00000   2.09092   0.00000  -0.00000 -35.26746   0.00000  -0.00000
  -0.00000   0.00000   0.00000   2.12066   0.00000   0.00000 -35.21757   0.00000
  -0.00000   0.00000  -0.00000   0.00000   2.07215  -0.00000   0.00000 -35.28870

 Augmentation waves occupancies Rhoij:
   1.36109   0.12757  -0.00000   0.00000  -0.00000  -0.00000   0.00000  -0.00000
   0.12757   0.01196  -0.00000   0.00000  -0.00000  -0.00000   0.00000   0.00000
  -0.00000  -0.00000   0.25314   0.00000   0.00000   0.07442   0.00000   0.00000
   0.00000   0.00000   0.00000   0.37353   0.00000   0.00000   0.11029   0.00000
  -0.00000  -0.00000   0.00000   0.00000   0.27948   0.00000   0.00000   0.07574
  -0.00000  -0.00000   0.07442   0.00000   0.00000   0.02188   0.00000   0.00000
   0.00000   0.00000   0.00000   0.11029   0.00000   0.00000   0.03256   0.00000
  -0.00000   0.00000   0.00000   0.00000   0.07574   0.00000   0.00000   0.02053


================================================================================

 ----iterations are completed or convergence reached----

 Mean square residual over all n,k,spin=   5.3018E-12; max=  1.5675E-11
   0.0000  0.0000  0.0000    1  1.56755E-11 kpt; spin; max resid(k); each band:
  7.02E-13 2.31E-14 2.80E-14 9.09E-16 1.57E-11 1.54E-11
 reduced coordinates (array xred) for    1 atoms
       0.000000000000      0.000000000000      0.000000000000
 rms dE/dt=  3.8231E-07; max dE/dt=  6.3794E-07; dE/dt below (all hartree)
    1      -0.000000005029     -0.000000177435      0.000000637942

 cartesian coordinates (angstrom) at end:
    1      0.00000000000000     0.00000000000000     0.00000000000000

 cartesian forces (hartree/bohr) at end:
    1      0.00000000000000     0.00000000000000     0.00000000000000
 frms,max,avg= 0.0000000E+00 0.0000000E+00   1.197E-09  3.621E-08 -1.139E-07 h/b

 cartesian forces (eV/Angstrom) at end:
    1      0.00000000000000     0.00000000000000     0.00000000000000
 frms,max,avg= 0.0000000E+00 0.0000000E+00   6.157E-08  1.862E-06 -5.858E-06 e/A
 length scales=  3.000000000000  3.500000000000  4.000000000000 bohr
              =  1.587531625770  1.852120230065  2.116708834360 angstroms
 prteigrs : about to open file t05o_DS4_EIG
 Fermi (or HOMO) energy (hartree) =   0.07713   Average Vxc (hartree)=  -0.33816
 Eigenvalues (hartree) for nkpt=   1  k points:
 kpt#   1, nband=  6, wtk=  1.00000, kpt=  0.0000  0.0000  0.0000 (reduced coord)
  -1.12267   0.00806   0.07399   0.08026   0.18952   0.56314
      occupation numbers for kpt#   1
   2.00000   2.00000   1.17531   0.82469   0.00000   0.00000
 Fermi (or HOMO) energy (eV) =   2.09873   Average Vxc (eV)=  -9.20177
 Eigenvalues (   eV  ) for nkpt=   1  k points:
 kpt#   1, nband=  6, wtk=  1.00000, kpt=  0.0000  0.0000  0.0000 (reduced coord)
 -30.54948   0.21933   2.01348   2.18398   5.15701  15.32392
 Total charge density [el/Bohr^3]
,     Maximum=    3.1088E-01  at reduced coord.    0.0000    0.0000    0.1000
,Next maximum=    3.1088E-01  at reduced coord.    0.0000    0.0000    0.9000
,     Minimum=    6.9250E-05  at reduced coord.    0.0000    0.7778    0.5000
,Next minimum=    6.9259E-05  at reduced coord.    0.0000    0.2222    0.5000
,  Integrated=    6.0000E+00

--------------------------------------------------------------------------------
 Components of total free energy (in Hartree) :

    Kinetic energy  =  5.90382301025809E+00
    Hartree energy  =  1.99550187967357E+00
    XC energy       = -2.56726586641325E+00
    Ewald energy    = -1.02694599429949E+01
    PspCore energy  =  4.65394896970391E-01
    Loc. psp. energy= -7.85696835797227E+00
    Spherical terms = -7.64383945029995E-01
    >>>>> Internal E= -1.30933583255084E+01

    -kT*entropy     = -2.20207031807443E-02
    >>>>>>>>> Etotal= -1.31153790286891E+01

 "Double-counting" decomposition of free energy:
    Band energy     = -2.07606924602509E+00
    Ewald energy    = -1.02694599429949E+01
    PspCore energy  =  4.65394896970391E-01
    Dble-C XC-energy= -1.20484724463852E+00
    Spherical terms = -8.35745505466923E-03
    >>>>> Internal E= -1.30933389917428E+01

    -kT*entropy     = -2.20207031807443E-02
    >>>> Etotal (DC)= -1.31153596949235E+01

  >Total energy in eV           = -3.56887613219053E+02
  >Total DC energy in eV        = -3.56887087120537E+02
--------------------------------------------------------------------------------

 Cartesian components of stress tensor (hartree/bohr^3)
  sigma(1 1)=  1.18311426E-02  sigma(3 2)=  9.35129969E-11
  sigma(2 2)=  1.51008366E-02  sigma(3 1)=  6.40553931E-12
  sigma(3 3)=  1.45353779E-02  sigma(2 1)=  2.64611792E-09

-Cartesian components of stress tensor (GPa)         [Pressure= -4.0667E+02 GPa]
- sigma(1 1)=  3.48084175E+02  sigma(3 2)=  2.75124689E-06
- sigma(2 2)=  4.44281878E+02  sigma(3 1)=  1.88457441E-07
- sigma(3 3)=  4.27645509E+02  sigma(2 1)=  7.78514641E-05

================================================================================
== DATASET  5 ==================================================================
-   nproc =    1

 Exchange-correlation functional for the present dataset will be:
  LDA: Perdew-Wang 92 LSD fit to Ceperley-Alder data - ixc=7
 Citation for XC functional:
  J.P.Perdew and Y.Wang, PRB 45, 13244 (1992)

 Real(R)+Recip(G) space primitive vectors, cartesian coordinates (Bohr,Bohr^-1):
 R(1)=  4.2000000  0.0000000  0.0000000  G(1)=  0.2380952  0.0000000  0.0000000
 R(2)=  0.0000000  4.9000000  0.0000000  G(2)=  0.0000000  0.2040816  0.0000000
 R(3)=  0.0000000  0.0000000  5.6000000  G(3)=  0.0000000  0.0000000  0.1785714
 Unit cell volume ucvol=  1.1524800E+02 bohr^3
 Angles (23,13,12)=  9.00000000E+01  9.00000000E+01  9.00000000E+01 degrees

 Coarse grid specifications (used for wave-functions):

 getcut: wavevector=  0.0000  0.0000  0.0000  ngfft=   8   8  10
         ecut(hartree)=      3.000   => boxcut(ratio)=   2.09396

 Fine grid specifications (used for densities):

 getcut: wavevector=  0.0000  0.0000  0.0000  ngfft=  16  18  20
         ecut(hartree)=     15.000   => boxcut(ratio)=   2.04848
--------------------------------------------------------------------------------

P newkpt: treating      6 bands with npw=      29 for ikpt=   1 by node    0

_setup2: Arith. and geom. avg. npw (full set) are      29.000      29.000

================================================================================

     iter   Etot(hartree)      deltaE(h)  residm     nres2
 ETOT  1  -14.315521004073    -1.432E+01 4.934E-05 4.998E+01
 ETOT  2  -13.180903453381     1.135E+00 1.223E-07 8.012E+00
 ETOT  3  -13.130158410680     5.075E-02 2.002E-03 3.825E+00
 ETOT  4  -13.114945190929     1.521E-02 4.754E-05 6.469E-02
 ETOT  5  -13.115212531604    -2.673E-04 1.244E-05 2.162E-03
 ETOT  6  -13.115311551296    -9.902E-05 1.101E-06 8.018E-04
 ETOT  7  -13.115340088398    -2.854E-05 9.483E-08 2.243E-04
 ETOT  8  -13.115358538639    -1.845E-05 4.050E-07 1.004E-05
 ETOT  9  -13.115359625595    -1.087E-06 2.332E-08 8.826E-07
 ETOT 10  -13.115359691999    -6.640E-08 4.514E-09 5.409E-08
 ETOT 11  -13.115359694334    -2.335E-09 1.463E-10 2.937E-08
 ETOT 12  -13.115359694896    -5.615E-10 1.420E-11 5.947E-09

 At SCF step   12, etot is converged : 
  for the second time, diff in etot=  5.615E-10 < toldfe=  1.000E-08

 Cartesian components of stress tensor (hartree/bohr^3)
  sigma(1 1)=  1.18310924E-02  sigma(3 2)= -5.27520590E-13
  sigma(2 2)=  1.51008123E-02  sigma(3 1)= -4.09246624E-13
  sigma(3 3)=  1.45353237E-02  sigma(2 1)= -2.25255952E-13


 PAW TEST:
 ==== Compensation charge inside spheres ============
 The following values must be close to each other ...
 Compensation charge over spherical meshes =     -0.050800609211643
 Compensation charge over fine fft grid    =     -0.050798040673541

 ==== Results concerning PAW augmentation regions ====

 Total pseudopotential strength Dij (hartree):
   0.20547  -0.00331   0.00000   0.00000   0.00000   0.00000   0.00000   0.00000
  -0.00331   0.12678   0.00000   0.00000   0.00000   0.00000   0.00000   0.00000
   0.00000   0.00000  -0.90811   0.00000   0.00000   0.07684   0.00000   0.00000
   0.00000   0.00000   0.00000  -0.90673   0.00000   0.00000   0.07793   0.00000
   0.00000   0.00000   0.00000   0.00000  -0.90912   0.00000   0.00000   0.07615
   0.00000   0.00000   0.07684   0.00000   0.00000  -1.29606   0.00000   0.00000
   0.00000   0.00000   0.00000   0.07793   0.00000   0.00000  -1.29422   0.00000
   0.00000   0.00000   0.00000   0.00000   0.07615   0.00000   0.00000  -1.29684

 Total pseudopotential strength Dij (eV):
   5.59102  -0.09001   0.00000   0.00000   0.00000   0.00000   0.00000   0.00000
  -0.09001   3.44973   0.00000   0.00000   0.00000   0.00000   0.00000   0.00000
   0.00000   0.00000 -24.71092   0.00000   0.00000   2.09092   0.00000   0.00000
   0.00000   0.00000   0.00000 -24.67326   0.00000   0.00000   2.12066   0.00000
   0.00000   0.00000   0.00000   0.00000 -24.73841   0.00000   0.00000   2.07215
   0.00000   0.00000   2.09092   0.00000   0.00000 -35.26746   0.00000   0.00000
   0.00000   0.00000   0.00000   2.12066   0.00000   0.00000 -35.21757   0.00000
   0.00000   0.00000   0.00000   0.00000   2.07215   0.00000   0.00000 -35.28869

 Augmentation waves occupancies Rhoij:
   1.36109   0.12757   0.00000   0.00000  -0.00000   0.00000   0.00000  -0.00000
   0.12757   0.01196   0.00000   0.00000   0.00000   0.00000   0.00000   0.00000
   0.00000   0.00000   0.25314   0.00000   0.00000   0.07442   0.00000   0.00000
   0.00000   0.00000   0.00000   0.37353  -0.00000   0.00000   0.11029   0.00000
  -0.00000   0.00000   0.00000  -0.00000   0.27947   0.00000   0.00000   0.07574
   0.00000   0.00000   0.07442   0.00000   0.00000   0.02188   0.00000   0.00000
   0.00000   0.00000   0.00000   0.11029   0.00000   0.00000   0.03256   0.00000
  -0.00000   0.00000   0.00000   0.00000   0.07574   0.00000   0.00000   0.02053


================================================================================

 ----iterations are completed or convergence reached----

 Mean square residual over all n,k,spin=   4.7503E-12; max=  1.4196E-11
   0.0000  0.0000  0.0000    1  1.41962E-11 kpt; spin; max resid(k); each band:
  3.32E-13 3.41E-17 2.02E-16 1.96E-16 1.42E-11 1.40E-11
 reduced coordinates (array xred) for    1 atoms
       0.000000000000      0.000000000000      0.000000000000
 rms dE/dt=  4.0494E-09; max dE/dt=  6.8535E-09; dE/dt below (all hartree)
    1       0.000000001196      0.000000000890      0.000000006854

 cartesian coordinates (angstrom) at end:
    1      0.00000000000000     0.00000000000000     0.00000000000000

 cartesian forces (hartree/bohr) at end:
    1      0.00000000000000     0.00000000000000     0.00000000000000
 frms,max,avg= 0.0000000E+00 0.0000000E+00  -2.848E-10 -1.816E-10 -1.224E-09 h/b

 cartesian forces (eV/Angstrom) at end:
    1      0.00000000000000     0.00000000000000     0.00000000000000
 frms,max,avg= 0.0000000E+00 0.0000000E+00  -1.465E-08 -9.337E-09 -6.293E-08 e/A
 length scales=  3.000000000000  3.500000000000  4.000000000000 bohr
              =  1.587531625770  1.852120230065  2.116708834360 angstroms
 prteigrs : about to open file t05o_DS5_EIG
 Fermi (or HOMO) energy (hartree) =   0.07713   Average Vxc (hartree)=  -0.33816
 Eigenvalues (hartree) for nkpt=   1  k points:
 kpt#   1, nband=  6, wtk=  1.00000, kpt=  0.0000  0.0000  0.0000 (reduced coord)
  -1.12267   0.00806   0.07399   0.08026   0.18952   0.56314
      occupation numbers for kpt#   1
   2.00000   2.00000   1.17532   0.82468   0.00000   0.00000
 Fermi (or HOMO) energy (eV) =   2.09875   Average Vxc (eV)=  -9.20174
 Eigenvalues (   eV  ) for nkpt=   1  k points:
 kpt#   1, nband=  6, wtk=  1.00000, kpt=  0.0000  0.0000  0.0000 (reduced coord)
 -30.54945   0.21935   2.01350   2.18400   5.15706  15.32394
 Total charge density [el/Bohr^3]
,     Maximum=    3.1088E-01  at reduced coord.    0.0000    0.0000    0.9000
,Next maximum=    3.1088E-01  at reduced coord.    0.0000    0.0000    0.1000
,     Minimum=    6.9255E-05  at reduced coord.    0.0000    0.2222    0.5000
,Next minimum=    6.9255E-05  at reduced coord.    0.0000    0.7778    0.5000
,  Integrated=    6.0000E+00

--------------------------------------------------------------------------------
 Components of total free energy (in Hartree) :

    Kinetic energy  =  5.90381809737125E+00
    Hartree energy  =  1.99550647205668E+00
    XC energy       = -2.56726740964017E+00
    Ewald energy    = -1.02694599429949E+01
    PspCore energy  =  4.65394896970391E-01
    Loc. psp. energy= -7.85697437221351E+00
    Spherical terms = -7.64385610696104E-01
    >>>>> Internal E= -1.30933678691464E+01

    -kT*entropy     = -2.20206305420226E-02
    >>>>>>>>> Etotal= -1.31153884996884E+01

 "Double-counting" decomposition of free energy:
    Band energy     = -2.07606520545974E+00
    Ewald energy    = -1.02694599429949E+01
    PspCore energy  =  4.65394896970391E-01
    Dble-C XC-energy= -1.20485135296542E+00
    Spherical terms = -8.35745990393510E-03
    >>>>> Internal E= -1.30933390643536E+01

    -kT*entropy     = -2.20206305420226E-02
    >>>> Etotal (DC)= -1.31153596948956E+01

  >Total energy in eV           = -3.56887870938050E+02
  >Total DC energy in eV        = -3.56887087119777E+02
--------------------------------------------------------------------------------

 Cartesian components of stress tensor (hartree/bohr^3)
  sigma(1 1)=  1.18310924E-02  sigma(3 2)= -5.27520590E-13
  sigma(2 2)=  1.51008123E-02  sigma(3 1)= -4.09246624E-13
  sigma(3 3)=  1.45353237E-02  sigma(2 1)= -2.25255952E-13

-Cartesian components of stress tensor (GPa)         [Pressure= -4.0667E+02 GPa]
- sigma(1 1)=  3.48082698E+02  sigma(3 2)= -1.55201890E-08
- sigma(2 2)=  4.44281161E+02  sigma(3 1)= -1.20404493E-08
- sigma(3 3)=  4.27643915E+02  sigma(2 1)= -6.62725781E-09

== END DATASET(S) ==============================================================
================================================================================
  
 -outvars: echo values of variables after computation  --------
            acell      3.0000000000E+00  3.5000000000E+00  4.0000000000E+00 Bohr
              amu      1.59994000E+01
             ecut      3.00000000E+00 Hartree
           enunit           2
           etotal1    -1.3115359695E+01
           etotal2    -1.3115359695E+01
           etotal3    -1.3115359695E+01
           etotal4    -1.3115359695E+01
           etotal5    -1.3115359695E+01
            fcart1     0.0000000000E+00  0.0000000000E+00  0.0000000000E+00
            fcart2     0.0000000000E+00  0.0000000000E+00  0.0000000000E+00
            fcart3     0.0000000000E+00  0.0000000000E+00  0.0000000000E+00
            fcart4     0.0000000000E+00  0.0000000000E+00  0.0000000000E+00
            fcart5     0.0000000000E+00  0.0000000000E+00  0.0000000000E+00
-          fftalg         112
             iscf          14
           istwfk        1
              ixc           7
           jdtset        1    2    3    4    5
           kptopt           0
P           mkmem           1
            natom           1
            nband           6
           ndtset           5
            ngfft           8       8      10
          ngfftdg          16      18      20
             nkpt           1
            nline           5
            nstep          20
             nsym           1
            ntime           5
           ntypat           1
              occ1     2.000000  1.999999  1.175322  0.824679  0.000000  0.000000
              occ2     2.000000  1.999999  1.175310  0.824691  0.000000  0.000000
              occ3     2.000000  1.999999  1.175322  0.824679  0.000000  0.000000
              occ4     2.000000  1.999999  1.175310  0.824691  0.000000  0.000000
              occ5     2.000000  1.999999  1.175322  0.824679  0.000000  0.000000
           occopt           7
           ortalg1          1
           ortalg2         -1
           ortalg3          2
           ortalg4         -2
           ortalg5          3
        pawecutdg      1.50000000E+01 Hartree
         pawmixdg           1
        pawoptmix           1
            prtwf           0
            rprim      1.4000000000E+00  0.0000000000E+00  0.0000000000E+00
                       0.0000000000E+00  1.4000000000E+00  0.0000000000E+00
                       0.0000000000E+00  0.0000000000E+00  1.4000000000E+00
          spgroup           1
           strten1     1.1831092424E-02  1.5100812266E-02  1.4535323681E-02
                      -5.2752059021E-13 -4.0924662407E-13 -2.2525595229E-13
           strten2     1.1831142618E-02  1.5100836635E-02  1.4535377861E-02
                       9.3512996910E-11  6.4055393071E-12  2.6461179250E-09
           strten3     1.1831092424E-02  1.5100812266E-02  1.4535323681E-02
                      -5.2752059021E-13 -4.0924662407E-13 -2.2525595229E-13
           strten4     1.1831142618E-02  1.5100836635E-02  1.4535377861E-02
                       9.3512996910E-11  6.4055393071E-12  2.6461179250E-09
           strten5     1.1831092424E-02  1.5100812266E-02  1.4535323681E-02
                      -5.2752059021E-13 -4.0924662407E-13 -2.2525595229E-13
           toldfe      1.00000000E-08 Hartree
           tsmear      2.00000000E-02 Hartree
            typat      1
           useylm           1
            znucl        8.00000

================================================================================


- Timing analysis has been suppressed with timopt=0



================================================================================

 Suggested references for the acknowledgment of ABINIT usage.

 The users of ABINIT have little formal obligations with respect to the ABINIT group
 (those specified in the GNU General Public License, http://www.gnu.org/copyleft/gpl.txt).
 However, it is common practice in the scientific literature,
 to acknowledge the efforts of people that have made the research possible.
 In this spirit, please find below suggested citations of work written by ABINIT developers,
 corresponding to implementations inside of ABINIT that you have used in the present run.
 Note also that it will be of great value to readers of publications presenting these results,
 to read papers enabling them to understand the theoretical formalism and details
 of the ABINIT implementation.
 For information on why they are suggested, see also http://www.abinit.org/about/?text=acknowledgments.

 [1] Implementation of the Projector Augmented-Wave Method in the ABINIT code.
 M. Torrent, F. Jollet, F. Bottin, G. Zerah, and X. Gonze Comput. Mat. Science 42, 337, (2008).
 Comment : PAW calculations. Strong suggestion to cite this paper.

 [2] ABINIT : First-principles approach of materials and nanosystem properties.
 X. Gonze, B. Amadon, P.-M. Anglade, J.-M. Beuken, F. Bottin, P. Boulanger, F. Bruneval,
 D. Caliste, R. Caracas, M. Cote, T. Deutsch, L. Genovese, Ph. Ghosez, M. Giantomassi
 S. Goedecker, D.R. Hamann, P. Hermet, F. Jollet, G. Jomard, S. Leroux, M. Mancini, S. Mazevet,
 M.J.T. Oliveira, G. Onida, Y. Pouillon, T. Rangel, G.-M. Rignanese, D. Sangalli, R. Shaltaf,
 M. Torrent, M.J. Verstraete, G. Zerah, J.W. Zwanziger
 Computer Phys. Comm. 180, 2582-2615 (2009).
 Comment : the third generic paper describing the ABINIT project.
 Note that a version of this paper, that is not formatted for Computer Phys. Comm. 
 is available at http://www.abinit.org/about/ABINIT_CPC_v10.pdf .
 The licence allows the authors to put it on the Web.

 [3] A brief introduction to the ABINIT software package.
 X. Gonze, G.-M. Rignanese, M. Verstraete, J.-M. Beuken, Y. Pouillon, R. Caracas, F. Jollet,
 M. Torrent, G. Zerah, M. Mikami, Ph. Ghosez, M. Veithen, J.-Y. Raty, V. Olevano, F. Bruneval,
 L. Reining, R. Godby, G. Onida, D.R. Hamann, and D.C. Allan.
 Z. Kristallogr. 220, 558-562 (2005).
 Comment : the second generic paper describing the ABINIT project. Note that this paper
 should be cited especially if you are using the GW part of ABINIT, as several authors
 of this part are not in the list of authors of the first or third paper.
 The .pdf of the latter paper is available at http://www.abinit.org/about/zfk_0505-06_558-562.pdf.
 Note that it should not redistributed (Copyright by Oldenburg Wissenshaftverlag,
 the licence allows the authors to put it on the Web).


 And optionally :

 [4] First-principles computation of material properties : the ABINIT software project. 
 X. Gonze, J.-M. Beuken, R. Caracas, F. Detraux, M. Fuchs, G.-M. Rignanese, L. Sindic,
 M. Verstraete, G. Zerah, F. Jollet, M. Torrent, A. Roy, M. Mikami, Ph. Ghosez, J.-Y. Raty, D.C. Allan.
 Computational Materials Science 25, 478-492 (2002). http://dx.doi.org/10.1016/S0927-0256(02)00325-7
 Comment : the original paper describing the ABINIT project.

 [5] Fast radix 2, 3, 4 and 5 kernels for Fast Fourier Transformations
 on computers with overlapping multiply-add instructions.
 S. Goedecker, SIAM J. on Scientific Computing 18, 1605 (1997).
-
- Proc.   0 individual time (sec): cpu=          1.9  wall=          1.9

================================================================================

 Calculation completed.
.Delivered   10 WARNINGs and   5 COMMENTs to log file.
+Overall time at end (sec) : cpu=          1.9  wall=          1.9
