
.Version 7.10.4 of ABINIT 
.(MPI version, prepared for a x86_64_linux_gnu4.7 computer) 

.Copyright (C) 1998-2014 ABINIT group . 
 ABINIT comes with ABSOLUTELY NO WARRANTY.
 It is free software, and you are welcome to redistribute it
 under certain conditions (GNU General Public License,
 see ~abinit/COPYING or http://www.gnu.org/copyleft/gpl.txt).

 ABINIT is a project of the Universite Catholique de Louvain,
 Corning Inc. and other collaborators, see ~abinit/doc/developers/contributors.txt .
 Please read ~abinit/doc/users/acknowledgments.html for suggested
 acknowledgments of the ABINIT effort.
 For more information, see http://www.abinit.org .

.Starting date : Wed 11 Mar 2015.
- ( at 10h26 )
  
- input  file    -> t75.in
- output file    -> t75.out
- root for input  files -> t75i
- root for output files -> t75o


 DATASET    1 : space group F-4 3 m (#216); Bravais cF (face-center cubic)
================================================================================
 Values of the parameters that define the memory need for DATASET  1.
   intxc =         0  ionmov =         0    iscf =         5 xclevel =         1
  lmnmax =         2   lnmax =         2   mband =         5  mffmem =         1
P  mgfft =        12   mkmem =         2 mpssoang=         3     mpw =        74
  mqgrid =      3001   natom =         2    nfft =      1728    nkpt =         2
  nloalg =         4  nspden =         1 nspinor =         1  nsppol =         1
    nsym =        24  n1xccc =      2501  ntypat =         2  occopt =         1
================================================================================
P This job should need less than                       1.240 Mbytes of memory.
  Rough estimation (10% accuracy) of disk space for files :
_ WF disk file :      0.013 Mbytes ; DEN or POT disk file :      0.015 Mbytes.
================================================================================


 DATASET    2 : space group F-4 3 m (#216); Bravais cF (face-center cubic)
================================================================================
 Values of the parameters that define the memory need for DATASET  2.
   intxc =         0  ionmov =         0    iscf =        -2 xclevel =         1
  lmnmax =         2   lnmax =         2   mband =         4  mffmem =         1
P  mgfft =        12   mkmem =        16 mpssoang=         3     mpw =        74
  mqgrid =      3001   natom =         2    nfft =      1728    nkpt =        16
  nloalg =         4  nspden =         1 nspinor =         1  nsppol =         1
    nsym =        24  n1xccc =      2501  ntypat =         2  occopt =         1
================================================================================
P This job should need less than                       1.188 Mbytes of memory.
  Rough estimation (10% accuracy) of disk space for files :
_ WF disk file :      0.074 Mbytes ; DEN or POT disk file :      0.015 Mbytes.
================================================================================


 DATASET    3 : space group F-4 3 m (#216); Bravais cF (face-center cubic)
================================================================================
 Values of the parameters that define the memory need for DATASET  3 (RF).
   intxc =         0    iscf =         5 xclevel =         1  lmnmax =         2
   lnmax =         2   mband =         4  mffmem =         1   mgfft =        12
P  mkmem =        16  mkqmem =        16  mk1mem =        16 mpssoang=         3
     mpw =        74  mqgrid =      3001   natom =         2    nfft =      1728
    nkpt =        16  nloalg =         4  nspden =         1 nspinor =         1
  nsppol =         1    nsym =        24  n1xccc =      2501  ntypat =         2
  occopt =         1
================================================================================
P This job should need less than                       1.537 Mbytes of memory.
  Rough estimation (10% accuracy) of disk space for files :
_ WF disk file :      0.074 Mbytes ; DEN or POT disk file :      0.015 Mbytes.
================================================================================

--------------------------------------------------------------------------------
------------- Echo of variables that govern the present computation ------------
--------------------------------------------------------------------------------
-
- outvars: echo of selected default values                                      
-   accesswff0 =  0 , fftalg0 =112 , wfoptalg0 =  0
-
- outvars: echo of global parameters not present in the input file              
-  max_nthreads =    0
-
 -outvars: echo values of preprocessed input variables --------
            acell      1.0616530850E+01  1.0616530850E+01  1.0616530850E+01 Bohr
              amu      2.69815390E+01  7.49215900E+01
         berryopt1          0
         berryopt2         -3
         berryopt3          0
             ecut      3.00000000E+00 Hartree
-          fftalg         112
           getddk1          0
           getddk2          0
           getddk3          2
           getden1          0
           getden2          1
           getden3          0
           getwfk1          0
           getwfk2          1
           getwfk3          2
             iscf1          5
             iscf2         -2
             iscf3          5
           jdtset        1    2    3
              kpt1    -2.50000000E-01  5.00000000E-01  0.00000000E+00
                      -2.50000000E-01  0.00000000E+00  0.00000000E+00
              kpt2    -2.50000000E-01  5.00000000E-01  0.00000000E+00
                       5.00000000E-01 -2.50000000E-01  0.00000000E+00
                      -2.50000000E-01 -2.50000000E-01  2.50000000E-01
                      -2.50000000E-01  0.00000000E+00  0.00000000E+00
                      -2.50000000E-01  2.50000000E-01  2.50000000E-01
                       5.00000000E-01  5.00000000E-01  2.50000000E-01
                      -2.50000000E-01  5.00000000E-01  5.00000000E-01
                       0.00000000E+00 -2.50000000E-01  0.00000000E+00
                       2.50000000E-01 -2.50000000E-01  2.50000000E-01
                       5.00000000E-01 -2.50000000E-01  5.00000000E-01
                      -2.50000000E-01 -2.50000000E-01 -2.50000000E-01
                       5.00000000E-01  0.00000000E+00  2.50000000E-01
                      -2.50000000E-01  0.00000000E+00  5.00000000E-01
                       0.00000000E+00  5.00000000E-01  2.50000000E-01
                       0.00000000E+00 -2.50000000E-01  5.00000000E-01
                       0.00000000E+00  0.00000000E+00  2.50000000E-01
              kpt3    -2.50000000E-01  5.00000000E-01  0.00000000E+00
                       5.00000000E-01 -2.50000000E-01  0.00000000E+00
                      -2.50000000E-01 -2.50000000E-01  2.50000000E-01
                      -2.50000000E-01  0.00000000E+00  0.00000000E+00
                      -2.50000000E-01  2.50000000E-01  2.50000000E-01
                       5.00000000E-01  5.00000000E-01  2.50000000E-01
                      -2.50000000E-01  5.00000000E-01  5.00000000E-01
                       0.00000000E+00 -2.50000000E-01  0.00000000E+00
                       2.50000000E-01 -2.50000000E-01  2.50000000E-01
                       5.00000000E-01 -2.50000000E-01  5.00000000E-01
                      -2.50000000E-01 -2.50000000E-01 -2.50000000E-01
                       5.00000000E-01  0.00000000E+00  2.50000000E-01
                      -2.50000000E-01  0.00000000E+00  5.00000000E-01
                       0.00000000E+00  5.00000000E-01  2.50000000E-01
                       0.00000000E+00 -2.50000000E-01  5.00000000E-01
                       0.00000000E+00  0.00000000E+00  2.50000000E-01
           kptopt1          1
           kptopt2          2
           kptopt3          2
         kptrlatt        2   -2    2     -2    2    2     -2   -2    2
          kptrlen      2.12330617E+01
P           mkmem1          2
P           mkmem2         16
P           mkmem3         16
P          mkqmem1          2
P          mkqmem2         16
P          mkqmem3         16
P          mk1mem1          2
P          mk1mem2         16
P          mk1mem3         16
            natom           2
            nband1          5
            nband2          4
            nband3          4
           ndtset           3
            ngfft          12      12      12
             nkpt1          2
             nkpt2         16
             nkpt3         16
            nstep1        100
            nstep2        100
            nstep3         11
             nsym          24
           ntypat           2
              occ1     2.000000  2.000000  2.000000  2.000000  0.000000
              occ3     2.000000  2.000000  2.000000  2.000000
        optdriver1          0
        optdriver2          0
        optdriver3          1
          rfatpol1          1       1
          rfatpol2          1       1
          rfatpol3          1       2
            rfdir1          0       0       0
            rfdir2          1       1       1
            rfdir3          1       1       1
           rfelfd1          0
           rfelfd2          0
           rfelfd3          3
           rfphon1          0
           rfphon2          0
           rfphon3          1
           rfstrs1          0
           rfstrs2          0
           rfstrs3          3
            rprim      0.0000000000E+00  5.0000000000E-01  5.0000000000E-01
                       5.0000000000E-01  0.0000000000E+00  5.0000000000E-01
                       5.0000000000E-01  5.0000000000E-01  0.0000000000E+00
           shiftk      5.00000000E-01  5.00000000E-01  5.00000000E-01
          spgroup         216
           symrel      1  0  0   0  1  0   0  0  1       0 -1  1   0 -1  0   1 -1  0
                      -1  0  0  -1  0  1  -1  1  0       0  1 -1   1  0 -1   0  0 -1
                      -1  0  0  -1  1  0  -1  0  1       0 -1  1   1 -1  0   0 -1  0
                       1  0  0   0  0  1   0  1  0       0  1 -1   0  0 -1   1  0 -1
                      -1  0  1  -1  1  0  -1  0  0       0 -1  0   1 -1  0   0 -1  1
                       1  0 -1   0  0 -1   0  1 -1       0  1  0   0  0  1   1  0  0
                       1  0 -1   0  1 -1   0  0 -1       0 -1  0   0 -1  1   1 -1  0
                      -1  0  1  -1  0  0  -1  1  0       0  1  0   1  0  0   0  0  1
                       0  0 -1   0  1 -1   1  0 -1       1 -1  0   0 -1  1   0 -1  0
                       0  0  1   1  0  0   0  1  0      -1  1  0  -1  0  0  -1  0  1
                       0  0  1   0  1  0   1  0  0       1 -1  0   0 -1  0   0 -1  1
                       0  0 -1   1  0 -1   0  1 -1      -1  1  0  -1  0  1  -1  0  0
           toldfe1     1.00000000E-12 Hartree
           toldfe2     0.00000000E+00 Hartree
           toldfe3     1.00000000E-16 Hartree
           tolwfr1     0.00000000E+00
           tolwfr2     1.00000000E-22
           tolwfr3     0.00000000E+00
            typat      1  2
              wtk1       0.75000    0.25000
              wtk2       0.06250    0.06250    0.06250    0.06250    0.06250    0.06250
                         0.06250    0.06250    0.06250    0.06250    0.06250    0.06250
                         0.06250    0.06250    0.06250    0.06250
              wtk3       0.06250    0.06250    0.06250    0.06250    0.06250    0.06250
                         0.06250    0.06250    0.06250    0.06250    0.06250    0.06250
                         0.06250    0.06250    0.06250    0.06250
           xangst      0.0000000000E+00  0.0000000000E+00  0.0000000000E+00
                       1.4045065400E+00  1.4045065400E+00  1.4045065400E+00
            xcart      0.0000000000E+00  0.0000000000E+00  0.0000000000E+00
                       2.6541327125E+00  2.6541327125E+00  2.6541327125E+00
             xred      0.0000000000E+00  0.0000000000E+00  0.0000000000E+00
                       2.5000000000E-01  2.5000000000E-01  2.5000000000E-01
            znucl       13.00000   33.00000

================================================================================

 chkinp: Checking input parameters for consistency, jdtset=   1.

 chkinp: Checking input parameters for consistency, jdtset=   2.

 chkinp: Checking input parameters for consistency, jdtset=   3.

================================================================================
== DATASET  1 ==================================================================
-   nproc =    1

 Exchange-correlation functional for the present dataset will be:
  LDA: new Teter (4/93) with spin-polarized option - ixc=1
 Citation for XC functional:
  S. Goedecker, M. Teter, J. Huetter, PRB 54, 1703 (1996)

 Real(R)+Recip(G) space primitive vectors, cartesian coordinates (Bohr,Bohr^-1):
 R(1)=  0.0000000  5.3082654  5.3082654  G(1)= -0.0941927  0.0941927  0.0941927
 R(2)=  5.3082654  0.0000000  5.3082654  G(2)=  0.0941927 -0.0941927  0.0941927
 R(3)=  5.3082654  5.3082654  0.0000000  G(3)=  0.0941927  0.0941927 -0.0941927
 Unit cell volume ucvol=  2.9914923E+02 bohr^3
 Angles (23,13,12)=  6.00000000E+01  6.00000000E+01  6.00000000E+01 degrees

 getcut: wavevector=  0.0000  0.0000  0.0000  ngfft=  12  12  12
         ecut(hartree)=      3.000   => boxcut(ratio)=   2.05016

--- Pseudopotential description ------------------------------------------------
- pspini: atom type   1  psp file is /home/gonze/ABINIT/ABINITv7.10.4/trunk/7.10.4-private/tests/Psps_for_tests/13al.pspnc
- pspatm: opening atomic psp file    /home/gonze/ABINIT/ABINITv7.10.4/trunk/7.10.4-private/tests/Psps_for_tests/13al.pspnc
-  Troullier-Martins psp for element  Al        Thu Oct 27 17:31:05 EDT 1994
- 13.00000   3.00000    940714                znucl, zion, pspdat
    1    1    2    2      2001   0.00000      pspcod,pspxc,lmax,lloc,mmax,r2well
    0   4.657  11.889    1   2.2761078        l,e99.0,e99.9,nproj,rcpsp
   0.00000000   0.00000000   0.00000000   0.00000000     rms, ekb1, ekb2, epsatm
    1   1.829   2.761    1   2.2761078        l,e99.0,e99.9,nproj,rcpsp
   0.00000000   0.00000000   0.00000000   0.00000000     rms, ekb1, ekb2, epsatm
    2   0.000   0.000    0   2.2761078        l,e99.0,e99.9,nproj,rcpsp
   0.00000000   0.00000000   0.00000000   0.00000000     rms, ekb1, ekb2, epsatm
    2.09673076353074    0.12648111154518    1.01742091001718   rchrg,fchrg,qchrg
 pspatm: epsatm=    0.22155260
         --- l  ekb(1:nproj) -->
             0    2.540658
             1    1.353815
 pspatm: atomic psp has been read  and splines computed

- pspini: atom type   2  psp file is /home/gonze/ABINIT/ABINITv7.10.4/trunk/7.10.4-private/tests/Psps_for_tests/33as.pspnc
- pspatm: opening atomic psp file    /home/gonze/ABINIT/ABINITv7.10.4/trunk/7.10.4-private/tests/Psps_for_tests/33as.pspnc
-  Troullier-Martins psp for element  As        Thu Oct 27 17:37:14 EDT 1994
- 33.00000   5.00000    940714                znucl, zion, pspdat
    1    1    1    1      2001   0.00000      pspcod,pspxc,lmax,lloc,mmax,r2well
    0   4.772  10.829    1   2.5306160        l,e99.0,e99.9,nproj,rcpsp
   0.00000000   0.00000000   0.00000000   0.00000000     rms, ekb1, ekb2, epsatm
    1   2.745   5.580    0   2.5306160        l,e99.0,e99.9,nproj,rcpsp
   0.00000000   0.00000000   0.00000000   0.00000000     rms, ekb1, ekb2, epsatm
    2.05731715564010    0.36322996461007    2.76014815959125   rchrg,fchrg,qchrg
 pspatm: epsatm=   27.20579911
         --- l  ekb(1:nproj) -->
             0    0.838751
 pspatm: atomic psp has been read  and splines computed

   2.19418814E+02                                ecore*ucvol(ha*bohr**3)
--------------------------------------------------------------------------------

P newkpt: treating      5 bands with npw=      74 for ikpt=   1 by node    0
P newkpt: treating      5 bands with npw=      68 for ikpt=   2 by node    0

_setup2: Arith. and geom. avg. npw (full set) are      72.500      72.452

================================================================================

     iter   Etot(hartree)      deltaE(h)  residm     vres2
 ETOT  1  -10.088993844651    -1.009E+01 1.111E-02 1.219E+00
 ETOT  2  -10.094201850273    -5.208E-03 7.095E-08 3.515E-02
 ETOT  3  -10.094341558902    -1.397E-04 4.651E-06 3.403E-03
 ETOT  4  -10.094351954920    -1.040E-05 2.715E-07 2.089E-04
 ETOT  5  -10.094350711832     1.243E-06 4.998E-09 7.079E-04
 ETOT  6  -10.094352190859    -1.479E-06 1.908E-08 1.282E-04
 ETOT  7  -10.094352433129    -2.423E-07 2.535E-09 5.293E-06
 ETOT  8  -10.094352444191    -1.106E-08 9.249E-11 4.836E-07
 ETOT  9  -10.094352445034    -8.427E-10 1.674E-11 6.542E-09
 ETOT 10  -10.094352445042    -8.669E-12 1.104E-13 1.053E-09
 ETOT 11  -10.094352445043    -3.570E-13 5.625E-15 5.794E-10
 ETOT 12  -10.094352445044    -1.240E-12 2.394E-14 5.853E-11
 ETOT 13  -10.094352445044    -1.403E-13 1.706E-15 2.301E-13
 ETOT 14  -10.094352445044     3.553E-14 2.087E-19 2.011E-13

 At SCF step   14, etot is converged : 
  for the second time, diff in etot=  3.553E-14 < toldfe=  1.000E-12

 Cartesian components of stress tensor (hartree/bohr^3)
  sigma(1 1)=  2.50331173E-04  sigma(3 2)=  0.00000000E+00
  sigma(2 2)=  2.50331173E-04  sigma(3 1)=  0.00000000E+00
  sigma(3 3)=  2.50331173E-04  sigma(2 1)=  0.00000000E+00

================================================================================

 ----iterations are completed or convergence reached----

 Mean square residual over all n,k,spin=   6.0687E-20; max=  2.0875E-19
  -0.2500  0.5000  0.0000    1  2.08746E-19 kpt; spin; max resid(k); each band:
  5.57E-20 3.62E-20 3.37E-20 9.60E-21 2.09E-19
  -0.2500  0.0000  0.0000    1  1.10441E-19 kpt; spin; max resid(k); each band:
  9.43E-20 5.57E-20 1.23E-21 1.23E-21 1.10E-19
 reduced coordinates (array xred) for    2 atoms
       0.000000000000      0.000000000000      0.000000000000
       0.250000000000      0.250000000000      0.250000000000
 rms dE/dt=  4.5624E-31; max dE/dt=  1.1176E-30; dE/dt below (all hartree)
    1       0.000000000000      0.000000000000      0.000000000000
    2       0.000000000000      0.000000000000      0.000000000000

 cartesian coordinates (angstrom) at end:
    1      0.00000000000000     0.00000000000000     0.00000000000000
    2      1.40450654002815     1.40450654002815     1.40450654002815

 cartesian forces (hartree/bohr) at end:
    1      0.00000000000000     0.00000000000000    -0.00000000000000
    2     -0.00000000000000    -0.00000000000000     0.00000000000000
 frms,max,avg= 5.2632680E-32 5.2632680E-32   0.000E+00  0.000E+00  0.000E+00 h/b

 cartesian forces (eV/Angstrom) at end:
    1      0.00000000000000     0.00000000000000    -0.00000000000000
    2     -0.00000000000000    -0.00000000000000     0.00000000000000
 frms,max,avg= 2.7064810E-30 2.7064810E-30   0.000E+00  0.000E+00  0.000E+00 e/A
 length scales= 10.616530850000 10.616530850000 10.616530850000 bohr
              =  5.618026160113  5.618026160113  5.618026160113 angstroms
 prteigrs : about to open file t75o_DS1_EIG
 Fermi (or HOMO) energy (hartree) =   0.07128   Average Vxc (hartree)=  -0.34434
 Eigenvalues (hartree) for nkpt=   2  k points:
 kpt#   1, nband=  5, wtk=  0.75000, kpt= -0.2500  0.5000  0.0000 (reduced coord)
  -0.28593  -0.09851  -0.01560   0.02645   0.17585
 kpt#   2, nband=  5, wtk=  0.25000, kpt= -0.2500  0.0000  0.0000 (reduced coord)
  -0.32723  -0.03732   0.07128   0.07128   0.18415
 Total charge density [el/Bohr^3]
,     Maximum=    9.2640E-02  at reduced coord.    0.1667    0.1667    0.5000
,Next maximum=    9.2640E-02  at reduced coord.    0.1667    0.5000    0.1667
,     Minimum=    2.7893E-03  at reduced coord.    0.7500    0.7500    0.7500
,Next minimum=    3.2158E-03  at reduced coord.    0.7500    0.7500    0.6667
,  Integrated=    8.0000E+00

--------------------------------------------------------------------------------
 Components of total free energy (in Hartree) :

    Kinetic energy  =  2.92740823580714E+00
    Hartree energy  =  7.97512442958946E-01
    XC energy       = -4.34129938166531E+00
    Ewald energy    = -8.47467935444799E+00
    PspCore energy  =  7.33476114488755E-01
    Loc. psp. energy= -2.38281147257528E+00
    NL   psp  energy=  6.46040970389810E-01
    >>>>>>>>> Etotal= -1.00943524450439E+01

 Other information on the energy :
    Total energy(eV)= -2.74681299200220E+02 ; Band energy (Ha)=  -6.7139607390E-01
--------------------------------------------------------------------------------

 Cartesian components of stress tensor (hartree/bohr^3)
  sigma(1 1)=  2.50331173E-04  sigma(3 2)=  0.00000000E+00
  sigma(2 2)=  2.50331173E-04  sigma(3 1)=  0.00000000E+00
  sigma(3 3)=  2.50331173E-04  sigma(2 1)=  0.00000000E+00

-Cartesian components of stress tensor (GPa)         [Pressure= -7.3650E+00 GPa]
- sigma(1 1)=  7.36499614E+00  sigma(3 2)=  0.00000000E+00
- sigma(2 2)=  7.36499614E+00  sigma(3 1)=  0.00000000E+00
- sigma(3 3)=  7.36499614E+00  sigma(2 1)=  0.00000000E+00

================================================================================
== DATASET  2 ==================================================================
-   nproc =    1

 mkfilename : getwfk/=0, take file _WFK from output of DATASET   1.

 mkfilename : getden/=0, take file _DEN from output of DATASET   1.

 Exchange-correlation functional for the present dataset will be:
  LDA: new Teter (4/93) with spin-polarized option - ixc=1
 Citation for XC functional:
  S. Goedecker, M. Teter, J. Huetter, PRB 54, 1703 (1996)

 Real(R)+Recip(G) space primitive vectors, cartesian coordinates (Bohr,Bohr^-1):
 R(1)=  0.0000000  5.3082654  5.3082654  G(1)= -0.0941927  0.0941927  0.0941927
 R(2)=  5.3082654  0.0000000  5.3082654  G(2)=  0.0941927 -0.0941927  0.0941927
 R(3)=  5.3082654  5.3082654  0.0000000  G(3)=  0.0941927  0.0941927 -0.0941927
 Unit cell volume ucvol=  2.9914923E+02 bohr^3
 Angles (23,13,12)=  6.00000000E+01  6.00000000E+01  6.00000000E+01 degrees

 getcut: wavevector=  0.0000  0.0000  0.0000  ngfft=  12  12  12
         ecut(hartree)=      3.000   => boxcut(ratio)=   2.05016
--------------------------------------------------------------------------------

-inwffil : will read wavefunctions from disk file t75o_DS1_WFK
- newkpt: read input wf with ikpt,npw=   1      74, make ikpt,npw=   1      74
- newkpt: read input wf with ikpt,npw=   1      74, make ikpt,npw=   2      74
- newkpt: read input wf with ikpt,npw=   1      74, make ikpt,npw=   3      74
- newkpt: read input wf with ikpt,npw=   2      68, make ikpt,npw=   4      68
- newkpt: read input wf with ikpt,npw=   1      74, make ikpt,npw=   5      74
- newkpt: read input wf with ikpt,npw=   1      74, make ikpt,npw=   6      74
- newkpt: read input wf with ikpt,npw=   1      74, make ikpt,npw=   7      74
- newkpt: read input wf with ikpt,npw=   2      68, make ikpt,npw=   8      68
- newkpt: read input wf with ikpt,npw=   1      74, make ikpt,npw=   9      74
- newkpt: read input wf with ikpt,npw=   1      74, make ikpt,npw=  10      74
- newkpt: read input wf with ikpt,npw=   2      68, make ikpt,npw=  11      68
- newkpt: read input wf with ikpt,npw=   1      74, make ikpt,npw=  12      74
- newkpt: read input wf with ikpt,npw=   1      74, make ikpt,npw=  13      74
- newkpt: read input wf with ikpt,npw=   1      74, make ikpt,npw=  14      74
- newkpt: read input wf with ikpt,npw=   1      74, make ikpt,npw=  15      74
- newkpt: read input wf with ikpt,npw=   2      68, make ikpt,npw=  16      68

  initberry: for direction 1, nkstr =   2, nstr =     16
  initberry: for direction 2, nkstr =   2, nstr =     16
  initberry: for direction 3, nkstr =   2, nstr =     16

================================================================================
 prteigrs : about to open file t75o_DS2_EIG
 Non-SCF case, kpt    1 ( -0.25000  0.50000  0.00000), residuals and eigenvalues=
  2.64E-23  2.21E-23  4.64E-23  2.83E-23
 -2.8593E-01 -9.8508E-02 -1.5603E-02  2.6445E-02
 Non-SCF case, kpt    2 (  0.50000 -0.25000  0.00000), residuals and eigenvalues=
  2.64E-23  2.21E-23  4.63E-23  2.83E-23
 -2.8593E-01 -9.8508E-02 -1.5603E-02  2.6445E-02
 Non-SCF case, kpt    3 ( -0.25000 -0.25000  0.25000), residuals and eigenvalues=
  2.65E-23  2.21E-23  4.64E-23  2.83E-23
 -2.8593E-01 -9.8508E-02 -1.5603E-02  2.6445E-02
 Non-SCF case, kpt    4 ( -0.25000  0.00000  0.00000), residuals and eigenvalues=
  1.10E-23  1.64E-23  2.23E-23  2.23E-23
 -3.2723E-01 -3.7319E-02  7.1276E-02  7.1276E-02
 Non-SCF case, kpt    5 ( -0.25000  0.25000  0.25000), residuals and eigenvalues=
  2.64E-23  2.21E-23  4.63E-23  2.83E-23
 -2.8593E-01 -9.8508E-02 -1.5603E-02  2.6445E-02
 Non-SCF case, kpt    6 (  0.50000  0.50000  0.25000), residuals and eigenvalues=
  2.64E-23  2.21E-23  4.63E-23  2.83E-23
 -2.8593E-01 -9.8508E-02 -1.5603E-02  2.6445E-02
 Non-SCF case, kpt    7 ( -0.25000  0.50000  0.50000), residuals and eigenvalues=
  2.65E-23  2.21E-23  4.64E-23  2.83E-23
 -2.8593E-01 -9.8508E-02 -1.5603E-02  2.6445E-02
 Non-SCF case, kpt    8 (  0.00000 -0.25000  0.00000), residuals and eigenvalues=
  1.10E-23  1.64E-23  2.22E-23  2.23E-23
 -3.2723E-01 -3.7319E-02  7.1276E-02  7.1276E-02
 Non-SCF case, kpt    9 (  0.25000 -0.25000  0.25000), residuals and eigenvalues=
  2.64E-23  2.21E-23  4.64E-23  2.83E-23
 -2.8593E-01 -9.8508E-02 -1.5603E-02  2.6445E-02
 Non-SCF case, kpt   10 (  0.50000 -0.25000  0.50000), residuals and eigenvalues=
  2.64E-23  2.21E-23  4.64E-23  2.83E-23
 -2.8593E-01 -9.8508E-02 -1.5603E-02  2.6445E-02
 Non-SCF case, kpt   11 ( -0.25000 -0.25000 -0.25000), residuals and eigenvalues=
  1.10E-23  1.64E-23  2.22E-23  2.23E-23
 -3.2723E-01 -3.7319E-02  7.1276E-02  7.1276E-02
 Non-SCF case, kpt   12 (  0.50000  0.00000  0.25000), residuals and eigenvalues=
  2.64E-23  2.21E-23  4.63E-23  2.83E-23
 -2.8593E-01 -9.8508E-02 -1.5603E-02  2.6445E-02
 Non-SCF case, kpt   13 ( -0.25000  0.00000  0.50000), residuals and eigenvalues=
  2.65E-23  2.21E-23  4.64E-23  2.83E-23
 -2.8593E-01 -9.8508E-02 -1.5603E-02  2.6445E-02
 Non-SCF case, kpt   14 (  0.00000  0.50000  0.25000), residuals and eigenvalues=
  2.64E-23  2.21E-23  4.63E-23  2.83E-23
 -2.8593E-01 -9.8508E-02 -1.5603E-02  2.6445E-02
 Non-SCF case, kpt   15 (  0.00000 -0.25000  0.50000), residuals and eigenvalues=
  2.65E-23  2.21E-23  4.64E-23  2.83E-23
 -2.8593E-01 -9.8508E-02 -1.5603E-02  2.6445E-02
 Non-SCF case, kpt   16 (  0.00000  0.00000  0.25000), residuals and eigenvalues=
  1.10E-23  1.64E-23  2.22E-23  2.23E-23
 -3.2723E-01 -3.7319E-02  7.1276E-02  7.1276E-02

 Computing the polarization (Berry phase) for reciprocal vector:
  0.50000  0.00000  0.00000 (in reduced coordinates)
 -0.04710  0.04710  0.04710 (in cartesian coordinates - atomic units)
 Number of strings:    16
 Number of k points in string:    2

 Computing the ddk (Berry phase) for reciprocal vector:
  0.50000  0.00000  0.00000 (in reduced coordinates)
 -0.04710  0.04710  0.04710 (in cartesian coordinates - atomic units)

 Summary of the results
 Electronic Berry phase     1.536759193E-02
            Ionic phase    -7.500000000E-01
            Total phase    -7.346324081E-01
    Remapping in [-1,1]    -7.346324081E-01

           Polarization    -1.505234608E-02 (a.u. of charge)/bohr^2
           Polarization    -8.612163907E-01 C/m^2

 Mean square residual over all n,k,spin=   0.0000E+00; max=  0.0000E+00
  -0.2500  0.5000  0.0000    1  0.00000E+00 kpt; spin; max resid(k); each band:
  0.00E+00 0.00E+00 0.00E+00 0.00E+00
   0.5000 -0.2500  0.0000    1  0.00000E+00 kpt; spin; max resid(k); each band:
  0.00E+00 0.00E+00 0.00E+00 0.00E+00
  -0.2500 -0.2500  0.2500    1  0.00000E+00 kpt; spin; max resid(k); each band:
  0.00E+00 0.00E+00 0.00E+00 0.00E+00
  -0.2500  0.0000  0.0000    1  0.00000E+00 kpt; spin; max resid(k); each band:
  0.00E+00 0.00E+00 0.00E+00 0.00E+00
  -0.2500  0.2500  0.2500    1  0.00000E+00 kpt; spin; max resid(k); each band:
  0.00E+00 0.00E+00 0.00E+00 0.00E+00
   0.5000  0.5000  0.2500    1  0.00000E+00 kpt; spin; max resid(k); each band:
  0.00E+00 0.00E+00 0.00E+00 0.00E+00
  -0.2500  0.5000  0.5000    1  0.00000E+00 kpt; spin; max resid(k); each band:
  0.00E+00 0.00E+00 0.00E+00 0.00E+00
   0.0000 -0.2500  0.0000    1  0.00000E+00 kpt; spin; max resid(k); each band:
  0.00E+00 0.00E+00 0.00E+00 0.00E+00
   0.2500 -0.2500  0.2500    1  0.00000E+00 kpt; spin; max resid(k); each band:
  0.00E+00 0.00E+00 0.00E+00 0.00E+00
   0.5000 -0.2500  0.5000    1  0.00000E+00 kpt; spin; max resid(k); each band:
  0.00E+00 0.00E+00 0.00E+00 0.00E+00
  -0.2500 -0.2500 -0.2500    1  0.00000E+00 kpt; spin; max resid(k); each band:
  0.00E+00 0.00E+00 0.00E+00 0.00E+00
   0.5000  0.0000  0.2500    1  0.00000E+00 kpt; spin; max resid(k); each band:
  0.00E+00 0.00E+00 0.00E+00 0.00E+00
  -0.2500  0.0000  0.5000    1  0.00000E+00 kpt; spin; max resid(k); each band:
  0.00E+00 0.00E+00 0.00E+00 0.00E+00
   0.0000  0.5000  0.2500    1  0.00000E+00 kpt; spin; max resid(k); each band:
  0.00E+00 0.00E+00 0.00E+00 0.00E+00
   0.0000 -0.2500  0.5000    1  0.00000E+00 kpt; spin; max resid(k); each band:
  0.00E+00 0.00E+00 0.00E+00 0.00E+00
   0.0000  0.0000  0.2500    1  0.00000E+00 kpt; spin; max resid(k); each band:
  0.00E+00 0.00E+00 0.00E+00 0.00E+00

 Computing the polarization (Berry phase) for reciprocal vector:
  0.00000  0.50000  0.00000 (in reduced coordinates)
  0.04710 -0.04710  0.04710 (in cartesian coordinates - atomic units)
 Number of strings:    16
 Number of k points in string:    2

 Computing the ddk (Berry phase) for reciprocal vector:
  0.00000  0.50000  0.00000 (in reduced coordinates)
  0.04710 -0.04710  0.04710 (in cartesian coordinates - atomic units)

 Summary of the results
 Electronic Berry phase     1.536759193E-02
            Ionic phase    -7.500000000E-01
            Total phase    -7.346324081E-01
    Remapping in [-1,1]    -7.346324081E-01

           Polarization    -1.505234608E-02 (a.u. of charge)/bohr^2
           Polarization    -8.612163907E-01 C/m^2

 Mean square residual over all n,k,spin=   0.0000E+00; max=  0.0000E+00
  -0.2500  0.5000  0.0000    1  0.00000E+00 kpt; spin; max resid(k); each band:
  0.00E+00 0.00E+00 0.00E+00 0.00E+00
   0.5000 -0.2500  0.0000    1  0.00000E+00 kpt; spin; max resid(k); each band:
  0.00E+00 0.00E+00 0.00E+00 0.00E+00
  -0.2500 -0.2500  0.2500    1  0.00000E+00 kpt; spin; max resid(k); each band:
  0.00E+00 0.00E+00 0.00E+00 0.00E+00
  -0.2500  0.0000  0.0000    1  0.00000E+00 kpt; spin; max resid(k); each band:
  0.00E+00 0.00E+00 0.00E+00 0.00E+00
  -0.2500  0.2500  0.2500    1  0.00000E+00 kpt; spin; max resid(k); each band:
  0.00E+00 0.00E+00 0.00E+00 0.00E+00
   0.5000  0.5000  0.2500    1  0.00000E+00 kpt; spin; max resid(k); each band:
  0.00E+00 0.00E+00 0.00E+00 0.00E+00
  -0.2500  0.5000  0.5000    1  0.00000E+00 kpt; spin; max resid(k); each band:
  0.00E+00 0.00E+00 0.00E+00 0.00E+00
   0.0000 -0.2500  0.0000    1  0.00000E+00 kpt; spin; max resid(k); each band:
  0.00E+00 0.00E+00 0.00E+00 0.00E+00
   0.2500 -0.2500  0.2500    1  0.00000E+00 kpt; spin; max resid(k); each band:
  0.00E+00 0.00E+00 0.00E+00 0.00E+00
   0.5000 -0.2500  0.5000    1  0.00000E+00 kpt; spin; max resid(k); each band:
  0.00E+00 0.00E+00 0.00E+00 0.00E+00
  -0.2500 -0.2500 -0.2500    1  0.00000E+00 kpt; spin; max resid(k); each band:
  0.00E+00 0.00E+00 0.00E+00 0.00E+00
   0.5000  0.0000  0.2500    1  0.00000E+00 kpt; spin; max resid(k); each band:
  0.00E+00 0.00E+00 0.00E+00 0.00E+00
  -0.2500  0.0000  0.5000    1  0.00000E+00 kpt; spin; max resid(k); each band:
  0.00E+00 0.00E+00 0.00E+00 0.00E+00
   0.0000  0.5000  0.2500    1  0.00000E+00 kpt; spin; max resid(k); each band:
  0.00E+00 0.00E+00 0.00E+00 0.00E+00
   0.0000 -0.2500  0.5000    1  0.00000E+00 kpt; spin; max resid(k); each band:
  0.00E+00 0.00E+00 0.00E+00 0.00E+00
   0.0000  0.0000  0.2500    1  0.00000E+00 kpt; spin; max resid(k); each band:
  0.00E+00 0.00E+00 0.00E+00 0.00E+00

 Computing the polarization (Berry phase) for reciprocal vector:
  0.00000  0.00000  0.50000 (in reduced coordinates)
  0.04710  0.04710 -0.04710 (in cartesian coordinates - atomic units)
 Number of strings:    16
 Number of k points in string:    2

 Computing the ddk (Berry phase) for reciprocal vector:
  0.00000  0.00000  0.50000 (in reduced coordinates)
  0.04710  0.04710 -0.04710 (in cartesian coordinates - atomic units)

 Summary of the results
 Electronic Berry phase     1.536759193E-02
            Ionic phase    -7.500000000E-01
            Total phase    -7.346324081E-01
    Remapping in [-1,1]    -7.346324081E-01

           Polarization    -1.505234608E-02 (a.u. of charge)/bohr^2
           Polarization    -8.612163907E-01 C/m^2

 Mean square residual over all n,k,spin=   0.0000E+00; max=  0.0000E+00
  -0.2500  0.5000  0.0000    1  0.00000E+00 kpt; spin; max resid(k); each band:
  0.00E+00 0.00E+00 0.00E+00 0.00E+00
   0.5000 -0.2500  0.0000    1  0.00000E+00 kpt; spin; max resid(k); each band:
  0.00E+00 0.00E+00 0.00E+00 0.00E+00
  -0.2500 -0.2500  0.2500    1  0.00000E+00 kpt; spin; max resid(k); each band:
  0.00E+00 0.00E+00 0.00E+00 0.00E+00
  -0.2500  0.0000  0.0000    1  0.00000E+00 kpt; spin; max resid(k); each band:
  0.00E+00 0.00E+00 0.00E+00 0.00E+00
  -0.2500  0.2500  0.2500    1  0.00000E+00 kpt; spin; max resid(k); each band:
  0.00E+00 0.00E+00 0.00E+00 0.00E+00
   0.5000  0.5000  0.2500    1  0.00000E+00 kpt; spin; max resid(k); each band:
  0.00E+00 0.00E+00 0.00E+00 0.00E+00
  -0.2500  0.5000  0.5000    1  0.00000E+00 kpt; spin; max resid(k); each band:
  0.00E+00 0.00E+00 0.00E+00 0.00E+00
   0.0000 -0.2500  0.0000    1  0.00000E+00 kpt; spin; max resid(k); each band:
  0.00E+00 0.00E+00 0.00E+00 0.00E+00
   0.2500 -0.2500  0.2500    1  0.00000E+00 kpt; spin; max resid(k); each band:
  0.00E+00 0.00E+00 0.00E+00 0.00E+00
   0.5000 -0.2500  0.5000    1  0.00000E+00 kpt; spin; max resid(k); each band:
  0.00E+00 0.00E+00 0.00E+00 0.00E+00
  -0.2500 -0.2500 -0.2500    1  0.00000E+00 kpt; spin; max resid(k); each band:
  0.00E+00 0.00E+00 0.00E+00 0.00E+00
   0.5000  0.0000  0.2500    1  0.00000E+00 kpt; spin; max resid(k); each band:
  0.00E+00 0.00E+00 0.00E+00 0.00E+00
  -0.2500  0.0000  0.5000    1  0.00000E+00 kpt; spin; max resid(k); each band:
  0.00E+00 0.00E+00 0.00E+00 0.00E+00
   0.0000  0.5000  0.2500    1  0.00000E+00 kpt; spin; max resid(k); each band:
  0.00E+00 0.00E+00 0.00E+00 0.00E+00
   0.0000 -0.2500  0.5000    1  0.00000E+00 kpt; spin; max resid(k); each band:
  0.00E+00 0.00E+00 0.00E+00 0.00E+00
   0.0000  0.0000  0.2500    1  0.00000E+00 kpt; spin; max resid(k); each band:
  0.00E+00 0.00E+00 0.00E+00 0.00E+00

 Polarization in cartesian coordinates (a.u.):
 (the sum of the electronic and ionic Berry phase has been folded into [-1, 1])
     Electronic berry phase:        0.545381697E-03   0.545381697E-03   0.545381697E-03
     Ionic:                        -0.266168099E-01  -0.266168099E-01  -0.266168099E-01  
     Total:                        -0.260714282E-01  -0.260714282E-01  -0.260714282E-01

 Polarization in cartesian coordinates (C/m^2):
 (the sum of the electronic and ionic Berry phase has been folded into [-1, 1])
     Electronic berry phase:        0.312038837E-01   0.312038837E-01   0.312038837E-01
     Ionic:                        -0.152287443E+01  -0.152287443E+01  -0.152287443E+01  
     Total:                        -0.149167055E+01  -0.149167055E+01  -0.149167055E+01
================================================================================

 ----iterations are completed or convergence reached----

 Mean square residual over all n,k,spin=   2.7595E-23; max=  4.6381E-23
  -0.2500  0.5000  0.0000    1  4.63709E-23 kpt; spin; max resid(k); each band:
  2.64E-23 2.21E-23 4.64E-23 2.83E-23
   0.5000 -0.2500  0.0000    1  4.63474E-23 kpt; spin; max resid(k); each band:
  2.64E-23 2.21E-23 4.63E-23 2.83E-23
  -0.2500 -0.2500  0.2500    1  4.63685E-23 kpt; spin; max resid(k); each band:
  2.65E-23 2.21E-23 4.64E-23 2.83E-23
  -0.2500  0.0000  0.0000    1  2.22552E-23 kpt; spin; max resid(k); each band:
  1.10E-23 1.64E-23 2.23E-23 2.23E-23
  -0.2500  0.2500  0.2500    1  4.63462E-23 kpt; spin; max resid(k); each band:
  2.64E-23 2.21E-23 4.63E-23 2.83E-23
   0.5000  0.5000  0.2500    1  4.63453E-23 kpt; spin; max resid(k); each band:
  2.64E-23 2.21E-23 4.63E-23 2.83E-23
  -0.2500  0.5000  0.5000    1  4.63696E-23 kpt; spin; max resid(k); each band:
  2.65E-23 2.21E-23 4.64E-23 2.83E-23
   0.0000 -0.2500  0.0000    1  2.22550E-23 kpt; spin; max resid(k); each band:
  1.10E-23 1.64E-23 2.22E-23 2.23E-23
   0.2500 -0.2500  0.2500    1  4.63575E-23 kpt; spin; max resid(k); each band:
  2.64E-23 2.21E-23 4.64E-23 2.83E-23
   0.5000 -0.2500  0.5000    1  4.63574E-23 kpt; spin; max resid(k); each band:
  2.64E-23 2.21E-23 4.64E-23 2.83E-23
  -0.2500 -0.2500 -0.2500    1  2.22524E-23 kpt; spin; max resid(k); each band:
  1.10E-23 1.64E-23 2.22E-23 2.23E-23
   0.5000  0.0000  0.2500    1  4.63340E-23 kpt; spin; max resid(k); each band:
  2.64E-23 2.21E-23 4.63E-23 2.83E-23
  -0.2500  0.0000  0.5000    1  4.63807E-23 kpt; spin; max resid(k); each band:
  2.65E-23 2.21E-23 4.64E-23 2.83E-23
   0.0000  0.5000  0.2500    1  4.63440E-23 kpt; spin; max resid(k); each band:
  2.64E-23 2.21E-23 4.63E-23 2.83E-23
   0.0000 -0.2500  0.5000    1  4.63674E-23 kpt; spin; max resid(k); each band:
  2.65E-23 2.21E-23 4.64E-23 2.83E-23
   0.0000  0.0000  0.2500    1  2.22504E-23 kpt; spin; max resid(k); each band:
  1.10E-23 1.64E-23 2.22E-23 2.23E-23
 reduced coordinates (array xred) for    2 atoms
       0.000000000000      0.000000000000      0.000000000000
       0.250000000000      0.250000000000      0.250000000000

 cartesian coordinates (angstrom) at end:
    1      0.00000000000000     0.00000000000000     0.00000000000000
    2      1.40450654002815     1.40450654002815     1.40450654002815
 length scales= 10.616530850000 10.616530850000 10.616530850000 bohr
              =  5.618026160113  5.618026160113  5.618026160113 angstroms
 prteigrs : about to open file t75o_DS2_EIG
 Eigenvalues (hartree) for nkpt=  16  k points:
 kpt#   1, nband=  4, wtk=  0.06250, kpt= -0.2500  0.5000  0.0000 (reduced coord)
  -0.28593  -0.09851  -0.01560   0.02645
 kpt#   2, nband=  4, wtk=  0.06250, kpt=  0.5000 -0.2500  0.0000 (reduced coord)
  -0.28593  -0.09851  -0.01560   0.02645
 kpt#   3, nband=  4, wtk=  0.06250, kpt= -0.2500 -0.2500  0.2500 (reduced coord)
  -0.28593  -0.09851  -0.01560   0.02645
 kpt#   4, nband=  4, wtk=  0.06250, kpt= -0.2500  0.0000  0.0000 (reduced coord)
  -0.32723  -0.03732   0.07128   0.07128
 kpt#   5, nband=  4, wtk=  0.06250, kpt= -0.2500  0.2500  0.2500 (reduced coord)
  -0.28593  -0.09851  -0.01560   0.02645
 kpt#   6, nband=  4, wtk=  0.06250, kpt=  0.5000  0.5000  0.2500 (reduced coord)
  -0.28593  -0.09851  -0.01560   0.02645
 kpt#   7, nband=  4, wtk=  0.06250, kpt= -0.2500  0.5000  0.5000 (reduced coord)
  -0.28593  -0.09851  -0.01560   0.02645
 kpt#   8, nband=  4, wtk=  0.06250, kpt=  0.0000 -0.2500  0.0000 (reduced coord)
  -0.32723  -0.03732   0.07128   0.07128
 kpt#   9, nband=  4, wtk=  0.06250, kpt=  0.2500 -0.2500  0.2500 (reduced coord)
  -0.28593  -0.09851  -0.01560   0.02645
 kpt#  10, nband=  4, wtk=  0.06250, kpt=  0.5000 -0.2500  0.5000 (reduced coord)
  -0.28593  -0.09851  -0.01560   0.02645
 kpt#  11, nband=  4, wtk=  0.06250, kpt= -0.2500 -0.2500 -0.2500 (reduced coord)
  -0.32723  -0.03732   0.07128   0.07128
 kpt#  12, nband=  4, wtk=  0.06250, kpt=  0.5000  0.0000  0.2500 (reduced coord)
  -0.28593  -0.09851  -0.01560   0.02645
 kpt#  13, nband=  4, wtk=  0.06250, kpt= -0.2500  0.0000  0.5000 (reduced coord)
  -0.28593  -0.09851  -0.01560   0.02645
 kpt#  14, nband=  4, wtk=  0.06250, kpt=  0.0000  0.5000  0.2500 (reduced coord)
  -0.28593  -0.09851  -0.01560   0.02645
 kpt#  15, nband=  4, wtk=  0.06250, kpt=  0.0000 -0.2500  0.5000 (reduced coord)
  -0.28593  -0.09851  -0.01560   0.02645
 kpt#  16, nband=  4, wtk=  0.06250, kpt=  0.0000  0.0000  0.2500 (reduced coord)
  -0.32723  -0.03732   0.07128   0.07128
 Total charge density [el/Bohr^3]
,     Maximum=    9.2640E-02  at reduced coord.    0.1667    0.1667    0.5000
,Next maximum=    9.2640E-02  at reduced coord.    0.1667    0.5000    0.1667
,     Minimum=    2.7893E-03  at reduced coord.    0.7500    0.7500    0.7500
,Next minimum=    3.2158E-03  at reduced coord.    0.7500    0.7500    0.6667
,  Integrated=    8.0000E+00

================================================================================
== DATASET  3 ==================================================================
-   nproc =    1

 mkfilename : getwfk/=0, take file _WFK from output of DATASET   2.

 mkfilename : getddk/=0, take file _1WF from output of DATASET   2.

 Exchange-correlation functional for the present dataset will be:
  LDA: new Teter (4/93) with spin-polarized option - ixc=1
 Citation for XC functional:
  S. Goedecker, M. Teter, J. Huetter, PRB 54, 1703 (1996)

 Real(R)+Recip(G) space primitive vectors, cartesian coordinates (Bohr,Bohr^-1):
 R(1)=  0.0000000  5.3082654  5.3082654  G(1)= -0.0941927  0.0941927  0.0941927
 R(2)=  5.3082654  0.0000000  5.3082654  G(2)=  0.0941927 -0.0941927  0.0941927
 R(3)=  5.3082654  5.3082654  0.0000000  G(3)=  0.0941927  0.0941927 -0.0941927
 Unit cell volume ucvol=  2.9914923E+02 bohr^3
 Angles (23,13,12)=  6.00000000E+01  6.00000000E+01  6.00000000E+01 degrees

 getcut: wavevector=  0.0000  0.0000  0.0000  ngfft=  12  12  12
         ecut(hartree)=      3.000   => boxcut(ratio)=   2.05016
--------------------------------------------------------------------------------

-inwffil : will read wavefunctions from disk file t75o_DS2_WFK
P newkpt: treating      4 bands with npw=      74 for ikpt=   1 by node    0
P newkpt: treating      4 bands with npw=      74 for ikpt=   2 by node    0
P newkpt: treating      4 bands with npw=      74 for ikpt=   3 by node    0
P newkpt: treating      4 bands with npw=      68 for ikpt=   4 by node    0
P newkpt: treating      4 bands with npw=      74 for ikpt=   5 by node    0
P newkpt: treating      4 bands with npw=      74 for ikpt=   6 by node    0
P newkpt: treating      4 bands with npw=      74 for ikpt=   7 by node    0
P newkpt: treating      4 bands with npw=      68 for ikpt=   8 by node    0
P newkpt: treating      4 bands with npw=      74 for ikpt=   9 by node    0
P newkpt: treating      4 bands with npw=      74 for ikpt=  10 by node    0
P newkpt: treating      4 bands with npw=      68 for ikpt=  11 by node    0
P newkpt: treating      4 bands with npw=      74 for ikpt=  12 by node    0
P newkpt: treating      4 bands with npw=      74 for ikpt=  13 by node    0
P newkpt: treating      4 bands with npw=      74 for ikpt=  14 by node    0
P newkpt: treating      4 bands with npw=      74 for ikpt=  15 by node    0
P newkpt: treating      4 bands with npw=      68 for ikpt=  16 by node    0

 symkchk : k-point set has full space-group symmetry.

 ==>  initialize data related to q vector <== 

 The list of irreducible perturbations for this q vector is:
    1)    idir= 1    ipert=   1
    2)    idir= 1    ipert=   2
    3)    idir= 1    ipert=   4
    4)    idir= 1    ipert=   5
    5)    idir= 2    ipert=   5
    6)    idir= 3    ipert=   5
    7)    idir= 1    ipert=   6
    8)    idir= 2    ipert=   6
    9)    idir= 3    ipert=   6

================================================================================

 The perturbation idir=   2  ipert=   1 is
 symmetric of a previously calculated perturbation.
 So, its SCF calculation is not needed.


 The perturbation idir=   3  ipert=   1 is
 symmetric of a previously calculated perturbation.
 So, its SCF calculation is not needed.


 The perturbation idir=   2  ipert=   2 is
 symmetric of a previously calculated perturbation.
 So, its SCF calculation is not needed.


 The perturbation idir=   3  ipert=   2 is
 symmetric of a previously calculated perturbation.
 So, its SCF calculation is not needed.


 The perturbation idir=   2  ipert=   4 is
 symmetric of a previously calculated perturbation.
 So, its SCF calculation is not needed.


 The perturbation idir=   3  ipert=   4 is
 symmetric of a previously calculated perturbation.
 So, its SCF calculation is not needed.


--------------------------------------------------------------------------------
 Perturbation wavevector (in red.coord.)   0.000000  0.000000  0.000000
 Perturbation : displacement of atom   1   along direction   1
 Found     2 symmetries that leave the perturbation invariant.
 symkpt : the number of k-points, thanks to the symmetries,
 is reduced to    10 .

--------------------------------------------------------------------------------

-inwffil : will read wavefunctions from disk file t75o_DS2_WFK
- newkpt: read input wf with ikpt,npw=   1      74, make ikpt,npw=   1      74
- newkpt: read input wf with ikpt,npw=   2      74, make ikpt,npw=   2      74
- newkpt: read input wf with ikpt,npw=   3      74, make ikpt,npw=   3      74
- newkpt: read input wf with ikpt,npw=   4      68, make ikpt,npw=   4      68
- newkpt: read input wf with ikpt,npw=   5      74, make ikpt,npw=   5      74
- newkpt: read input wf with ikpt,npw=   6      74, make ikpt,npw=   6      74
- newkpt: read input wf with ikpt,npw=   7      74, make ikpt,npw=   7      74
- newkpt: read input wf with ikpt,npw=   8      68, make ikpt,npw=   8      68
- newkpt: read input wf with ikpt,npw=  11      68, make ikpt,npw=   9      68
- newkpt: read input wf with ikpt,npw=  14      74, make ikpt,npw=  10      74

--------------------------------------------------------------------------------

-inwffil : will read wavefunctions from disk file t75o_DS2_WFK
- newkpt: read input wf with ikpt,npw=   1      74, make ikpt,npw=   1      74
- newkpt: read input wf with ikpt,npw=   2      74, make ikpt,npw=   2      74
- newkpt: read input wf with ikpt,npw=   3      74, make ikpt,npw=   3      74
- newkpt: read input wf with ikpt,npw=   4      68, make ikpt,npw=   4      68
- newkpt: read input wf with ikpt,npw=   5      74, make ikpt,npw=   5      74
- newkpt: read input wf with ikpt,npw=   6      74, make ikpt,npw=   6      74
- newkpt: read input wf with ikpt,npw=   7      74, make ikpt,npw=   7      74
- newkpt: read input wf with ikpt,npw=   8      68, make ikpt,npw=   8      68
- newkpt: read input wf with ikpt,npw=  11      68, make ikpt,npw=   9      68
- newkpt: read input wf with ikpt,npw=  14      74, make ikpt,npw=  10      74

 Initialisation of the first-order wave-functions :
  ireadwf=   0
P newkpt: treating      4 bands with npw=      74 for ikpt=   1 by node    0
P newkpt: treating      4 bands with npw=      74 for ikpt=   2 by node    0
P newkpt: treating      4 bands with npw=      74 for ikpt=   3 by node    0
P newkpt: treating      4 bands with npw=      68 for ikpt=   4 by node    0
P newkpt: treating      4 bands with npw=      74 for ikpt=   5 by node    0
P newkpt: treating      4 bands with npw=      74 for ikpt=   6 by node    0
P newkpt: treating      4 bands with npw=      74 for ikpt=   7 by node    0
P newkpt: treating      4 bands with npw=      68 for ikpt=   8 by node    0
P newkpt: treating      4 bands with npw=      68 for ikpt=   9 by node    0
P newkpt: treating      4 bands with npw=      74 for ikpt=  10 by node    0


     iter   2DEtotal(Ha)        deltaE(Ha) residm    vres2
-ETOT  1   6.7657998927906     -1.366E+01 1.259E-02 1.828E+02
 ETOT  2   5.3753630741363     -1.390E+00 7.365E-04 4.103E+00
 ETOT  3   5.3596959681707     -1.567E-02 7.101E-06 1.448E+00
 ETOT  4   5.3503957880882     -9.300E-03 2.599E-06 1.093E-01
 ETOT  5   5.3499246230253     -4.712E-04 1.845E-07 4.193E-03
 ETOT  6   5.3499089227717     -1.570E-05 7.779E-09 7.689E-05
 ETOT  7   5.3499087444688     -1.783E-07 8.536E-11 1.717E-05
 ETOT  8   5.3499086576277     -8.684E-08 4.769E-11 1.488E-06
 ETOT  9   5.3499086514946     -6.133E-09 3.224E-12 5.437E-08
 ETOT 10   5.3499086512663     -2.283E-10 1.782E-13 6.153E-10
 ETOT 11   5.3499086512640     -2.309E-12 1.462E-15 9.233E-11
-open ddk wf file :t75o_DS2_1WF7
-open ddk wf file :t75o_DS2_1WF8
-open ddk wf file :t75o_DS2_1WF9

 scprqt:  WARNING -
  nstep=   11 was not enough SCF cycles to converge;
  maximum energy difference=  2.309E-12 exceeds toldfe=  1.000E-16

================================================================================

 ----iterations are completed or convergence reached----

 Mean square residual over all n,k,spin=   4.1298E-16; max=  1.4622E-15
  -0.2500  0.5000  0.0000    1  1.08916E-15 kpt; spin; max resid(k); each band:
  3.08E-16 1.09E-15 5.43E-16 1.05E-16
   0.5000 -0.2500  0.0000    1  1.46218E-15 kpt; spin; max resid(k); each band:
  4.45E-17 4.49E-16 1.46E-15 1.04E-16
  -0.2500 -0.2500  0.2500    1  1.03515E-15 kpt; spin; max resid(k); each band:
  3.81E-16 1.04E-15 5.03E-16 1.18E-16
  -0.2500  0.0000  0.0000    1  4.09988E-16 kpt; spin; max resid(k); each band:
  3.92E-16 4.10E-16 6.93E-17 3.64E-16
  -0.2500  0.2500  0.2500    1  8.57989E-16 kpt; spin; max resid(k); each band:
  4.09E-16 4.62E-16 8.58E-16 1.61E-16
   0.5000  0.5000  0.2500    1  1.38979E-15 kpt; spin; max resid(k); each band:
  4.26E-17 5.31E-16 1.39E-15 1.02E-16
  -0.2500  0.5000  0.5000    1  8.46565E-16 kpt; spin; max resid(k); each band:
  3.99E-16 5.97E-16 8.47E-16 1.44E-16
   0.0000 -0.2500  0.0000    1  5.69932E-16 kpt; spin; max resid(k); each band:
  9.84E-17 5.70E-16 1.17E-16 1.15E-16
  -0.2500 -0.2500 -0.2500    1  4.44238E-16 kpt; spin; max resid(k); each band:
  3.40E-16 4.44E-16 4.09E-16 4.67E-17
   0.0000  0.5000  0.2500    1  3.63727E-16 kpt; spin; max resid(k); each band:
  2.12E-16 3.07E-16 3.64E-16 1.75E-16

 Thirteen components of 2nd-order total energy (hartree) are
 1,2,3: 0th-order hamiltonian combined with 1st-order wavefunctions
     kin0=   1.77957927E+01 eigvalue=   4.92955587E-01  local=  -1.25021138E+01
 4,5,6: 1st-order hamiltonian combined with 1st and 0th-order wfs
 loc psp =  -5.40258567E+00  Hartree=   3.53130523E+00     xc=  -1.49709604E+00
 note that "loc psp" includes a xc core correction that could be resolved
 7,8,9: eventually, occupation + non-local contributions
    edocc=   0.00000000E+00     enl0=   7.25555549E+00   enl1=  -2.47502117E+01
 1-9 gives the relaxation energy (to be shifted if some occ is /=2.0)
   erelax=  -1.50763981E+01
 10,11,12 Non-relaxation  contributions : frozen-wavefunctions and Ewald
 fr.local=  -1.07001660E+01 fr.nonlo=   2.01672717E+01  Ewald=   1.18366073E+01
 13,14 Frozen wf xc core corrections (1) and (2)
 frxc 1  =  -4.78222633E+00  frxc 2 =   3.90482016E+00
 Resulting in :
 2DEtotal=    0.5349908651E+01 Ha. Also 2DEtotal=    0.145578417925E+03 eV
    (2DErelax=   -1.5076398135E+01 Ha. 2DEnonrelax=    2.0426306786E+01 Ha)
    (  non-var. 2DEtotal :    5.3499081177E+00 Ha)


--------------------------------------------------------------------------------
 Perturbation wavevector (in red.coord.)   0.000000  0.000000  0.000000
 Perturbation : displacement of atom   2   along direction   1
 Found     2 symmetries that leave the perturbation invariant.
 symkpt : the number of k-points, thanks to the symmetries,
 is reduced to    10 .

--------------------------------------------------------------------------------

-inwffil : will read wavefunctions from disk file t75o_DS2_WFK
- newkpt: read input wf with ikpt,npw=   1      74, make ikpt,npw=   1      74
- newkpt: read input wf with ikpt,npw=   2      74, make ikpt,npw=   2      74
- newkpt: read input wf with ikpt,npw=   3      74, make ikpt,npw=   3      74
- newkpt: read input wf with ikpt,npw=   4      68, make ikpt,npw=   4      68
- newkpt: read input wf with ikpt,npw=   5      74, make ikpt,npw=   5      74
- newkpt: read input wf with ikpt,npw=   6      74, make ikpt,npw=   6      74
- newkpt: read input wf with ikpt,npw=   7      74, make ikpt,npw=   7      74
- newkpt: read input wf with ikpt,npw=   8      68, make ikpt,npw=   8      68
- newkpt: read input wf with ikpt,npw=  11      68, make ikpt,npw=   9      68
- newkpt: read input wf with ikpt,npw=  14      74, make ikpt,npw=  10      74

--------------------------------------------------------------------------------

-inwffil : will read wavefunctions from disk file t75o_DS2_WFK
- newkpt: read input wf with ikpt,npw=   1      74, make ikpt,npw=   1      74
- newkpt: read input wf with ikpt,npw=   2      74, make ikpt,npw=   2      74
- newkpt: read input wf with ikpt,npw=   3      74, make ikpt,npw=   3      74
- newkpt: read input wf with ikpt,npw=   4      68, make ikpt,npw=   4      68
- newkpt: read input wf with ikpt,npw=   5      74, make ikpt,npw=   5      74
- newkpt: read input wf with ikpt,npw=   6      74, make ikpt,npw=   6      74
- newkpt: read input wf with ikpt,npw=   7      74, make ikpt,npw=   7      74
- newkpt: read input wf with ikpt,npw=   8      68, make ikpt,npw=   8      68
- newkpt: read input wf with ikpt,npw=  11      68, make ikpt,npw=   9      68
- newkpt: read input wf with ikpt,npw=  14      74, make ikpt,npw=  10      74

 Initialisation of the first-order wave-functions :
  ireadwf=   0
P newkpt: treating      4 bands with npw=      74 for ikpt=   1 by node    0
P newkpt: treating      4 bands with npw=      74 for ikpt=   2 by node    0
P newkpt: treating      4 bands with npw=      74 for ikpt=   3 by node    0
P newkpt: treating      4 bands with npw=      68 for ikpt=   4 by node    0
P newkpt: treating      4 bands with npw=      74 for ikpt=   5 by node    0
P newkpt: treating      4 bands with npw=      74 for ikpt=   6 by node    0
P newkpt: treating      4 bands with npw=      74 for ikpt=   7 by node    0
P newkpt: treating      4 bands with npw=      68 for ikpt=   8 by node    0
P newkpt: treating      4 bands with npw=      68 for ikpt=   9 by node    0
P newkpt: treating      4 bands with npw=      74 for ikpt=  10 by node    0


     iter   2DEtotal(Ha)        deltaE(Ha) residm    vres2
-ETOT  1   37.708156059067     -4.645E+01 6.984E-02 3.517E+03
 ETOT  2   5.8224771197922     -3.189E+01 1.907E-02 4.163E+01
 ETOT  3   5.3662709742847     -4.562E-01 4.395E-04 2.152E+00
 ETOT  4   5.3500406743168     -1.623E-02 6.505E-06 2.765E-02
 ETOT  5   5.3499288552101     -1.118E-04 8.331E-08 4.224E-04
 ETOT  6   5.3499278322851     -1.023E-06 2.272E-09 2.043E-04
 ETOT  7   5.3499269350683     -8.972E-07 4.342E-10 1.231E-05
 ETOT  8   5.3499268593398     -7.573E-08 3.751E-11 7.417E-07
 ETOT  9   5.3499268554021     -3.938E-09 1.964E-12 4.253E-09
 ETOT 10   5.3499268553985     -3.581E-12 9.328E-15 3.125E-09
 ETOT 11   5.3499268553835     -1.499E-11 1.061E-14 1.156E-10
-open ddk wf file :t75o_DS2_1WF7
-open ddk wf file :t75o_DS2_1WF8
-open ddk wf file :t75o_DS2_1WF9

 scprqt:  WARNING -
  nstep=   11 was not enough SCF cycles to converge;
  maximum energy difference=  1.499E-11 exceeds toldfe=  1.000E-16

================================================================================

 ----iterations are completed or convergence reached----

 Mean square residual over all n,k,spin=   3.6937E-15; max=  1.0605E-14
  -0.2500  0.5000  0.0000    1  9.77286E-15 kpt; spin; max resid(k); each band:
  9.77E-15 5.88E-15 5.27E-15 2.43E-15
   0.5000 -0.2500  0.0000    1  7.75322E-15 kpt; spin; max resid(k); each band:
  7.75E-15 6.17E-15 5.45E-15 2.17E-15
  -0.2500 -0.2500  0.2500    1  4.03846E-15 kpt; spin; max resid(k); each band:
  8.51E-16 4.04E-15 1.93E-15 2.51E-15
  -0.2500  0.0000  0.0000    1  8.14533E-15 kpt; spin; max resid(k); each band:
  5.71E-16 8.15E-15 1.18E-15 8.45E-16
  -0.2500  0.2500  0.2500    1  3.84559E-15 kpt; spin; max resid(k); each band:
  8.06E-16 3.76E-15 3.85E-15 1.62E-15
   0.5000  0.5000  0.2500    1  1.06054E-14 kpt; spin; max resid(k); each band:
  1.06E-14 3.06E-15 6.38E-15 2.00E-15
  -0.2500  0.5000  0.5000    1  8.26160E-15 kpt; spin; max resid(k); each band:
  8.26E-15 2.68E-15 6.38E-15 1.37E-15
   0.0000 -0.2500  0.0000    1  4.05460E-15 kpt; spin; max resid(k); each band:
  4.33E-16 4.05E-15 3.41E-16 2.48E-15
  -0.2500 -0.2500 -0.2500    1  3.65249E-15 kpt; spin; max resid(k); each band:
  5.38E-16 3.65E-15 1.96E-15 1.68E-15
   0.0000  0.5000  0.2500    1  5.79465E-15 kpt; spin; max resid(k); each band:
  5.79E-15 3.19E-15 3.04E-15 4.85E-15

 Thirteen components of 2nd-order total energy (hartree) are
 1,2,3: 0th-order hamiltonian combined with 1st-order wavefunctions
     kin0=   9.62429118E+01 eigvalue=  -9.66615126E-01  local=  -5.13232964E+01
 4,5,6: 1st-order hamiltonian combined with 1st and 0th-order wfs
 loc psp =  -1.32083853E+02  Hartree=   3.55833096E+01     xc=  -1.08128250E+01
 note that "loc psp" includes a xc core correction that could be resolved
 7,8,9: eventually, occupation + non-local contributions
    edocc=   0.00000000E+00     enl0=   1.00844739E+01   enl1=  -2.55320645E+01
 1-9 gives the relaxation energy (to be shifted if some occ is /=2.0)
   erelax=  -7.88079583E+01
 10,11,12 Non-relaxation  contributions : frozen-wavefunctions and Ewald
 fr.local=   5.68055309E+01 fr.nonlo=   1.27661511E+01  Ewald=   1.18366073E+01
 13,14 Frozen wf xc core corrections (1) and (2)
 frxc 1  =  -1.87559986E+01  frxc 2 =   2.15055944E+01
 Resulting in :
 2DEtotal=    0.5349926855E+01 Ha. Also 2DEtotal=    0.145578913285E+03 eV
    (2DErelax=   -7.8807958295E+01 Ha. 2DEnonrelax=    8.4157885150E+01 Ha)
    (  non-var. 2DEtotal :    5.3499266316E+00 Ha)


--------------------------------------------------------------------------------
 Perturbation wavevector (in red.coord.)   0.000000  0.000000  0.000000
 Perturbation : homogeneous electric field along direction   1
 The set of symmetries contains only one element for this perturbation.
 symkpt : not enough symmetry to change the number of k points.

--------------------------------------------------------------------------------

-inwffil : will read wavefunctions from disk file t75o_DS2_WFK
P newkpt: treating      4 bands with npw=      74 for ikpt=   1 by node    0
P newkpt: treating      4 bands with npw=      74 for ikpt=   2 by node    0
P newkpt: treating      4 bands with npw=      74 for ikpt=   3 by node    0
P newkpt: treating      4 bands with npw=      68 for ikpt=   4 by node    0
P newkpt: treating      4 bands with npw=      74 for ikpt=   5 by node    0
P newkpt: treating      4 bands with npw=      74 for ikpt=   6 by node    0
P newkpt: treating      4 bands with npw=      74 for ikpt=   7 by node    0
P newkpt: treating      4 bands with npw=      68 for ikpt=   8 by node    0
P newkpt: treating      4 bands with npw=      74 for ikpt=   9 by node    0
P newkpt: treating      4 bands with npw=      74 for ikpt=  10 by node    0
P newkpt: treating      4 bands with npw=      68 for ikpt=  11 by node    0
P newkpt: treating      4 bands with npw=      74 for ikpt=  12 by node    0
P newkpt: treating      4 bands with npw=      74 for ikpt=  13 by node    0
P newkpt: treating      4 bands with npw=      74 for ikpt=  14 by node    0
P newkpt: treating      4 bands with npw=      74 for ikpt=  15 by node    0
P newkpt: treating      4 bands with npw=      68 for ikpt=  16 by node    0

--------------------------------------------------------------------------------

-inwffil : will read wavefunctions from disk file t75o_DS2_WFK
P newkpt: treating      4 bands with npw=      74 for ikpt=   1 by node    0
P newkpt: treating      4 bands with npw=      74 for ikpt=   2 by node    0
P newkpt: treating      4 bands with npw=      74 for ikpt=   3 by node    0
P newkpt: treating      4 bands with npw=      68 for ikpt=   4 by node    0
P newkpt: treating      4 bands with npw=      74 for ikpt=   5 by node    0
P newkpt: treating      4 bands with npw=      74 for ikpt=   6 by node    0
P newkpt: treating      4 bands with npw=      74 for ikpt=   7 by node    0
P newkpt: treating      4 bands with npw=      68 for ikpt=   8 by node    0
P newkpt: treating      4 bands with npw=      74 for ikpt=   9 by node    0
P newkpt: treating      4 bands with npw=      74 for ikpt=  10 by node    0
P newkpt: treating      4 bands with npw=      68 for ikpt=  11 by node    0
P newkpt: treating      4 bands with npw=      74 for ikpt=  12 by node    0
P newkpt: treating      4 bands with npw=      74 for ikpt=  13 by node    0
P newkpt: treating      4 bands with npw=      74 for ikpt=  14 by node    0
P newkpt: treating      4 bands with npw=      74 for ikpt=  15 by node    0
P newkpt: treating      4 bands with npw=      68 for ikpt=  16 by node    0

 Initialisation of the first-order wave-functions :
  ireadwf=   0
P newkpt: treating      4 bands with npw=      74 for ikpt=   1 by node    0
P newkpt: treating      4 bands with npw=      74 for ikpt=   2 by node    0
P newkpt: treating      4 bands with npw=      74 for ikpt=   3 by node    0
P newkpt: treating      4 bands with npw=      68 for ikpt=   4 by node    0
P newkpt: treating      4 bands with npw=      74 for ikpt=   5 by node    0
P newkpt: treating      4 bands with npw=      74 for ikpt=   6 by node    0
P newkpt: treating      4 bands with npw=      74 for ikpt=   7 by node    0
P newkpt: treating      4 bands with npw=      68 for ikpt=   8 by node    0
P newkpt: treating      4 bands with npw=      74 for ikpt=   9 by node    0
P newkpt: treating      4 bands with npw=      74 for ikpt=  10 by node    0
P newkpt: treating      4 bands with npw=      68 for ikpt=  11 by node    0
P newkpt: treating      4 bands with npw=      74 for ikpt=  12 by node    0
P newkpt: treating      4 bands with npw=      74 for ikpt=  13 by node    0
P newkpt: treating      4 bands with npw=      74 for ikpt=  14 by node    0
P newkpt: treating      4 bands with npw=      74 for ikpt=  15 by node    0
P newkpt: treating      4 bands with npw=      68 for ikpt=  16 by node    0

-loper3 : read the ddk wavefunctions from file: t75o_DS2_1WF7

     iter   2DEtotal(Ha)        deltaE(Ha) residm    vres2
-ETOT  1  -131.18653299138     -1.312E+02 1.638E-01 1.343E+03
 ETOT  2  -143.44832306815     -1.226E+01 6.278E-03 2.510E+01
 ETOT  3  -143.64196535968     -1.936E-01 6.208E-05 8.495E+00
 ETOT  4  -143.72156094571     -7.960E-02 9.351E-05 5.493E-01
 ETOT  5  -143.72483537519     -3.274E-03 1.291E-06 1.398E-02
 ETOT  6  -143.72489958911     -6.421E-05 3.772E-08 4.599E-04
 ETOT  7  -143.72490215683     -2.568E-06 1.687E-09 4.547E-05
 ETOT  8  -143.72490240765     -2.508E-07 1.390E-10 3.700E-06
 ETOT  9  -143.72490242884     -2.119E-08 1.263E-11 3.625E-07
 ETOT 10  -143.72490243098     -2.141E-09 1.669E-12 3.550E-08
 ETOT 11  -143.72490243121     -2.221E-10 1.275E-13 3.468E-09
-open ddk wf file :t75o_DS2_1WF7
-open ddk wf file :t75o_DS2_1WF8
-open ddk wf file :t75o_DS2_1WF9

 scprqt:  WARNING -
  nstep=   11 was not enough SCF cycles to converge;
  maximum energy difference=  2.221E-10 exceeds toldfe=  1.000E-16

================================================================================

 ----iterations are completed or convergence reached----

 Mean square residual over all n,k,spin=   5.7830E-14; max=  1.2751E-13
  -0.2500  0.5000  0.0000    1  1.00832E-13 kpt; spin; max resid(k); each band:
  1.01E-13 5.60E-15 5.48E-14 2.82E-14
   0.5000 -0.2500  0.0000    1  9.92346E-14 kpt; spin; max resid(k); each band:
  9.05E-14 7.98E-14 9.92E-14 2.91E-14
  -0.2500 -0.2500  0.2500    1  1.26877E-13 kpt; spin; max resid(k); each band:
  1.27E-13 7.62E-14 5.34E-14 4.10E-14
  -0.2500  0.0000  0.0000    1  5.49259E-14 kpt; spin; max resid(k); each band:
  9.03E-15 5.49E-14 6.32E-15 6.31E-15
  -0.2500  0.2500  0.2500    1  9.92697E-14 kpt; spin; max resid(k); each band:
  9.05E-14 7.98E-14 9.93E-14 2.91E-14
   0.5000  0.5000  0.2500    1  1.27496E-13 kpt; spin; max resid(k); each band:
  1.27E-13 7.62E-14 5.33E-14 4.10E-14
  -0.2500  0.5000  0.5000    1  1.01054E-13 kpt; spin; max resid(k); each band:
  1.01E-13 5.60E-15 5.48E-14 2.82E-14
   0.0000 -0.2500  0.0000    1  9.93318E-14 kpt; spin; max resid(k); each band:
  9.83E-15 9.93E-14 6.13E-15 9.41E-15
   0.2500 -0.2500  0.2500    1  1.27148E-13 kpt; spin; max resid(k); each band:
  1.27E-13 7.62E-14 5.34E-14 4.10E-14
   0.5000 -0.2500  0.5000    1  1.27512E-13 kpt; spin; max resid(k); each band:
  1.28E-13 7.62E-14 5.33E-14 4.10E-14
  -0.2500 -0.2500 -0.2500    1  9.96293E-14 kpt; spin; max resid(k); each band:
  9.85E-15 9.96E-14 6.12E-15 9.39E-15
   0.5000  0.0000  0.2500    1  9.91932E-14 kpt; spin; max resid(k); each band:
  9.06E-14 7.97E-14 9.92E-14 2.91E-14
  -0.2500  0.0000  0.5000    1  1.00708E-13 kpt; spin; max resid(k); each band:
  1.01E-13 5.60E-15 5.48E-14 2.82E-14
   0.0000  0.5000  0.2500    1  1.27110E-13 kpt; spin; max resid(k); each band:
  1.27E-13 7.62E-14 5.33E-14 4.09E-14
   0.0000 -0.2500  0.5000    1  1.26857E-13 kpt; spin; max resid(k); each band:
  1.27E-13 7.62E-14 5.33E-14 4.09E-14
   0.0000  0.0000  0.2500    1  9.91485E-14 kpt; spin; max resid(k); each band:
  9.82E-15 9.91E-14 6.51E-15 9.13E-15

 Seven components of 2nd-order total energy (hartree) are
 1,2,3: 0th-order hamiltonian combined with 1st-order wavefunctions
     kin0=   3.10530195E+02 eigvalue=  -6.53386234E+00  local=  -2.50968106E+02
 4,5,6: 1st-order hamiltonian combined with 1st and 0th-order wfs
    dotwf=  -2.87449817E+02  Hartree=   3.03837879E+01     xc=  -1.60435947E+01
 7,8,9: eventually, occupation + non-local contributions
    edocc=   0.00000000E+00     enl0=   7.63564949E+01   enl1=   0.00000000E+00
 1-9 gives the relaxation energy (to be shifted if some occ is /=2.0)
   erelax=  -1.43724902E+02
  No Ewald or frozen-wf contrib.: the relaxation energy is the total one
 2DEtotal=   -0.1437249024E+03 Ha. Also 2DEtotal=   -0.391095349030E+04 eV
    (  non-var. 2DEtotal :   -1.4372490864E+02 Ha)

--------------------------------------------------------------------------------
 Perturbation wavevector (in red.coord.)   0.000000  0.000000  0.000000
 Found     8 symmetries that leave the perturbation invariant.
 symkpt : the number of k-points, thanks to the symmetries,
 is reduced to     3 .

--------------------------------------------------------------------------------

-inwffil : will read wavefunctions from disk file t75o_DS2_WFK
- newkpt: read input wf with ikpt,npw=   1      74, make ikpt,npw=   1      74
- newkpt: read input wf with ikpt,npw=   4      68, make ikpt,npw=   2      68
- newkpt: read input wf with ikpt,npw=   5      74, make ikpt,npw=   3      74

--------------------------------------------------------------------------------

-inwffil : will read wavefunctions from disk file t75o_DS2_WFK
- newkpt: read input wf with ikpt,npw=   1      74, make ikpt,npw=   1      74
- newkpt: read input wf with ikpt,npw=   4      68, make ikpt,npw=   2      68
- newkpt: read input wf with ikpt,npw=   5      74, make ikpt,npw=   3      74

 Initialisation of the first-order wave-functions :
  ireadwf=   0
P newkpt: treating      4 bands with npw=      74 for ikpt=   1 by node    0
P newkpt: treating      4 bands with npw=      68 for ikpt=   2 by node    0
P newkpt: treating      4 bands with npw=      74 for ikpt=   3 by node    0


     iter   2DEtotal(Ha)        deltaE(Ha) residm    vres2
-ETOT  1   2.1821283623137     -3.470E+00 4.948E-03 8.291E+01
 ETOT  2   1.4977904867448     -6.843E-01 6.274E-04 7.429E+00
 ETOT  3   1.4513750876903     -4.642E-02 2.323E-05 2.703E+00
 ETOT  4   1.4354114040410     -1.596E-02 1.061E-05 1.111E-01
 ETOT  5   1.4347718376123     -6.396E-04 1.719E-07 2.526E-03
 ETOT  6   1.4347622147016     -9.623E-06 3.288E-09 4.911E-05
 ETOT  7   1.4347620049184     -2.098E-07 1.744E-10 5.598E-06
 ETOT  8   1.4347619723382     -3.258E-08 2.088E-11 4.271E-07
 ETOT  9   1.4347619700148     -2.323E-09 2.229E-12 5.379E-08
 ETOT 10   1.4347619698041     -2.107E-10 1.082E-13 4.648E-08
 ETOT 11   1.4347619696557     -1.484E-10 3.231E-14 5.169E-09
-open ddk wf file :t75o_DS2_1WF7
-open ddk wf file :t75o_DS2_1WF8
-open ddk wf file :t75o_DS2_1WF9

 scprqt:  WARNING -
  nstep=   11 was not enough SCF cycles to converge;
  maximum energy difference=  1.484E-10 exceeds toldfe=  1.000E-16

================================================================================

 ----iterations are completed or convergence reached----

 Mean square residual over all n,k,spin=   1.3951E-14; max=  3.2314E-14
  -0.2500  0.5000  0.0000    1  3.14517E-14 kpt; spin; max resid(k); each band:
  3.70E-15 1.08E-14 3.15E-14 7.58E-15
  -0.2500  0.0000  0.0000    1  3.06474E-14 kpt; spin; max resid(k); each band:
  5.48E-15 3.06E-14 1.22E-14 1.20E-14
  -0.2500  0.2500  0.2500    1  3.23145E-14 kpt; spin; max resid(k); each band:
  3.84E-15 1.04E-14 3.23E-14 6.94E-15

 Seventeen components of 2nd-order total energy (hartree) are
 1,2,3: 0th-order hamiltonian combined with 1st-order wavefunctions
     kin0=   5.05985374E+00 eigvalue=   2.87958002E-01  local=  -2.60621354E+00
 4,5,6,7: 1st-order hamiltonian combined with 1st and 0th-order wfs
 loc psp =  -1.88527404E+00  Hartree=   8.97316171E-01     xc=  -3.46265358E-01
     kin1=  -4.85340971E+00
 8,9,10: eventually, occupation + non-local contributions
    edocc=   0.00000000E+00     enl0=   7.92505775E-01   enl1=  -1.56428034E+00
 1-10 gives the relaxation energy (to be shifted if some occ is /=2.0)
   erelax=  -4.21780929E+00
 11,12,13 Non-relaxation  contributions : frozen-wavefunctions and Ewald
  fr.hart=  -4.47252920E-01   fr.kin=   3.90321093E+00 fr.loc=   3.95299053E+00
 14,15,16 Non-relaxation  contributions : frozen-wavefunctions and Ewald
  fr.nonl=   1.03478789E+00    fr.xc=  -2.82960021E-01  Ewald=  -3.24168127E+00
 17 Non-relaxation  contributions : pseudopotential core energy
  pspcore=   7.33476114E-01
 Resulting in :
 2DEtotal=    0.1434761970E+01 Ha. Also 2DEtotal=    0.390418587040E+02 eV
    (2DErelax=   -4.2178092934E+00 Ha. 2DEnonrelax=    5.6525712630E+00 Ha)
    (  non-var. 2DEtotal :    1.4347599375E+00 Ha)


--------------------------------------------------------------------------------
 Perturbation wavevector (in red.coord.)   0.000000  0.000000  0.000000
 Found     8 symmetries that leave the perturbation invariant.
 symkpt : the number of k-points, thanks to the symmetries,
 is reduced to     3 .

--------------------------------------------------------------------------------

-inwffil : will read wavefunctions from disk file t75o_DS2_WFK
- newkpt: read input wf with ikpt,npw=   1      74, make ikpt,npw=   1      74
- newkpt: read input wf with ikpt,npw=   4      68, make ikpt,npw=   2      68
- newkpt: read input wf with ikpt,npw=   9      74, make ikpt,npw=   3      74

--------------------------------------------------------------------------------

-inwffil : will read wavefunctions from disk file t75o_DS2_WFK
- newkpt: read input wf with ikpt,npw=   1      74, make ikpt,npw=   1      74
- newkpt: read input wf with ikpt,npw=   4      68, make ikpt,npw=   2      68
- newkpt: read input wf with ikpt,npw=   9      74, make ikpt,npw=   3      74

 Initialisation of the first-order wave-functions :
  ireadwf=   0
P newkpt: treating      4 bands with npw=      74 for ikpt=   1 by node    0
P newkpt: treating      4 bands with npw=      68 for ikpt=   2 by node    0
P newkpt: treating      4 bands with npw=      74 for ikpt=   3 by node    0


     iter   2DEtotal(Ha)        deltaE(Ha) residm    vres2
-ETOT  1   2.1813097918838     -3.471E+00 4.948E-03 8.287E+01
 ETOT  2   1.4736726189327     -7.076E-01 5.491E-04 4.908E+00
 ETOT  3   1.4513264155056     -2.235E-02 1.045E-05 2.697E+00
 ETOT  4   1.4355297043501     -1.580E-02 9.256E-06 1.432E-01
 ETOT  5   1.4347735971519     -7.561E-04 1.809E-07 3.188E-03
 ETOT  6   1.4347621484362     -1.145E-05 3.864E-09 4.358E-05
 ETOT  7   1.4347619940769     -1.544E-07 8.481E-11 5.389E-06
 ETOT  8   1.4347619713578     -2.272E-08 6.757E-12 4.720E-07
 ETOT  9   1.4347619698675     -1.490E-09 6.060E-13 5.874E-08
 ETOT 10   1.4347619698431     -2.439E-11 1.305E-14 3.978E-08
 ETOT 11   1.4347619696485     -1.946E-10 9.049E-14 3.128E-09
-open ddk wf file :t75o_DS2_1WF7
-open ddk wf file :t75o_DS2_1WF8
-open ddk wf file :t75o_DS2_1WF9

 scprqt:  WARNING -
  nstep=   11 was not enough SCF cycles to converge;
  maximum energy difference=  1.946E-10 exceeds toldfe=  1.000E-16

================================================================================

 ----iterations are completed or convergence reached----

 Mean square residual over all n,k,spin=   5.1702E-14; max=  9.0490E-14
  -0.2500  0.5000  0.0000    1  7.70231E-14 kpt; spin; max resid(k); each band:
  6.15E-14 7.70E-14 6.41E-14 2.38E-14
  -0.2500  0.0000  0.0000    1  9.04905E-14 kpt; spin; max resid(k); each band:
  9.05E-14 6.68E-14 4.28E-15 4.27E-15
   0.2500 -0.2500  0.2500    1  7.71575E-14 kpt; spin; max resid(k); each band:
  6.27E-14 7.72E-14 6.50E-14 2.34E-14

 Seventeen components of 2nd-order total energy (hartree) are
 1,2,3: 0th-order hamiltonian combined with 1st-order wavefunctions
     kin0=   5.05984995E+00 eigvalue=   2.87957509E-01  local=  -2.60621204E+00
 4,5,6,7: 1st-order hamiltonian combined with 1st and 0th-order wfs
 loc psp =  -1.88527255E+00  Hartree=   8.97314982E-01     xc=  -3.46264816E-01
     kin1=  -4.85340684E+00
 8,9,10: eventually, occupation + non-local contributions
    edocc=   0.00000000E+00     enl0=   7.92505824E-01   enl1=  -1.56428131E+00
 1-10 gives the relaxation energy (to be shifted if some occ is /=2.0)
   erelax=  -4.21780929E+00
 11,12,13 Non-relaxation  contributions : frozen-wavefunctions and Ewald
  fr.hart=  -4.47252920E-01   fr.kin=   3.90321093E+00 fr.loc=   3.95299053E+00
 14,15,16 Non-relaxation  contributions : frozen-wavefunctions and Ewald
  fr.nonl=   1.03478789E+00    fr.xc=  -2.82960021E-01  Ewald=  -3.24168127E+00
 17 Non-relaxation  contributions : pseudopotential core energy
  pspcore=   7.33476114E-01
 Resulting in :
 2DEtotal=    0.1434761970E+01 Ha. Also 2DEtotal=    0.390418587038E+02 eV
    (2DErelax=   -4.2178092934E+00 Ha. 2DEnonrelax=    5.6525712630E+00 Ha)
    (  non-var. 2DEtotal :    1.4347624357E+00 Ha)


--------------------------------------------------------------------------------
 Perturbation wavevector (in red.coord.)   0.000000  0.000000  0.000000
 Found     8 symmetries that leave the perturbation invariant.
 symkpt : the number of k-points, thanks to the symmetries,
 is reduced to     3 .

--------------------------------------------------------------------------------

-inwffil : will read wavefunctions from disk file t75o_DS2_WFK
- newkpt: read input wf with ikpt,npw=   1      74, make ikpt,npw=   1      74
- newkpt: read input wf with ikpt,npw=   4      68, make ikpt,npw=   2      68
- newkpt: read input wf with ikpt,npw=   5      74, make ikpt,npw=   3      74

--------------------------------------------------------------------------------

-inwffil : will read wavefunctions from disk file t75o_DS2_WFK
- newkpt: read input wf with ikpt,npw=   1      74, make ikpt,npw=   1      74
- newkpt: read input wf with ikpt,npw=   4      68, make ikpt,npw=   2      68
- newkpt: read input wf with ikpt,npw=   5      74, make ikpt,npw=   3      74

 Initialisation of the first-order wave-functions :
  ireadwf=   0
P newkpt: treating      4 bands with npw=      74 for ikpt=   1 by node    0
P newkpt: treating      4 bands with npw=      68 for ikpt=   2 by node    0
P newkpt: treating      4 bands with npw=      74 for ikpt=   3 by node    0


     iter   2DEtotal(Ha)        deltaE(Ha) residm    vres2
-ETOT  1   2.1803318516711     -3.472E+00 4.948E-03 8.283E+01
 ETOT  2   1.4853712437951     -6.950E-01 5.900E-04 6.127E+00
 ETOT  3   1.4512810953961     -3.409E-02 1.662E-05 2.692E+00
 ETOT  4   1.4354490145986     -1.583E-02 9.934E-06 1.234E-01
 ETOT  5   1.4347725004937     -6.765E-04 1.756E-07 2.803E-03
 ETOT  6   1.4347621882059     -1.031E-05 3.495E-09 4.695E-05
 ETOT  7   1.4347619992656     -1.889E-07 1.295E-10 5.408E-06
 ETOT  8   1.4347619715599     -2.771E-08 1.263E-11 4.034E-07
 ETOT  9   1.4347619698815     -1.678E-09 9.728E-13 4.793E-08
 ETOT 10   1.4347619696440     -2.375E-10 9.874E-14 3.714E-09
 ETOT 11   1.4347619696298     -1.423E-11 7.588E-15 4.680E-10
-open ddk wf file :t75o_DS2_1WF7
-open ddk wf file :t75o_DS2_1WF8
-open ddk wf file :t75o_DS2_1WF9

 scprqt:  WARNING -
  nstep=   11 was not enough SCF cycles to converge;
  maximum energy difference=  1.423E-11 exceeds toldfe=  1.000E-16

================================================================================

 ----iterations are completed or convergence reached----

 Mean square residual over all n,k,spin=   3.6293E-15; max=  7.5884E-15
  -0.2500  0.5000  0.0000    1  7.17046E-15 kpt; spin; max resid(k); each band:
  2.89E-15 7.17E-15 2.52E-15 1.40E-15
  -0.2500  0.0000  0.0000    1  7.58841E-15 kpt; spin; max resid(k); each band:
  7.32E-15 7.59E-15 2.15E-16 2.18E-16
  -0.2500  0.2500  0.2500    1  7.24645E-15 kpt; spin; max resid(k); each band:
  3.06E-15 7.25E-15 2.55E-15 1.38E-15

 Seventeen components of 2nd-order total energy (hartree) are
 1,2,3: 0th-order hamiltonian combined with 1st-order wavefunctions
     kin0=   5.05985237E+00 eigvalue=   2.87957855E-01  local=  -2.60621196E+00
 4,5,6,7: 1st-order hamiltonian combined with 1st and 0th-order wfs
 loc psp =  -1.88527755E+00  Hartree=   8.97316072E-01     xc=  -3.46264979E-01
     kin1=  -4.85340814E+00
 8,9,10: eventually, occupation + non-local contributions
    edocc=   0.00000000E+00     enl0=   7.92504549E-01   enl1=  -1.56427751E+00
 1-10 gives the relaxation energy (to be shifted if some occ is /=2.0)
   erelax=  -4.21780929E+00
 11,12,13 Non-relaxation  contributions : frozen-wavefunctions and Ewald
  fr.hart=  -4.47252920E-01   fr.kin=   3.90321093E+00 fr.loc=   3.95299053E+00
 14,15,16 Non-relaxation  contributions : frozen-wavefunctions and Ewald
  fr.nonl=   1.03478789E+00    fr.xc=  -2.82960021E-01  Ewald=  -3.24168127E+00
 17 Non-relaxation  contributions : pseudopotential core energy
  pspcore=   7.33476114E-01
 Resulting in :
 2DEtotal=    0.1434761970E+01 Ha. Also 2DEtotal=    0.390418587033E+02 eV
    (2DErelax=   -4.2178092934E+00 Ha. 2DEnonrelax=    5.6525712630E+00 Ha)
    (  non-var. 2DEtotal :    1.4347607340E+00 Ha)


--------------------------------------------------------------------------------
 Perturbation wavevector (in red.coord.)   0.000000  0.000000  0.000000
 Found     4 symmetries that leave the perturbation invariant.
 symkpt : the number of k-points, thanks to the symmetries,
 is reduced to     6 .

--------------------------------------------------------------------------------

-inwffil : will read wavefunctions from disk file t75o_DS2_WFK
- newkpt: read input wf with ikpt,npw=   1      74, make ikpt,npw=   1      74
- newkpt: read input wf with ikpt,npw=   2      74, make ikpt,npw=   2      74
- newkpt: read input wf with ikpt,npw=   4      68, make ikpt,npw=   3      68
- newkpt: read input wf with ikpt,npw=   5      74, make ikpt,npw=   4      74
- newkpt: read input wf with ikpt,npw=   8      68, make ikpt,npw=   5      68
- newkpt: read input wf with ikpt,npw=  14      74, make ikpt,npw=   6      74

--------------------------------------------------------------------------------

-inwffil : will read wavefunctions from disk file t75o_DS2_WFK
- newkpt: read input wf with ikpt,npw=   1      74, make ikpt,npw=   1      74
- newkpt: read input wf with ikpt,npw=   2      74, make ikpt,npw=   2      74
- newkpt: read input wf with ikpt,npw=   4      68, make ikpt,npw=   3      68
- newkpt: read input wf with ikpt,npw=   5      74, make ikpt,npw=   4      74
- newkpt: read input wf with ikpt,npw=   8      68, make ikpt,npw=   5      68
- newkpt: read input wf with ikpt,npw=  14      74, make ikpt,npw=   6      74

 Initialisation of the first-order wave-functions :
  ireadwf=   0
[...]
  
   1    4   2    2         0.0000000000         0.0000000000
   2    4   2    2        -2.2484040112         0.0000000000
   3    4   2    2         0.0000000000         0.0000000000
  
   1    4   3    2         0.0000000000         0.0000000000
   2    4   3    2         0.0000000000         0.0000000000
   3    4   3    2        -2.2484040112         0.0000000000
  
  
  
  
  Rigid-atom elastic tensor , in cartesian coordinates,
     j1       j2             matrix element
  dir pert dir pert     real part    imaginary part
  
   1    5   1    5         0.0047961345         0.0000000000
   1    5   2    5         0.0021679273         0.0000000000
   1    5   3    5         0.0021679219         0.0000000000
   1    5   1    6         0.0000000002         0.0000000000
   1    5   2    6        -0.0000000002         0.0000000000
   1    5   3    6         0.0000000003         0.0000000000
  
   2    5   1    5         0.0021679189         0.0000000000
   2    5   2    5         0.0047961429         0.0000000000
   2    5   3    5         0.0021679219         0.0000000000
   2    5   1    6         0.0000000002         0.0000000000
   2    5   2    6        -0.0000000002         0.0000000000
   2    5   3    6         0.0000000003         0.0000000000
  
   3    5   1    5         0.0021679189         0.0000000000
   3    5   2    5         0.0021679273         0.0000000000
   3    5   3    5         0.0047961372         0.0000000000
   3    5   1    6         0.0000000002         0.0000000000
   3    5   2    6        -0.0000000002         0.0000000000
   3    5   3    6         0.0000000003         0.0000000000
  
   1    6   1    5        -0.0000000000         0.0000000000
   1    6   2    5        -0.0000000000         0.0000000000
   1    6   3    5        -0.0000000000         0.0000000000
   1    6   1    6         0.0030446915         0.0000000000
   1    6   2    6         0.0000000000         0.0000000000
   1    6   3    6        -0.0000000000         0.0000000000
  
   2    6   1    5         0.0000000000         0.0000000000
   2    6   2    5        -0.0000000000         0.0000000000
   2    6   3    5        -0.0000000000         0.0000000000
   2    6   1    6         0.0000000000         0.0000000000
   2    6   2    6         0.0030446921         0.0000000000
   2    6   3    6        -0.0000000000         0.0000000000
  
   3    6   1    5         0.0000000000         0.0000000000
   3    6   2    5         0.0000000000         0.0000000000
   3    6   3    5         0.0000000000         0.0000000000
   3    6   1    6        -0.0000000000         0.0000000000
   3    6   2    6        -0.0000000000         0.0000000000
   3    6   3    6         0.0030446922         0.0000000000
  
  Internal strain coupling parameters, in cartesian coordinates,
   zero average net force deriv. has been imposed  
     j1       j2             matrix element
  dir pert dir pert     real part    imaginary part
  
   1    1   1    5         0.0000000000         0.0000000000
   1    1   2    5         0.0000000000         0.0000000000
   1    1   3    5         0.0000000000         0.0000000000
   1    1   1    6         0.1559691794         0.0000000000
   1    1   2    6         0.0000000000         0.0000000000
   1    1   3    6         0.0000000000         0.0000000000
  
   2    1   1    5         0.0000000000         0.0000000000
   2    1   2    5         0.0000000000         0.0000000000
   2    1   3    5         0.0000000000         0.0000000000
   2    1   1    6         0.0000000000         0.0000000000
   2    1   2    6         0.1559692354         0.0000000000
   2    1   3    6        -0.0000000000         0.0000000000
  
   3    1   1    5        -0.0000000000         0.0000000000
   3    1   2    5        -0.0000000000         0.0000000000
   3    1   3    5        -0.0000000000         0.0000000000
   3    1   1    6         0.0000000000         0.0000000000
   3    1   2    6        -0.0000000000         0.0000000000
   3    1   3    6         0.1559692155         0.0000000000
  
   1    2   1    5        -0.0000000000         0.0000000000
   1    2   2    5        -0.0000000000         0.0000000000
   1    2   3    5        -0.0000000000         0.0000000000
   1    2   1    6        -0.1559691794         0.0000000000
   1    2   2    6        -0.0000000000         0.0000000000
   1    2   3    6        -0.0000000000         0.0000000000
  
   2    2   1    5        -0.0000000000         0.0000000000
   2    2   2    5        -0.0000000000         0.0000000000
   2    2   3    5        -0.0000000000         0.0000000000
   2    2   1    6        -0.0000000000         0.0000000000
   2    2   2    6        -0.1559692354         0.0000000000
   2    2   3    6         0.0000000000         0.0000000000
  
   3    2   1    5         0.0000000000         0.0000000000
   3    2   2    5         0.0000000000         0.0000000000
   3    2   3    5         0.0000000000         0.0000000000
   3    2   1    6        -0.0000000000         0.0000000000
   3    2   2    6         0.0000000000         0.0000000000
   3    2   3    6        -0.1559692155         0.0000000000
  
  Rigid-atom proper piezoelectric tensor, in cartesian coordinates,
     j1       j2             matrix element
  dir pert dir pert     real part    imaginary part
  
   1    4   1    5        -0.0000000000         0.0000000000
   1    4   2    5         0.0000000000         0.0000000000
   1    4   3    5        -0.0000000000         0.0000000000
   1    4   1    6        -0.0116092161         0.0000000000
   1    4   2    6         0.0000000000         0.0000000000
   1    4   3    6         0.0000000000         0.0000000000
  
   2    4   1    5        -0.0000000000         0.0000000000
   2    4   2    5         0.0000000000         0.0000000000
   2    4   3    5         0.0000000000         0.0000000000
   2    4   1    6         0.0000000000         0.0000000000
   2    4   2    6        -0.0116092136         0.0000000000
   2    4   3    6         0.0000000000         0.0000000000
  
   3    4   1    5        -0.0000000000         0.0000000000
   3    4   2    5         0.0000000000         0.0000000000
   3    4   3    5        -0.0000000000         0.0000000000
   3    4   1    6         0.0000000000         0.0000000000
   3    4   2    6         0.0000000000         0.0000000000
   3    4   3    6        -0.0116092142         0.0000000000
 
  Phonon wavevector (reduced coordinates) :  0.00000  0.00000  0.00000
 Phonon energies in Hartree :
   3.077309E-06  3.077309E-06  3.077310E-06  1.620249E-03  1.620249E-03
   1.620249E-03
 Phonon frequencies in cm-1    :
-  6.753912E-01  6.753913E-01  6.753915E-01  3.556036E+02  3.556036E+02
-  3.556036E+02
 
  Phonon at Gamma, with non-analyticity in the
  direction (cartesian coordinates)  1.00000  0.00000  0.00000
 Phonon energies in Hartree :
   3.077309E-06  3.077309E-06  3.077310E-06  1.620249E-03  1.620249E-03
   1.869698E-03
 Phonon frequencies in cm-1    :
-  6.753912E-01  6.753913E-01  6.753916E-01  3.556036E+02  3.556036E+02
-  4.103513E+02
 
  Phonon at Gamma, with non-analyticity in the
  direction (cartesian coordinates)  0.00000  1.00000  0.00000
 Phonon energies in Hartree :
   3.077309E-06  3.077310E-06  3.077310E-06  1.620249E-03  1.620249E-03
   1.869698E-03
 Phonon frequencies in cm-1    :
-  6.753912E-01  6.753914E-01  6.753915E-01  3.556036E+02  3.556036E+02
-  4.103513E+02
 
  Phonon at Gamma, with non-analyticity in the
  direction (cartesian coordinates)  0.00000  0.00000  1.00000
 Phonon energies in Hartree :
   3.077309E-06  3.077309E-06  3.077310E-06  1.620249E-03  1.620249E-03
   1.869698E-03
 Phonon frequencies in cm-1    :
-  6.753913E-01  6.753913E-01  6.753915E-01  3.556036E+02  3.556036E+02
-  4.103513E+02

== END DATASET(S) ==============================================================
================================================================================
  
 -outvars: echo values of variables after computation  --------
            acell      1.0616530850E+01  1.0616530850E+01  1.0616530850E+01 Bohr
              amu      2.69815390E+01  7.49215900E+01
         berryopt1          0
         berryopt2         -3
         berryopt3          0
             ecut      3.00000000E+00 Hartree
           etotal1    -1.0094352445E+01
           etotal3     9.1081733886E-01
            fcart1     5.2632680338E-32  5.2632680338E-32 -5.2632680338E-32
                      -5.2632680338E-32 -5.2632680338E-32  5.2632680338E-32
            fcart3     0.0000000000E+00  0.0000000000E+00  0.0000000000E+00
                       0.0000000000E+00  0.0000000000E+00  0.0000000000E+00
-          fftalg         112
           getddk1          0
           getddk2          0
           getddk3          2
           getden1          0
           getden2          1
           getden3          0
           getwfk1          0
           getwfk2          1
           getwfk3          2
             iscf1          5
             iscf2         -2
             iscf3          5
           jdtset        1    2    3
              kpt1    -2.50000000E-01  5.00000000E-01  0.00000000E+00
                      -2.50000000E-01  0.00000000E+00  0.00000000E+00
              kpt2    -2.50000000E-01  5.00000000E-01  0.00000000E+00
                       5.00000000E-01 -2.50000000E-01  0.00000000E+00
                      -2.50000000E-01 -2.50000000E-01  2.50000000E-01
                      -2.50000000E-01  0.00000000E+00  0.00000000E+00
                      -2.50000000E-01  2.50000000E-01  2.50000000E-01
                       5.00000000E-01  5.00000000E-01  2.50000000E-01
                      -2.50000000E-01  5.00000000E-01  5.00000000E-01
                       0.00000000E+00 -2.50000000E-01  0.00000000E+00
                       2.50000000E-01 -2.50000000E-01  2.50000000E-01
                       5.00000000E-01 -2.50000000E-01  5.00000000E-01
                      -2.50000000E-01 -2.50000000E-01 -2.50000000E-01
                       5.00000000E-01  0.00000000E+00  2.50000000E-01
                      -2.50000000E-01  0.00000000E+00  5.00000000E-01
                       0.00000000E+00  5.00000000E-01  2.50000000E-01
                       0.00000000E+00 -2.50000000E-01  5.00000000E-01
                       0.00000000E+00  0.00000000E+00  2.50000000E-01
              kpt3    -2.50000000E-01  5.00000000E-01  0.00000000E+00
                       5.00000000E-01 -2.50000000E-01  0.00000000E+00
                      -2.50000000E-01 -2.50000000E-01  2.50000000E-01
                      -2.50000000E-01  0.00000000E+00  0.00000000E+00
                      -2.50000000E-01  2.50000000E-01  2.50000000E-01
                       5.00000000E-01  5.00000000E-01  2.50000000E-01
                      -2.50000000E-01  5.00000000E-01  5.00000000E-01
                       0.00000000E+00 -2.50000000E-01  0.00000000E+00
                       2.50000000E-01 -2.50000000E-01  2.50000000E-01
                       5.00000000E-01 -2.50000000E-01  5.00000000E-01
                      -2.50000000E-01 -2.50000000E-01 -2.50000000E-01
                       5.00000000E-01  0.00000000E+00  2.50000000E-01
                      -2.50000000E-01  0.00000000E+00  5.00000000E-01
                       0.00000000E+00  5.00000000E-01  2.50000000E-01
                       0.00000000E+00 -2.50000000E-01  5.00000000E-01
                       0.00000000E+00  0.00000000E+00  2.50000000E-01
           kptopt1          1
           kptopt2          2
           kptopt3          2
         kptrlatt        2   -2    2     -2    2    2     -2   -2    2
          kptrlen      2.12330617E+01
P           mkmem1          2
P           mkmem2         16
P           mkmem3         16
P          mkqmem1          2
P          mkqmem2         16
P          mkqmem3         16
P          mk1mem1          2
P          mk1mem2         16
P          mk1mem3         16
            natom           2
            nband1          5
            nband2          4
            nband3          4
           ndtset           3
            ngfft          12      12      12
             nkpt1          2
             nkpt2         16
             nkpt3         16
            nstep1        100
            nstep2        100
            nstep3         11
             nsym          24
           ntypat           2
              occ1     2.000000  2.000000  2.000000  2.000000  0.000000
              occ3     2.000000  2.000000  2.000000  2.000000
        optdriver1          0
        optdriver2          0
        optdriver3          1
          rfatpol1          1       1
          rfatpol2          1       1
          rfatpol3          1       2
            rfdir1          0       0       0
            rfdir2          1       1       1
            rfdir3          1       1       1
           rfelfd1          0
           rfelfd2          0
           rfelfd3          3
           rfphon1          0
           rfphon2          0
           rfphon3          1
           rfstrs1          0
           rfstrs2          0
           rfstrs3          3
            rprim      0.0000000000E+00  5.0000000000E-01  5.0000000000E-01
                       5.0000000000E-01  0.0000000000E+00  5.0000000000E-01
                       5.0000000000E-01  5.0000000000E-01  0.0000000000E+00
           shiftk      5.00000000E-01  5.00000000E-01  5.00000000E-01
          spgroup         216
           strten1     2.5033117286E-04  2.5033117286E-04  2.5033117286E-04
                       0.0000000000E+00  0.0000000000E+00  0.0000000000E+00
           strten3     0.0000000000E+00  0.0000000000E+00  0.0000000000E+00
                       0.0000000000E+00  0.0000000000E+00  0.0000000000E+00
           symrel      1  0  0   0  1  0   0  0  1       0 -1  1   0 -1  0   1 -1  0
                      -1  0  0  -1  0  1  -1  1  0       0  1 -1   1  0 -1   0  0 -1
                      -1  0  0  -1  1  0  -1  0  1       0 -1  1   1 -1  0   0 -1  0
                       1  0  0   0  0  1   0  1  0       0  1 -1   0  0 -1   1  0 -1
                      -1  0  1  -1  1  0  -1  0  0       0 -1  0   1 -1  0   0 -1  1
                       1  0 -1   0  0 -1   0  1 -1       0  1  0   0  0  1   1  0  0
                       1  0 -1   0  1 -1   0  0 -1       0 -1  0   0 -1  1   1 -1  0
                      -1  0  1  -1  0  0  -1  1  0       0  1  0   1  0  0   0  0  1
                       0  0 -1   0  1 -1   1  0 -1       1 -1  0   0 -1  1   0 -1  0
                       0  0  1   1  0  0   0  1  0      -1  1  0  -1  0  0  -1  0  1
                       0  0  1   0  1  0   1  0  0       1 -1  0   0 -1  0   0 -1  1
                       0  0 -1   1  0 -1   0  1 -1      -1  1  0  -1  0  1  -1  0  0
           toldfe1     1.00000000E-12 Hartree
           toldfe2     0.00000000E+00 Hartree
           toldfe3     1.00000000E-16 Hartree
           tolwfr1     0.00000000E+00
           tolwfr2     1.00000000E-22
           tolwfr3     0.00000000E+00
            typat      1  2
              wtk1       0.75000    0.25000
              wtk2       0.06250    0.06250    0.06250    0.06250    0.06250    0.06250
                         0.06250    0.06250    0.06250    0.06250    0.06250    0.06250
                         0.06250    0.06250    0.06250    0.06250
              wtk3       0.06250    0.06250    0.06250    0.06250    0.06250    0.06250
                         0.06250    0.06250    0.06250    0.06250    0.06250    0.06250
                         0.06250    0.06250    0.06250    0.06250
           xangst      0.0000000000E+00  0.0000000000E+00  0.0000000000E+00
                       1.4045065400E+00  1.4045065400E+00  1.4045065400E+00
            xcart      0.0000000000E+00  0.0000000000E+00  0.0000000000E+00
                       2.6541327125E+00  2.6541327125E+00  2.6541327125E+00
             xred      0.0000000000E+00  0.0000000000E+00  0.0000000000E+00
                       2.5000000000E-01  2.5000000000E-01  2.5000000000E-01
            znucl       13.00000   33.00000

================================================================================


- Timing analysis has been suppressed with timopt=0



================================================================================

 Suggested references for the acknowledgment of ABINIT usage.

 The users of ABINIT have little formal obligations with respect to the ABINIT group
 (those specified in the GNU General Public License, http://www.gnu.org/copyleft/gpl.txt).
 However, it is common practice in the scientific literature,
 to acknowledge the efforts of people that have made the research possible.
 In this spirit, please find below suggested citations of work written by ABINIT developers,
 corresponding to implementations inside of ABINIT that you have used in the present run.
 Note also that it will be of great value to readers of publications presenting these results,
 to read papers enabling them to understand the theoretical formalism and details
 of the ABINIT implementation.
 For information on why they are suggested, see also http://www.abinit.org/about/?text=acknowledgments.

 [1] Metric tensor formulation of strain in density-functional perturbation theory, 
 D. R. Hamann, X. Wu, K. M. Rabe, and D. Vanderbilt, Phys. Rev. B71, 035117 (2005).
 Comment : Non-vanishing rfstrs. Strong suggestion to cite this paper in your publications.

 [2] First-principles responses of solids to atomic displacements and homogeneous electric fields:,
 implementation of a conjugate-gradient algorithm. X. Gonze, Phys. Rev. B55, 10337 (1997).
 Comment : Non-vanishing rfphon and/or rfelfd, in the norm-conserving case.

 [3] Dynamical matrices, Born effective charges, dielectric permittivity tensors, and ,
 interatomic force constants from density-functional perturbation theory,
 X. Gonze and C. Lee, Phys. Rev. B55, 10355 (1997).
 Comment : Non-vanishing rfphon and/or rfelfd, in the norm-conserving case.

 [4] ABINIT : First-principles approach of materials and nanosystem properties.
 X. Gonze, B. Amadon, P.-M. Anglade, J.-M. Beuken, F. Bottin, P. Boulanger, F. Bruneval,
 D. Caliste, R. Caracas, M. Cote, T. Deutsch, L. Genovese, Ph. Ghosez, M. Giantomassi
 S. Goedecker, D.R. Hamann, P. Hermet, F. Jollet, G. Jomard, S. Leroux, M. Mancini, S. Mazevet,
 M.J.T. Oliveira, G. Onida, Y. Pouillon, T. Rangel, G.-M. Rignanese, D. Sangalli, R. Shaltaf,
 M. Torrent, M.J. Verstraete, G. Zerah, J.W. Zwanziger
 Computer Phys. Comm. 180, 2582-2615 (2009).
 Comment : the third generic paper describing the ABINIT project.
 Note that a version of this paper, that is not formatted for Computer Phys. Comm. 
 is available at http://www.abinit.org/about/ABINIT_CPC_v10.pdf .
 The licence allows the authors to put it on the Web.

 [5] A brief introduction to the ABINIT software package.
 X. Gonze, G.-M. Rignanese, M. Verstraete, J.-M. Beuken, Y. Pouillon, R. Caracas, F. Jollet,
 M. Torrent, G. Zerah, M. Mikami, Ph. Ghosez, M. Veithen, J.-Y. Raty, V. Olevano, F. Bruneval,
 L. Reining, R. Godby, G. Onida, D.R. Hamann, and D.C. Allan.
 Z. Kristallogr. 220, 558-562 (2005).
 Comment : the second generic paper describing the ABINIT project. Note that this paper
 should be cited especially if you are using the GW part of ABINIT, as several authors
 of this part are not in the list of authors of the first or third paper.
 The .pdf of the latter paper is available at http://www.abinit.org/about/zfk_0505-06_558-562.pdf.
 Note that it should not redistributed (Copyright by Oldenburg Wissenshaftverlag,
 the licence allows the authors to put it on the Web).
-
- Proc.   0 individual time (sec): cpu=          1.9  wall=          1.9

================================================================================

 Calculation completed.
.Delivered   43 WARNINGs and   2 COMMENTs to log file.
+Overall time at end (sec) : cpu=          1.9  wall=          1.9
