
.Version 7.9.3 of ABINIT 
.(MPI version, prepared for a x86_64_linux_gnu4.7 computer) 

.Copyright (C) 1998-2014 ABINIT group . 
 ABINIT comes with ABSOLUTELY NO WARRANTY.
 It is free software, and you are welcome to redistribute it
 under certain conditions (GNU General Public License,
 see ~abinit/COPYING or http://www.gnu.org/copyleft/gpl.txt).

 ABINIT is a project of the Universite Catholique de Louvain,
 Corning Inc. and other collaborators, see ~abinit/doc/developers/contributors.txt .
 Please read ~abinit/doc/users/acknowledgments.html for suggested
 acknowledgments of the ABINIT effort.
 For more information, see http://www.abinit.org .

.Starting date : Sat 30 Aug 2014.
- ( at 10h10 )
  
- input  file    -> t08.in
- output file    -> t08_MPI4.out
- root for input  files -> t08_MPI4i
- root for output files -> t08_MPI4o


 DATASET    1 : space group Cm (#  8); Bravais mC (1-face-center monocl.)
================================================================================
 Values of the parameters that define the memory need for DATASET  1.
   intxc =         0  ionmov =         0    iscf =         7 xclevel =         1
  lmnmax =         1   lnmax =         1   mband =         1  mffmem =         1
P  mgfft =        12   mkmem =         5 mpssoang=         1     mpw =        78
  mqgrid =      3001   natom =         2    nfft =      1728    nkpt =        20
  nloalg =         4  nspden =         1 nspinor =         1  nsppol =         1
    nsym =         2  n1xccc =         0  ntypat =         2  occopt =         1
  nimage =         7
================================================================================
P This job should need less than                       0.983 Mbytes of memory.
  Rough estimation (10% accuracy) of disk space for files :
_ WF disk file :      0.026 Mbytes ; DEN or POT disk file :      0.015 Mbytes.
================================================================================


 DATASET    2 : space group Cm (#  8); Bravais mC (1-face-center monocl.)
================================================================================
 Values of the parameters that define the memory need for DATASET  2.
   intxc =         0  ionmov =         0    iscf =         7 xclevel =         1
  lmnmax =         1   lnmax =         1   mband =         1  mffmem =         1
P  mgfft =        12   mkmem =         5 mpssoang=         1     mpw =        78
  mqgrid =      3001   natom =         2    nfft =      1728    nkpt =        20
  nloalg =         4  nspden =         1 nspinor =         1  nsppol =         1
    nsym =         2  n1xccc =         0  ntypat =         2  occopt =         1
  nimage =         7
================================================================================
P This job should need less than                       0.983 Mbytes of memory.
  Rough estimation (10% accuracy) of disk space for files :
_ WF disk file :      0.026 Mbytes ; DEN or POT disk file :      0.015 Mbytes.
================================================================================


 DATASET    3 : space group Cm (#  8); Bravais mC (1-face-center monocl.)
================================================================================
 Values of the parameters that define the memory need for DATASET  3.
   intxc =         0  ionmov =         0    iscf =         7 xclevel =         1
  lmnmax =         1   lnmax =         1   mband =         1  mffmem =         1
P  mgfft =        12   mkmem =         5 mpssoang=         1     mpw =        78
  mqgrid =      3001   natom =         2    nfft =      1728    nkpt =        20
  nloalg =         4  nspden =         1 nspinor =         1  nsppol =         1
    nsym =         2  n1xccc =         0  ntypat =         2  occopt =         1
  nimage =         7
================================================================================
P This job should need less than                       0.983 Mbytes of memory.
  Rough estimation (10% accuracy) of disk space for files :
_ WF disk file :      0.026 Mbytes ; DEN or POT disk file :      0.015 Mbytes.
================================================================================

--------------------------------------------------------------------------------
------------- Echo of variables that govern the present computation ------------
--------------------------------------------------------------------------------
-
- outvars: echo of selected default values                                      
-   accesswff0 =  0 , fftalg0 =112 , wfoptalg0 =  0
-
- outvars: echo of global parameters not present in the input file              
-  max_nthreads =    0
-
 -outvars: echo values of preprocessed input variables --------
            acell      3.0000000000E+00  3.0000000000E+00  3.0000000000E+00 Bohr
              amu      1.00794000E+00  1.00794000E+00
        autoparal           1
      chksymbreak           0
         dynimage        0    1    1    1    1    1    0
             ecut      1.50000000E+01 Hartree
           ecutsm      5.00000000E-01 Hartree
-          fftalg         112
     fxcartfactor      1.00000000E+01
           iatfix        1
           imgmov           2
           jdtset        1    2    3
              kpt      1.25000000E-01  1.25000000E-01  1.25000000E-01
                       3.75000000E-01  1.25000000E-01  1.25000000E-01
                      -3.75000000E-01  1.25000000E-01  1.25000000E-01
                      -1.25000000E-01  1.25000000E-01  1.25000000E-01
                       1.25000000E-01  3.75000000E-01  1.25000000E-01
                       3.75000000E-01  3.75000000E-01  1.25000000E-01
                      -3.75000000E-01  3.75000000E-01  1.25000000E-01
                      -1.25000000E-01  3.75000000E-01  1.25000000E-01
                       1.25000000E-01 -3.75000000E-01  1.25000000E-01
                       3.75000000E-01 -3.75000000E-01  1.25000000E-01
                      -3.75000000E-01 -3.75000000E-01  1.25000000E-01
                      -1.25000000E-01 -3.75000000E-01  1.25000000E-01
                       1.25000000E-01 -1.25000000E-01  1.25000000E-01
                       3.75000000E-01 -1.25000000E-01  1.25000000E-01
                       1.25000000E-01  3.75000000E-01  3.75000000E-01
                       3.75000000E-01  3.75000000E-01  3.75000000E-01
                      -3.75000000E-01  3.75000000E-01  3.75000000E-01
                      -1.25000000E-01  3.75000000E-01  3.75000000E-01
                       1.25000000E-01 -3.75000000E-01  3.75000000E-01
                       3.75000000E-01 -3.75000000E-01  3.75000000E-01
         kptrlatt        4    0    0      0    4    0      0    0    4
          kptrlen      1.20000000E+01
P           mkmem           5
           natfix           1
            natom           2
            nband           1
           ndtset           3
        ndynimage           5
            ngfft          12      12      12
           nimage           7
             nkpt          20
-           npkpt           4
            nstep          20
             nsym           2
        ntimimage          10
           ntypat           2
        optforces           1
           prtden           0
           prteig           0
        prtvolimg1          0
        prtvolimg2          1
        prtvolimg3          2
            prtwf           0
           shiftk      5.00000000E-01  5.00000000E-01  5.00000000E-01
          spgroup           8
           symrel      1  0  0   0  1  0   0  0  1       1  0  0   0  0  1   0  1  0
           toldff      2.00000000E-06
           tolimg      1.00000000E-05 Hartree
            typat      1  2
              wtk        0.03125    0.03125    0.03125    0.03125    0.06250    0.06250
                         0.06250    0.06250    0.06250    0.06250    0.06250    0.06250
                         0.06250    0.06250    0.03125    0.03125    0.03125    0.03125
                         0.06250    0.06250
           xangst1     0.0000000000E+00  0.0000000000E+00  0.0000000000E+00
                       4.0583182222E-01  4.0583182222E-01  4.0583182222E-01
      xangst_2img1     0.0000000000E+00  0.0000000000E+00  0.0000000000E+00
                       5.3514315244E-01  4.0583182222E-01  4.0583182222E-01
      xangst_3img1     0.0000000000E+00  0.0000000000E+00  0.0000000000E+00
                       6.6445448266E-01  4.0583182222E-01  4.0583182222E-01
      xangst_4img1     0.0000000000E+00  0.0000000000E+00  0.0000000000E+00
                       7.9376581288E-01  4.0583182222E-01  4.0583182222E-01
      xangst_5img1     0.0000000000E+00  0.0000000000E+00  0.0000000000E+00
                       9.2307714311E-01  4.0583182222E-01  4.0583182222E-01
      xangst_6img1     0.0000000000E+00  0.0000000000E+00  0.0000000000E+00
                       1.0523884733E+00  4.0583182222E-01  4.0583182222E-01
      xangst_7img1     0.0000000000E+00  0.0000000000E+00  0.0000000000E+00
                       1.1816998036E+00  4.0583182222E-01  4.0583182222E-01
           xangst2     0.0000000000E+00  0.0000000000E+00  0.0000000000E+00
                       4.0583182222E-01  4.0583182222E-01  4.0583182222E-01
      xangst_2img2     0.0000000000E+00  0.0000000000E+00  0.0000000000E+00
                       5.3514315244E-01  4.0583182222E-01  4.0583182222E-01
      xangst_3img2     0.0000000000E+00  0.0000000000E+00  0.0000000000E+00
                       6.6445448266E-01  4.0583182222E-01  4.0583182222E-01
      xangst_4img2     0.0000000000E+00  0.0000000000E+00  0.0000000000E+00
                       7.9376581288E-01  4.0583182222E-01  4.0583182222E-01
      xangst_5img2     0.0000000000E+00  0.0000000000E+00  0.0000000000E+00
                       9.2307714311E-01  4.0583182222E-01  4.0583182222E-01
      xangst_6img2     0.0000000000E+00  0.0000000000E+00  0.0000000000E+00
                       1.0523884733E+00  4.0583182222E-01  4.0583182222E-01
      xangst_7img2     0.0000000000E+00  0.0000000000E+00  0.0000000000E+00
                       1.1816998036E+00  4.0583182222E-01  4.0583182222E-01
           xangst3     0.0000000000E+00  0.0000000000E+00  0.0000000000E+00
                       4.0583182222E-01  4.0583182222E-01  4.0583182222E-01
      xangst_2img3     0.0000000000E+00  0.0000000000E+00  0.0000000000E+00
                       5.3514315244E-01  4.0583182222E-01  4.0583182222E-01
      xangst_3img3     0.0000000000E+00  0.0000000000E+00  0.0000000000E+00
                       6.6445448266E-01  4.0583182222E-01  4.0583182222E-01
      xangst_4img3     0.0000000000E+00  0.0000000000E+00  0.0000000000E+00
                       7.9376581288E-01  4.0583182222E-01  4.0583182222E-01
      xangst_5img3     0.0000000000E+00  0.0000000000E+00  0.0000000000E+00
                       9.2307714311E-01  4.0583182222E-01  4.0583182222E-01
      xangst_6img3     0.0000000000E+00  0.0000000000E+00  0.0000000000E+00
                       1.0523884733E+00  4.0583182222E-01  4.0583182222E-01
      xangst_7img3     0.0000000000E+00  0.0000000000E+00  0.0000000000E+00
                       1.1816998036E+00  4.0583182222E-01  4.0583182222E-01
            xcart1     0.0000000000E+00  0.0000000000E+00  0.0000000000E+00
                       7.6691100000E-01  7.6691100000E-01  7.6691100000E-01
       xcart_2img1     0.0000000000E+00  0.0000000000E+00  0.0000000000E+00
                       1.0112740000E+00  7.6691100000E-01  7.6691100000E-01
       xcart_3img1     0.0000000000E+00  0.0000000000E+00  0.0000000000E+00
                       1.2556370000E+00  7.6691100000E-01  7.6691100000E-01
       xcart_4img1     0.0000000000E+00  0.0000000000E+00  0.0000000000E+00
                       1.5000000000E+00  7.6691100000E-01  7.6691100000E-01
       xcart_5img1     0.0000000000E+00  0.0000000000E+00  0.0000000000E+00
                       1.7443630000E+00  7.6691100000E-01  7.6691100000E-01
       xcart_6img1     0.0000000000E+00  0.0000000000E+00  0.0000000000E+00
                       1.9887260000E+00  7.6691100000E-01  7.6691100000E-01
       xcart_7img1     0.0000000000E+00  0.0000000000E+00  0.0000000000E+00
                       2.2330890000E+00  7.6691100000E-01  7.6691100000E-01
            xcart2     0.0000000000E+00  0.0000000000E+00  0.0000000000E+00
                       7.6691100000E-01  7.6691100000E-01  7.6691100000E-01
       xcart_2img2     0.0000000000E+00  0.0000000000E+00  0.0000000000E+00
                       1.0112740000E+00  7.6691100000E-01  7.6691100000E-01
       xcart_3img2     0.0000000000E+00  0.0000000000E+00  0.0000000000E+00
                       1.2556370000E+00  7.6691100000E-01  7.6691100000E-01
       xcart_4img2     0.0000000000E+00  0.0000000000E+00  0.0000000000E+00
                       1.5000000000E+00  7.6691100000E-01  7.6691100000E-01
       xcart_5img2     0.0000000000E+00  0.0000000000E+00  0.0000000000E+00
                       1.7443630000E+00  7.6691100000E-01  7.6691100000E-01
       xcart_6img2     0.0000000000E+00  0.0000000000E+00  0.0000000000E+00
                       1.9887260000E+00  7.6691100000E-01  7.6691100000E-01
       xcart_7img2     0.0000000000E+00  0.0000000000E+00  0.0000000000E+00
                       2.2330890000E+00  7.6691100000E-01  7.6691100000E-01
            xcart3     0.0000000000E+00  0.0000000000E+00  0.0000000000E+00
                       7.6691100000E-01  7.6691100000E-01  7.6691100000E-01
       xcart_2img3     0.0000000000E+00  0.0000000000E+00  0.0000000000E+00
                       1.0112740000E+00  7.6691100000E-01  7.6691100000E-01
       xcart_3img3     0.0000000000E+00  0.0000000000E+00  0.0000000000E+00
                       1.2556370000E+00  7.6691100000E-01  7.6691100000E-01
       xcart_4img3     0.0000000000E+00  0.0000000000E+00  0.0000000000E+00
                       1.5000000000E+00  7.6691100000E-01  7.6691100000E-01
       xcart_5img3     0.0000000000E+00  0.0000000000E+00  0.0000000000E+00
                       1.7443630000E+00  7.6691100000E-01  7.6691100000E-01
       xcart_6img3     0.0000000000E+00  0.0000000000E+00  0.0000000000E+00
                       1.9887260000E+00  7.6691100000E-01  7.6691100000E-01
       xcart_7img3     0.0000000000E+00  0.0000000000E+00  0.0000000000E+00
                       2.2330890000E+00  7.6691100000E-01  7.6691100000E-01
             xred1     0.0000000000E+00  0.0000000000E+00  0.0000000000E+00
                       2.5563700000E-01  2.5563700000E-01  2.5563700000E-01
        xred_2img1     0.0000000000E+00  0.0000000000E+00  0.0000000000E+00
                       3.3709133333E-01  2.5563700000E-01  2.5563700000E-01
        xred_3img1     0.0000000000E+00  0.0000000000E+00  0.0000000000E+00
                       4.1854566667E-01  2.5563700000E-01  2.5563700000E-01
        xred_4img1     0.0000000000E+00  0.0000000000E+00  0.0000000000E+00
                       5.0000000000E-01  2.5563700000E-01  2.5563700000E-01
        xred_5img1     0.0000000000E+00  0.0000000000E+00  0.0000000000E+00
                       5.8145433333E-01  2.5563700000E-01  2.5563700000E-01
        xred_6img1     0.0000000000E+00  0.0000000000E+00  0.0000000000E+00
                       6.6290866667E-01  2.5563700000E-01  2.5563700000E-01
        xred_7img1     0.0000000000E+00  0.0000000000E+00  0.0000000000E+00
                       7.4436300000E-01  2.5563700000E-01  2.5563700000E-01
             xred2     0.0000000000E+00  0.0000000000E+00  0.0000000000E+00
                       2.5563700000E-01  2.5563700000E-01  2.5563700000E-01
        xred_2img2     0.0000000000E+00  0.0000000000E+00  0.0000000000E+00
                       3.3709133333E-01  2.5563700000E-01  2.5563700000E-01
        xred_3img2     0.0000000000E+00  0.0000000000E+00  0.0000000000E+00
                       4.1854566667E-01  2.5563700000E-01  2.5563700000E-01
        xred_4img2     0.0000000000E+00  0.0000000000E+00  0.0000000000E+00
                       5.0000000000E-01  2.5563700000E-01  2.5563700000E-01
        xred_5img2     0.0000000000E+00  0.0000000000E+00  0.0000000000E+00
                       5.8145433333E-01  2.5563700000E-01  2.5563700000E-01
        xred_6img2     0.0000000000E+00  0.0000000000E+00  0.0000000000E+00
                       6.6290866667E-01  2.5563700000E-01  2.5563700000E-01
        xred_7img2     0.0000000000E+00  0.0000000000E+00  0.0000000000E+00
                       7.4436300000E-01  2.5563700000E-01  2.5563700000E-01
             xred3     0.0000000000E+00  0.0000000000E+00  0.0000000000E+00
                       2.5563700000E-01  2.5563700000E-01  2.5563700000E-01
        xred_2img3     0.0000000000E+00  0.0000000000E+00  0.0000000000E+00
                       3.3709133333E-01  2.5563700000E-01  2.5563700000E-01
        xred_3img3     0.0000000000E+00  0.0000000000E+00  0.0000000000E+00
                       4.1854566667E-01  2.5563700000E-01  2.5563700000E-01
        xred_4img3     0.0000000000E+00  0.0000000000E+00  0.0000000000E+00
                       5.0000000000E-01  2.5563700000E-01  2.5563700000E-01
        xred_5img3     0.0000000000E+00  0.0000000000E+00  0.0000000000E+00
                       5.8145433333E-01  2.5563700000E-01  2.5563700000E-01
        xred_6img3     0.0000000000E+00  0.0000000000E+00  0.0000000000E+00
                       6.6290866667E-01  2.5563700000E-01  2.5563700000E-01
        xred_7img3     0.0000000000E+00  0.0000000000E+00  0.0000000000E+00
                       7.4436300000E-01  2.5563700000E-01  2.5563700000E-01
            znucl        1.00000    1.00000

================================================================================

 chkinp: Checking input parameters for consistency, jdtset=   1.

 chkinp: Checking input parameters for consistency, jdtset=   2.

 chkinp: Checking input parameters for consistency, jdtset=   3.

================================================================================
== DATASET  1 ==================================================================
-   nproc =    4

 Exchange-correlation functional for the present dataset will be:
  LDA: new Teter (4/93) with spin-polarized option - ixc=1
 Citation for XC functional:
  S. Goedecker, M. Teter, J. Huetter, PRB 54, 1703 (1996)


================================================================================
 STRING METHOD - TIME STEP     1
================================================================================

--------------------------------------------------------------------------------
 STRING METHOD - CELL #    1/   7
--------------------------------------------------------------------------------

 Real(R)+Recip(G) space primitive vectors, cartesian coordinates (Bohr,Bohr^-1):
 R(1)=  3.0000000  0.0000000  0.0000000  G(1)=  0.3333333  0.0000000  0.0000000
 R(2)=  0.0000000  3.0000000  0.0000000  G(2)=  0.0000000  0.3333333  0.0000000
 R(3)=  0.0000000  0.0000000  3.0000000  G(3)=  0.0000000  0.0000000  0.3333333
 Unit cell volume ucvol=  2.7000000E+01 bohr^3
 Angles (23,13,12)=  9.00000000E+01  9.00000000E+01  9.00000000E+01 degrees

 getcut: wavevector=  0.0000  0.0000  0.0000  ngfft=  12  12  12
         ecut(hartree)=     15.000   => boxcut(ratio)=   2.29429

 getcut : COMMENT -
  Note that boxcut > 2.2 ; recall that boxcut=Gcut(box)/Gcut(sphere) = 2
  is sufficient for exact treatment of convolution.
  Such a large boxcut is a waste : you could raise ecut
  e.g. ecut=   19.739209 Hartrees makes boxcut=2


--- Pseudopotential description ------------------------------------------------
- pspini: atom type   1  psp file is /data/ABINIT/testf_gcc47/trunk_7.9.3-private/tests/Psps_for_tests/1h.pspnc
- pspatm: opening atomic psp file    /data/ABINIT/testf_gcc47/trunk_7.9.3-private/tests/Psps_for_tests/1h.pspnc
-  Troullier-Martins psp for element  H         Thu Oct 27 17:28:54 EDT 1994
-  1.00000   1.00000    940714                znucl, zion, pspdat
    1    1    0    0      2001   0.00000      pspcod,pspxc,lmax,lloc,mmax,r2well
    0   7.740  11.990    0   1.5855604        l,e99.0,e99.9,nproj,rcpsp
   0.00000000   0.00000000   0.00000000   0.00000000     rms, ekb1, ekb2, epsatm
    0.00000000000000    0.00000000000000    0.00000000000000   rchrg,fchrg,qchrg
 Note: local psp for atom with Z=  1.0
 pspatm: epsatm=    0.04198703
         --- l  ekb(1:nproj) -->
 pspatm: atomic psp has been read  and splines computed

- pspini: atom type   2  psp file is /data/ABINIT/testf_gcc47/trunk_7.9.3-private/tests/Psps_for_tests/1h.pspnc
- pspatm: opening atomic psp file    /data/ABINIT/testf_gcc47/trunk_7.9.3-private/tests/Psps_for_tests/1h.pspnc
-  Troullier-Martins psp for element  H         Thu Oct 27 17:28:54 EDT 1994
-  1.00000   1.00000    940714                znucl, zion, pspdat
    1    1    0    0      2001   0.00000      pspcod,pspxc,lmax,lloc,mmax,r2well
    0   7.740  11.990    0   1.5855604        l,e99.0,e99.9,nproj,rcpsp
   0.00000000   0.00000000   0.00000000   0.00000000     rms, ekb1, ekb2, epsatm
    0.00000000000000    0.00000000000000    0.00000000000000   rchrg,fchrg,qchrg
 Note: local psp for atom with Z=  1.0
 pspatm: epsatm=    0.04198703
         --- l  ekb(1:nproj) -->
 pspatm: atomic psp has been read  and splines computed

   1.67948119E-01                                ecore*ucvol(ha*bohr**3)
--------------------------------------------------------------------------------

P newkpt: treating      1 bands with npw=      78 for ikpt=   1 by node    0
P newkpt: treating      1 bands with npw=      73 for ikpt=   2 by node    0
P newkpt: treating      1 bands with npw=      73 for ikpt=   3 by node    0
P newkpt: treating      1 bands with npw=      78 for ikpt=   4 by node    0
P newkpt: treating      1 bands with npw=      73 for ikpt=   5 by node    0
P newkpt: treating      1 bands with npw=      76 for ikpt=   6 by node    1
P newkpt: treating      1 bands with npw=      76 for ikpt=   7 by node    1
P newkpt: treating      1 bands with npw=      73 for ikpt=   8 by node    1
P newkpt: treating      1 bands with npw=      73 for ikpt=   9 by node    1
P newkpt: treating      1 bands with npw=      76 for ikpt=  10 by node    1
P newkpt: treating      1 bands with npw=      76 for ikpt=  11 by node    2
P newkpt: treating      1 bands with npw=      73 for ikpt=  12 by node    2
P newkpt: treating      1 bands with npw=      78 for ikpt=  13 by node    2
P newkpt: treating      1 bands with npw=      73 for ikpt=  14 by node    2
P newkpt: treating      1 bands with npw=      76 for ikpt=  15 by node    2
P newkpt: treating      1 bands with npw=      72 for ikpt=  16 by node    3
P newkpt: treating      1 bands with npw=      72 for ikpt=  17 by node    3
P newkpt: treating      1 bands with npw=      76 for ikpt=  18 by node    3
P newkpt: treating      1 bands with npw=      76 for ikpt=  19 by node    3
P newkpt: treating      1 bands with npw=      72 for ikpt=  20 by node    3

_setup2: Arith. and geom. avg. npw (full set) are      74.625      74.598

================================================================================

     iter   Etot(hartree)      deltaE(h)  residm     vres2    diffor    maxfor
 ETOT  1  -1.0597986410185    -1.060E+00 8.238E-07 1.855E+00 4.104E-03 4.104E-03
 ETOT  2  -1.0614822690811    -1.684E-03 4.427E-10 7.343E-03 3.989E-03 1.145E-04
 ETOT  3  -1.0614839800094    -1.711E-06 3.218E-09 1.030E-04 8.432E-05 3.023E-05
 ETOT  4  -1.0614840094685    -2.946E-08 1.402E-10 2.040E-08 2.719E-05 3.035E-06
 ETOT  5  -1.0614840094729    -4.392E-12 1.464E-14 6.182E-12 6.648E-07 2.370E-06
 ETOT  6  -1.0614840094729    -1.776E-15 7.939E-18 6.132E-15 6.945E-09 2.363E-06

 At SCF step    6, forces are converged : 
  for the second time, max diff in force=  6.945E-09 < toldff=  2.000E-06

 Cartesian components of stress tensor (hartree/bohr^3)
  sigma(1 1)= -5.68214884E-03  sigma(3 2)= -9.98371227E-05
  sigma(2 2)= -5.68214884E-03  sigma(3 1)= -9.98371228E-05
  sigma(3 3)= -5.68214884E-03  sigma(2 1)= -9.98371228E-05

================================================================================

 ----iterations are completed or convergence reached----

 Mean square residual over all n,k,spin=   2.9520E-18; max=  7.9386E-18
   0.1250  0.1250  0.1250    1  1.11923E-18 kpt; spin; max resid(k); each band:
  1.12E-18
   0.3750  0.1250  0.1250    1  8.40276E-19 kpt; spin; max resid(k); each band:
  8.40E-19
  -0.3750  0.1250  0.1250    1  2.02517E-18 kpt; spin; max resid(k); each band:
  2.03E-18
  -0.1250  0.1250  0.1250    1  9.90309E-19 kpt; spin; max resid(k); each band:
  9.90E-19
   0.1250  0.3750  0.1250    1  8.40160E-19 kpt; spin; max resid(k); each band:
  8.40E-19
   0.3750  0.3750  0.1250    1  5.29414E-18 kpt; spin; max resid(k); each band:
  5.29E-18
  -0.3750  0.3750  0.1250    1  1.99016E-18 kpt; spin; max resid(k); each band:
  1.99E-18
  -0.1250  0.3750  0.1250    1  2.41138E-18 kpt; spin; max resid(k); each band:
  2.41E-18
   0.1250 -0.3750  0.1250    1  2.02581E-18 kpt; spin; max resid(k); each band:
  2.03E-18
   0.3750 -0.3750  0.1250    1  1.98744E-18 kpt; spin; max resid(k); each band:
  1.99E-18
  -0.3750 -0.3750  0.1250    1  1.51425E-18 kpt; spin; max resid(k); each band:
  1.51E-18
  -0.1250 -0.3750  0.1250    1  2.41201E-18 kpt; spin; max resid(k); each band:
  2.41E-18
   0.1250 -0.1250  0.1250    1  9.89921E-19 kpt; spin; max resid(k); each band:
  9.90E-19
   0.3750 -0.1250  0.1250    1  2.41206E-18 kpt; spin; max resid(k); each band:
  2.41E-18
   0.1250  0.3750  0.3750    1  5.29319E-18 kpt; spin; max resid(k); each band:
  5.29E-18
   0.3750  0.3750  0.3750    1  7.51617E-18 kpt; spin; max resid(k); each band:
  7.52E-18
  -0.3750  0.3750  0.3750    1  7.93797E-18 kpt; spin; max resid(k); each band:
  7.94E-18
  -0.1250  0.3750  0.3750    1  1.51477E-18 kpt; spin; max resid(k); each band:
  1.51E-18
   0.1250 -0.3750  0.3750    1  1.98781E-18 kpt; spin; max resid(k); each band:
  1.99E-18
   0.3750 -0.3750  0.3750    1  7.93863E-18 kpt; spin; max resid(k); each band:
  7.94E-18
 reduced coordinates (array xred) for    2 atoms
       0.000000000000      0.000000000000      0.000000000000
       0.255637000000      0.255637000000      0.255637000000
 rms dE/dt=  7.0884E-06; max dE/dt=  7.0884E-06; dE/dt below (all hartree)
    1      -0.000007088420     -0.000007088429     -0.000007088429
    2       0.000007088365      0.000007088371      0.000007088371

 cartesian coordinates (angstrom) at end:
    1      0.00000000000000     0.00000000000000     0.00000000000000
    2      0.40583182221697     0.40583182221697     0.40583182221697

 cartesian forces (hartree/bohr) at end:
    1      0.00000236279750     0.00000236279995     0.00000236279995
    2     -0.00000236279750    -0.00000236279995    -0.00000236279995
 frms,max,avg= 2.3627991E-06 2.3627999E-06   9.282E-12  9.561E-12  9.561E-12 h/b

 cartesian forces (eV/Angstrom) at end:
    1      0.00012149992215     0.00012150004811     0.00012150004811
    2     -0.00012149992215    -0.00012150004811    -0.00012150004811
 frms,max,avg= 1.2150001E-04 1.2150005E-04   4.773E-10  4.917E-10  4.917E-10 e/A
 length scales=  3.000000000000  3.000000000000  3.000000000000 bohr
              =  1.587531625770  1.587531625770  1.587531625770 angstroms
 Fermi (or HOMO) energy (hartree) =   0.26051   Average Vxc (hartree)=  -0.44952
 Eigenvalues (hartree) for nkpt=  20  k points:
 kpt#   1, nband=  1, wtk=  0.03125, kpt=  0.1250  0.1250  0.1250 (reduced coord)
  -0.44462
 kpt#   2, nband=  1, wtk=  0.03125, kpt=  0.3750  0.1250  0.1250 (reduced coord)
  -0.20252
 kpt#   3, nband=  1, wtk=  0.03125, kpt= -0.3750  0.1250  0.1250 (reduced coord)
  -0.20583
 kpt#   4, nband=  1, wtk=  0.03125, kpt= -0.1250  0.1250  0.1250 (reduced coord)
  -0.44565
 kpt#   5, nband=  1, wtk=  0.06250, kpt=  0.1250  0.3750  0.1250 (reduced coord)
  -0.20252
 kpt#   6, nband=  1, wtk=  0.06250, kpt=  0.3750  0.3750  0.1250 (reduced coord)
   0.03329
 kpt#   7, nband=  1, wtk=  0.06250, kpt= -0.3750  0.3750  0.1250 (reduced coord)
   0.02555
 kpt#   8, nband=  1, wtk=  0.06250, kpt= -0.1250  0.3750  0.1250 (reduced coord)
  -0.20478
 kpt#   9, nband=  1, wtk=  0.06250, kpt=  0.1250 -0.3750  0.1250 (reduced coord)
  -0.20583
 kpt#  10, nband=  1, wtk=  0.06250, kpt=  0.3750 -0.3750  0.1250 (reduced coord)
   0.02555
 kpt#  11, nband=  1, wtk=  0.06250, kpt= -0.3750 -0.3750  0.1250 (reduced coord)
   0.02956
 kpt#  12, nband=  1, wtk=  0.06250, kpt= -0.1250 -0.3750  0.1250 (reduced coord)
  -0.20478
 kpt#  13, nband=  1, wtk=  0.06250, kpt=  0.1250 -0.1250  0.1250 (reduced coord)
  -0.44565
 kpt#  14, nband=  1, wtk=  0.06250, kpt=  0.3750 -0.1250  0.1250 (reduced coord)
  -0.20478
 kpt#  15, nband=  1, wtk=  0.03125, kpt=  0.1250  0.3750  0.3750 (reduced coord)
   0.03329
 kpt#  16, nband=  1, wtk=  0.03125, kpt=  0.3750  0.3750  0.3750 (reduced coord)
   0.26051
 kpt#  17, nband=  1, wtk=  0.03125, kpt= -0.3750  0.3750  0.3750 (reduced coord)
   0.24817
 kpt#  18, nband=  1, wtk=  0.03125, kpt= -0.1250  0.3750  0.3750 (reduced coord)
   0.02956
 kpt#  19, nband=  1, wtk=  0.06250, kpt=  0.1250 -0.3750  0.3750 (reduced coord)
   0.02555
 kpt#  20, nband=  1, wtk=  0.06250, kpt=  0.3750 -0.3750  0.3750 (reduced coord)
   0.24817
 Total charge density [el/Bohr^3]
,     Maximum=    3.3443E-01  at reduced coord.    0.1667    0.1667    0.1667
,Next maximum=    3.3256E-01  at reduced coord.    0.0833    0.0833    0.0833
,     Minimum=    1.8435E-02  at reduced coord.    0.6667    0.6667    0.5833
,Next minimum=    1.8435E-02  at reduced coord.    0.6667    0.5833    0.6667
,  Integrated=    2.0000E+00

--------------------------------------------------------------------------------
 Components of total free energy (in Hartree) :

    Kinetic energy  =  1.39869327661040E+00
    Hartree energy  =  1.05641568140405E-01
    XC energy       = -7.93850350856755E-01
    Ewald energy    = -1.02549460571959E+00
    PspCore energy  =  6.22030071830427E-03
    Loc. psp. energy= -7.52694198365695E-01
    NL   psp  energy=  0.00000000000000E+00
    >>>>>>>>> Etotal= -1.06148400947293E+00

 Other information on the energy :
    Total energy(eV)= -2.88844488430198E+01 ; Band energy (Ha)=  -1.8052303729E-01
--------------------------------------------------------------------------------

 Cartesian components of stress tensor (hartree/bohr^3)
  sigma(1 1)= -5.68214884E-03  sigma(3 2)= -9.98371227E-05
  sigma(2 2)= -5.68214884E-03  sigma(3 1)= -9.98371228E-05
  sigma(3 3)= -5.68214884E-03  sigma(2 1)= -9.98371228E-05

-Cartesian components of stress tensor (GPa)         [Pressure=  1.6717E+02 GPa]
- sigma(1 1)= -1.67174562E+02  sigma(3 2)= -2.93730907E+00
- sigma(2 2)= -1.67174563E+02  sigma(3 1)= -2.93730907E+00
- sigma(3 3)= -1.67174563E+02  sigma(2 1)= -2.93730907E+00


--------------------------------------------------------------------------------
 STRING METHOD - CELL #    2/   7
--------------------------------------------------------------------------------

 Real(R)+Recip(G) space primitive vectors, cartesian coordinates (Bohr,Bohr^-1):
 R(1)=  3.0000000  0.0000000  0.0000000  G(1)=  0.3333333  0.0000000  0.0000000
 R(2)=  0.0000000  3.0000000  0.0000000  G(2)=  0.0000000  0.3333333  0.0000000
 R(3)=  0.0000000  0.0000000  3.0000000  G(3)=  0.0000000  0.0000000  0.3333333
 Unit cell volume ucvol=  2.7000000E+01 bohr^3
 Angles (23,13,12)=  9.00000000E+01  9.00000000E+01  9.00000000E+01 degrees

 getcut: wavevector=  0.0000  0.0000  0.0000  ngfft=  12  12  12
         ecut(hartree)=     15.000   => boxcut(ratio)=   2.29429

 getcut : COMMENT -
  Note that boxcut > 2.2 ; recall that boxcut=Gcut(box)/Gcut(sphere) = 2
  is sufficient for exact treatment of convolution.
  Such a large boxcut is a waste : you could raise ecut
  e.g. ecut=   19.739209 Hartrees makes boxcut=2

--------------------------------------------------------------------------------

P newkpt: treating      1 bands with npw=      78 for ikpt=   1 by node    0
P newkpt: treating      1 bands with npw=      73 for ikpt=   2 by node    0
P newkpt: treating      1 bands with npw=      73 for ikpt=   3 by node    0
P newkpt: treating      1 bands with npw=      78 for ikpt=   4 by node    0
P newkpt: treating      1 bands with npw=      73 for ikpt=   5 by node    0
P newkpt: treating      1 bands with npw=      76 for ikpt=   6 by node    1
P newkpt: treating      1 bands with npw=      76 for ikpt=   7 by node    1
P newkpt: treating      1 bands with npw=      73 for ikpt=   8 by node    1
P newkpt: treating      1 bands with npw=      73 for ikpt=   9 by node    1
P newkpt: treating      1 bands with npw=      76 for ikpt=  10 by node    1
P newkpt: treating      1 bands with npw=      76 for ikpt=  11 by node    2
P newkpt: treating      1 bands with npw=      73 for ikpt=  12 by node    2
P newkpt: treating      1 bands with npw=      78 for ikpt=  13 by node    2
P newkpt: treating      1 bands with npw=      73 for ikpt=  14 by node    2
P newkpt: treating      1 bands with npw=      76 for ikpt=  15 by node    2
P newkpt: treating      1 bands with npw=      72 for ikpt=  16 by node    3
P newkpt: treating      1 bands with npw=      72 for ikpt=  17 by node    3
P newkpt: treating      1 bands with npw=      76 for ikpt=  18 by node    3
P newkpt: treating      1 bands with npw=      76 for ikpt=  19 by node    3
P newkpt: treating      1 bands with npw=      72 for ikpt=  20 by node    3

_setup2: Arith. and geom. avg. npw (full set) are      74.625      74.598

================================================================================

     iter   Etot(hartree)      deltaE(h)  residm     vres2    diffor    maxfor
 ETOT  1  -1.0576668821167    -1.058E+00 1.169E-06 1.163E+00 2.357E-02 2.357E-02
 ETOT  2  -1.0586695740823    -1.003E-03 6.939E-10 5.301E-03 3.404E-03 2.017E-02
 ETOT  3  -1.0586712359548    -1.662E-06 7.894E-09 4.774E-05 1.528E-04 2.001E-02
 ETOT  4  -1.0586712492414    -1.329E-08 6.715E-11 1.121E-08 2.169E-05 1.999E-02
 ETOT  5  -1.0586712492440    -2.603E-12 9.779E-15 3.046E-12 6.128E-07 1.999E-02
 ETOT  6  -1.0586712492440     0.000E+00 5.524E-18 1.992E-15 6.239E-09 1.999E-02

 At SCF step    6, forces are converged : 
  for the second time, max diff in force=  6.239E-09 < toldff=  2.000E-06

 Cartesian components of stress tensor (hartree/bohr^3)
  sigma(1 1)= -4.72718824E-03  sigma(3 2)=  3.09264953E-04
  sigma(2 2)= -5.34033328E-03  sigma(3 1)=  3.69964553E-04
  sigma(3 3)= -5.34033328E-03  sigma(2 1)=  3.69964553E-04

================================================================================

 ----iterations are completed or convergence reached----

 Mean square residual over all n,k,spin=   1.8759E-18; max=  5.5237E-18
   0.1250  0.1250  0.1250    1  1.22312E-18 kpt; spin; max resid(k); each band:
  1.22E-18
   0.3750  0.1250  0.1250    1  2.34583E-18 kpt; spin; max resid(k); each band:
  2.35E-18
  -0.3750  0.1250  0.1250    1  1.78605E-18 kpt; spin; max resid(k); each band:
  1.79E-18
  -0.1250  0.1250  0.1250    1  9.12484E-19 kpt; spin; max resid(k); each band:
  9.12E-19
   0.1250  0.3750  0.1250    1  2.66884E-19 kpt; spin; max resid(k); each band:
  2.67E-19
   0.3750  0.3750  0.1250    1  4.26274E-18 kpt; spin; max resid(k); each band:
  4.26E-18
  -0.3750  0.3750  0.1250    1  3.86910E-19 kpt; spin; max resid(k); each band:
  3.87E-19
  -0.1250  0.3750  0.1250    1  2.91438E-19 kpt; spin; max resid(k); each band:
  2.91E-19
   0.1250 -0.3750  0.1250    1  3.34833E-19 kpt; spin; max resid(k); each band:
  3.35E-19
   0.3750 -0.3750  0.1250    1  5.81428E-19 kpt; spin; max resid(k); each band:
  5.81E-19
  -0.3750 -0.3750  0.1250    1  2.70755E-18 kpt; spin; max resid(k); each band:
  2.71E-18
  -0.1250 -0.3750  0.1250    1  6.66554E-19 kpt; spin; max resid(k); each band:
  6.67E-19
   0.1250 -0.1250  0.1250    1  1.28638E-18 kpt; spin; max resid(k); each band:
  1.29E-18
   0.3750 -0.1250  0.1250    1  1.94321E-18 kpt; spin; max resid(k); each band:
  1.94E-18
   0.1250  0.3750  0.3750    1  1.65199E-18 kpt; spin; max resid(k); each band:
  1.65E-18
   0.3750  0.3750  0.3750    1  3.45176E-18 kpt; spin; max resid(k); each band:
  3.45E-18
  -0.3750  0.3750  0.3750    1  5.52372E-18 kpt; spin; max resid(k); each band:
  5.52E-18
  -0.1250  0.3750  0.3750    1  2.33290E-18 kpt; spin; max resid(k); each band:
  2.33E-18
   0.1250 -0.3750  0.3750    1  8.14344E-19 kpt; spin; max resid(k); each band:
  8.14E-19
   0.3750 -0.3750  0.3750    1  4.74794E-18 kpt; spin; max resid(k); each band:
  4.75E-18
 reduced coordinates (array xred) for    2 atoms
       0.000000000000      0.000000000000      0.000000000000
       0.337091333333      0.255637000000      0.255637000000
 rms dE/dt=  5.2563E-02; max dE/dt=  5.9975E-02; dE/dt below (all hartree)
    1      -0.059974876555     -0.048433019604     -0.048433019604
    2       0.059974876654      0.048433019626      0.048433019626

 cartesian coordinates (angstrom) at end:
    1      0.00000000000000     0.00000000000000     0.00000000000000
    2      0.53514315243964     0.40583182221697     0.40583182221697

 cartesian forces (hartree/bohr) at end:
    1      0.01999162553477     0.01614433987155     0.01614433987155
    2     -0.01999162553477    -0.01614433987155    -0.01614433987155
 frms,max,avg= 1.7520888E-02 1.9991626E-02  -1.655E-11 -3.697E-12 -3.697E-12 h/b

 cartesian forces (eV/Angstrom) at end:
    1      1.02801063156445     0.83017526507157     0.83017526507157
    2     -1.02801063156445    -0.83017526507157    -0.83017526507157
 frms,max,avg= 9.0096019E-01 1.0280106E+00  -8.510E-10 -1.901E-10 -1.901E-10 e/A
 length scales=  3.000000000000  3.000000000000  3.000000000000 bohr
              =  1.587531625770  1.587531625770  1.587531625770 angstroms
 Fermi (or HOMO) energy (hartree) =   0.29220   Average Vxc (hartree)=  -0.45361
 Eigenvalues (hartree) for nkpt=  20  k points:
 kpt#   1, nband=  1, wtk=  0.03125, kpt=  0.1250  0.1250  0.1250 (reduced coord)
  -0.43659
 kpt#   2, nband=  1, wtk=  0.03125, kpt=  0.3750  0.1250  0.1250 (reduced coord)
  -0.18030
 kpt#   3, nband=  1, wtk=  0.03125, kpt= -0.3750  0.1250  0.1250 (reduced coord)
  -0.18359
 kpt#   4, nband=  1, wtk=  0.03125, kpt= -0.1250  0.1250  0.1250 (reduced coord)
  -0.43750
 kpt#   5, nband=  1, wtk=  0.06250, kpt=  0.1250  0.3750  0.1250 (reduced coord)
  -0.19260
 kpt#   6, nband=  1, wtk=  0.06250, kpt=  0.3750  0.3750  0.1250 (reduced coord)
   0.05971
 kpt#   7, nband=  1, wtk=  0.06250, kpt= -0.3750  0.3750  0.1250 (reduced coord)
   0.05184
 kpt#   8, nband=  1, wtk=  0.06250, kpt= -0.1250  0.3750  0.1250 (reduced coord)
  -0.19460
 kpt#   9, nband=  1, wtk=  0.06250, kpt=  0.1250 -0.3750  0.1250 (reduced coord)
  -0.19552
 kpt#  10, nband=  1, wtk=  0.06250, kpt=  0.3750 -0.3750  0.1250 (reduced coord)
   0.05220
 kpt#  11, nband=  1, wtk=  0.06250, kpt= -0.3750 -0.3750  0.1250 (reduced coord)
   0.05629
 kpt#  12, nband=  1, wtk=  0.06250, kpt= -0.1250 -0.3750  0.1250 (reduced coord)
  -0.19457
 kpt#  13, nband=  1, wtk=  0.06250, kpt=  0.1250 -0.1250  0.1250 (reduced coord)
  -0.43748
 kpt#  14, nband=  1, wtk=  0.06250, kpt=  0.3750 -0.1250  0.1250 (reduced coord)
  -0.18241
 kpt#  15, nband=  1, wtk=  0.03125, kpt=  0.1250  0.3750  0.3750 (reduced coord)
   0.04568
 kpt#  16, nband=  1, wtk=  0.03125, kpt=  0.3750  0.3750  0.3750 (reduced coord)
   0.29220
 kpt#  17, nband=  1, wtk=  0.03125, kpt= -0.3750  0.3750  0.3750 (reduced coord)
   0.27918
 kpt#  18, nband=  1, wtk=  0.03125, kpt= -0.1250  0.3750  0.3750 (reduced coord)
   0.04232
 kpt#  19, nband=  1, wtk=  0.06250, kpt=  0.1250 -0.3750  0.3750 (reduced coord)
   0.03865
 kpt#  20, nband=  1, wtk=  0.06250, kpt=  0.3750 -0.3750  0.3750 (reduced coord)
   0.28022
 Total charge density [el/Bohr^3]
,     Maximum=    2.7566E-01  at reduced coord.    0.0833    0.0833    0.0833
,Next maximum=    2.7563E-01  at reduced coord.    0.2500    0.1667    0.1667
,     Minimum=    2.1224E-02  at reduced coord.    0.6667    0.6667    0.5833
,Next minimum=    2.1224E-02  at reduced coord.    0.6667    0.5833    0.6667
,  Integrated=    2.0000E+00

--------------------------------------------------------------------------------
 Components of total free energy (in Hartree) :

    Kinetic energy  =  1.33743320011367E+00
    Hartree energy  =  8.14007918575816E-02
    XC energy       = -7.79045322109745E-01
    Ewald energy    = -1.07924186771159E+00
    PspCore energy  =  6.22030071830427E-03
    Loc. psp. energy= -6.25438352112183E-01
    NL   psp  energy=  0.00000000000000E+00
    >>>>>>>>> Etotal= -1.05867124924396E+00

 Other information on the energy :
    Total energy(eV)= -2.88079097447232E+01 ; Band energy (Ha)=  -1.4344667060E-01
--------------------------------------------------------------------------------

 Cartesian components of stress tensor (hartree/bohr^3)
  sigma(1 1)= -4.72718824E-03  sigma(3 2)=  3.09264953E-04
  sigma(2 2)= -5.34033328E-03  sigma(3 1)=  3.69964553E-04
  sigma(3 3)= -5.34033328E-03  sigma(2 1)=  3.69964553E-04

-Cartesian components of stress tensor (GPa)         [Pressure=  1.5110E+02 GPa]
- sigma(1 1)= -1.39078656E+02  sigma(3 2)=  9.09888752E+00
- sigma(2 2)= -1.57118003E+02  sigma(3 1)=  1.08847311E+01
- sigma(3 3)= -1.57118003E+02  sigma(2 1)=  1.08847311E+01


--------------------------------------------------------------------------------
 STRING METHOD - CELL #    3/   7
--------------------------------------------------------------------------------

 Real(R)+Recip(G) space primitive vectors, cartesian coordinates (Bohr,Bohr^-1):
 R(1)=  3.0000000  0.0000000  0.0000000  G(1)=  0.3333333  0.0000000  0.0000000
 R(2)=  0.0000000  3.0000000  0.0000000  G(2)=  0.0000000  0.3333333  0.0000000
 R(3)=  0.0000000  0.0000000  3.0000000  G(3)=  0.0000000  0.0000000  0.3333333
 Unit cell volume ucvol=  2.7000000E+01 bohr^3
 Angles (23,13,12)=  9.00000000E+01  9.00000000E+01  9.00000000E+01 degrees

 getcut: wavevector=  0.0000  0.0000  0.0000  ngfft=  12  12  12
         ecut(hartree)=     15.000   => boxcut(ratio)=   2.29429

 getcut : COMMENT -
  Note that boxcut > 2.2 ; recall that boxcut=Gcut(box)/Gcut(sphere) = 2
  is sufficient for exact treatment of convolution.
  Such a large boxcut is a waste : you could raise ecut
  e.g. ecut=   19.739209 Hartrees makes boxcut=2

--------------------------------------------------------------------------------

P newkpt: treating      1 bands with npw=      78 for ikpt=   1 by node    0
P newkpt: treating      1 bands with npw=      73 for ikpt=   2 by node    0
P newkpt: treating      1 bands with npw=      73 for ikpt=   3 by node    0
P newkpt: treating      1 bands with npw=      78 for ikpt=   4 by node    0
P newkpt: treating      1 bands with npw=      73 for ikpt=   5 by node    0
P newkpt: treating      1 bands with npw=      76 for ikpt=   6 by node    1
P newkpt: treating      1 bands with npw=      76 for ikpt=   7 by node    1
P newkpt: treating      1 bands with npw=      73 for ikpt=   8 by node    1
P newkpt: treating      1 bands with npw=      73 for ikpt=   9 by node    1
P newkpt: treating      1 bands with npw=      76 for ikpt=  10 by node    1
P newkpt: treating      1 bands with npw=      76 for ikpt=  11 by node    2
P newkpt: treating      1 bands with npw=      73 for ikpt=  12 by node    2
P newkpt: treating      1 bands with npw=      78 for ikpt=  13 by node    2
P newkpt: treating      1 bands with npw=      73 for ikpt=  14 by node    2
P newkpt: treating      1 bands with npw=      76 for ikpt=  15 by node    2
P newkpt: treating      1 bands with npw=      72 for ikpt=  16 by node    3
P newkpt: treating      1 bands with npw=      72 for ikpt=  17 by node    3
P newkpt: treating      1 bands with npw=      76 for ikpt=  18 by node    3
P newkpt: treating      1 bands with npw=      76 for ikpt=  19 by node    3
P newkpt: treating      1 bands with npw=      72 for ikpt=  20 by node    3

_setup2: Arith. and geom. avg. npw (full set) are      74.625      74.598

================================================================================

     iter   Etot(hartree)      deltaE(h)  residm     vres2    diffor    maxfor
 ETOT  1  -1.0530117012946    -1.053E+00 2.748E-06 6.635E-01 2.085E-02 2.085E-02
 ETOT  2  -1.0535158967539    -5.042E-04 2.718E-10 4.442E-03 2.242E-03 1.880E-02
 ETOT  3  -1.0535178385697    -1.942E-06 1.082E-08 1.700E-05 1.304E-04 1.884E-02
 ETOT  4  -1.0535178432617    -4.692E-09 3.037E-11 8.405E-09 8.680E-06 1.883E-02
 ETOT  5  -1.0535178432642    -2.593E-12 1.522E-14 2.098E-12 5.727E-07 1.883E-02
 ETOT  6  -1.0535178432642     1.776E-15 6.374E-18 2.229E-15 6.372E-09 1.883E-02

 At SCF step    6, forces are converged : 
  for the second time, max diff in force=  6.372E-09 < toldff=  2.000E-06

 Cartesian components of stress tensor (hartree/bohr^3)
  sigma(1 1)= -3.81563843E-03  sigma(3 2)=  3.60681305E-04
  sigma(2 2)= -5.38029216E-03  sigma(3 1)=  3.47253732E-04
  sigma(3 3)= -5.38029216E-03  sigma(2 1)=  3.47253732E-04

================================================================================

 ----iterations are completed or convergence reached----

 Mean square residual over all n,k,spin=   1.6782E-18; max=  6.3741E-18
   0.1250  0.1250  0.1250    1  9.41420E-19 kpt; spin; max resid(k); each band:
  9.41E-19
   0.3750  0.1250  0.1250    1  4.08823E-19 kpt; spin; max resid(k); each band:
  4.09E-19
  -0.3750  0.1250  0.1250    1  7.70080E-19 kpt; spin; max resid(k); each band:
  7.70E-19
  -0.1250  0.1250  0.1250    1  1.32095E-18 kpt; spin; max resid(k); each band:
  1.32E-18
   0.1250  0.3750  0.1250    1  1.21411E-18 kpt; spin; max resid(k); each band:
  1.21E-18
   0.3750  0.3750  0.1250    1  2.30985E-18 kpt; spin; max resid(k); each band:
  2.31E-18
  -0.3750  0.3750  0.1250    1  1.36894E-18 kpt; spin; max resid(k); each band:
  1.37E-18
  -0.1250  0.3750  0.1250    1  2.70403E-18 kpt; spin; max resid(k); each band:
  2.70E-18
   0.1250 -0.3750  0.1250    1  7.97363E-19 kpt; spin; max resid(k); each band:
  7.97E-19
   0.3750 -0.3750  0.1250    1  8.04109E-19 kpt; spin; max resid(k); each band:
  8.04E-19
  -0.3750 -0.3750  0.1250    1  1.63783E-18 kpt; spin; max resid(k); each band:
  1.64E-18
  -0.1250 -0.3750  0.1250    1  7.69819E-19 kpt; spin; max resid(k); each band:
  7.70E-19
   0.1250 -0.1250  0.1250    1  1.15974E-18 kpt; spin; max resid(k); each band:
  1.16E-18
   0.3750 -0.1250  0.1250    1  4.70417E-19 kpt; spin; max resid(k); each band:
  4.70E-19
   0.1250  0.3750  0.3750    1  6.37407E-18 kpt; spin; max resid(k); each band:
  6.37E-18
   0.3750  0.3750  0.3750    1  3.38504E-19 kpt; spin; max resid(k); each band:
  3.39E-19
  -0.3750  0.3750  0.3750    1  1.23681E-18 kpt; spin; max resid(k); each band:
  1.24E-18
  -0.1250  0.3750  0.3750    1  5.96086E-18 kpt; spin; max resid(k); each band:
  5.96E-18
   0.1250 -0.3750  0.3750    1  5.79172E-19 kpt; spin; max resid(k); each band:
  5.79E-19
   0.3750 -0.3750  0.3750    1  2.39622E-18 kpt; spin; max resid(k); each band:
  2.40E-18
 reduced coordinates (array xred) for    2 atoms
       0.000000000000      0.000000000000      0.000000000000
       0.418545666667      0.255637000000      0.255637000000
 rms dE/dt=  5.6141E-02; max dE/dt=  5.6501E-02; dE/dt below (all hartree)
    1      -0.055415478837     -0.056500788140     -0.056500788140
    2       0.055415478876      0.056500788169      0.056500788169

 cartesian coordinates (angstrom) at end:
    1      0.00000000000000     0.00000000000000     0.00000000000000
    2      0.66445448266232     0.40583182221697     0.40583182221697

 cartesian forces (hartree/bohr) at end:
    1      0.01847182628539     0.01883359605142     0.01883359605142
    2     -0.01847182628539    -0.01883359605142    -0.01883359605142
 frms,max,avg= 1.8713783E-02 1.8833596E-02  -6.526E-12 -4.778E-12 -4.778E-12 h/b

 cartesian forces (eV/Angstrom) at end:
    1      0.94985941852312     0.96846236629307     0.96846236629307
    2     -0.94985941852312    -0.96846236629307    -0.96846236629307
 frms,max,avg= 9.6230134E-01 9.6846237E-01  -3.356E-10 -2.457E-10 -2.457E-10 e/A
 length scales=  3.000000000000  3.000000000000  3.000000000000 bohr
              =  1.587531625770  1.587531625770  1.587531625770 angstroms
 Fermi (or HOMO) energy (hartree) =   0.31267   Average Vxc (hartree)=  -0.45677
 Eigenvalues (hartree) for nkpt=  20  k points:
 kpt#   1, nband=  1, wtk=  0.03125, kpt=  0.1250  0.1250  0.1250 (reduced coord)
  -0.43186
 kpt#   2, nband=  1, wtk=  0.03125, kpt=  0.3750  0.1250  0.1250 (reduced coord)
  -0.16504
 kpt#   3, nband=  1, wtk=  0.03125, kpt= -0.3750  0.1250  0.1250 (reduced coord)
  -0.16716
 kpt#   4, nband=  1, wtk=  0.03125, kpt= -0.1250  0.1250  0.1250 (reduced coord)
  -0.43239
 kpt#   5, nband=  1, wtk=  0.06250, kpt=  0.1250  0.3750  0.1250 (reduced coord)
  -0.18687
 kpt#   6, nband=  1, wtk=  0.06250, kpt=  0.3750  0.3750  0.1250 (reduced coord)
   0.07724
 kpt#   7, nband=  1, wtk=  0.06250, kpt= -0.3750  0.3750  0.1250 (reduced coord)
   0.07207
 kpt#   8, nband=  1, wtk=  0.06250, kpt= -0.1250  0.3750  0.1250 (reduced coord)
  -0.18804
 kpt#   9, nband=  1, wtk=  0.06250, kpt=  0.1250 -0.3750  0.1250 (reduced coord)
  -0.18902
 kpt#  10, nband=  1, wtk=  0.06250, kpt=  0.3750 -0.3750  0.1250 (reduced coord)
   0.07211
 kpt#  11, nband=  1, wtk=  0.06250, kpt= -0.3750 -0.3750  0.1250 (reduced coord)
   0.07481
 kpt#  12, nband=  1, wtk=  0.06250, kpt= -0.1250 -0.3750  0.1250 (reduced coord)
  -0.18846
 kpt#  13, nband=  1, wtk=  0.06250, kpt=  0.1250 -0.1250  0.1250 (reduced coord)
  -0.43249
 kpt#  14, nband=  1, wtk=  0.06250, kpt=  0.3750 -0.1250  0.1250 (reduced coord)
  -0.16644
 kpt#  15, nband=  1, wtk=  0.03125, kpt=  0.1250  0.3750  0.3750 (reduced coord)
   0.05271
 kpt#  16, nband=  1, wtk=  0.03125, kpt=  0.3750  0.3750  0.3750 (reduced coord)
   0.31267
 kpt#  17, nband=  1, wtk=  0.03125, kpt= -0.3750  0.3750  0.3750 (reduced coord)
   0.30385
 kpt#  18, nband=  1, wtk=  0.03125, kpt= -0.1250  0.3750  0.3750 (reduced coord)
   0.05072
 kpt#  19, nband=  1, wtk=  0.06250, kpt=  0.1250 -0.3750  0.3750 (reduced coord)
   0.04679
 kpt#  20, nband=  1, wtk=  0.06250, kpt=  0.3750 -0.3750  0.3750 (reduced coord)
   0.30363
 Total charge density [el/Bohr^3]
,     Maximum=    2.2931E-01  at reduced coord.    0.0833    0.0833    0.0833
,Next maximum=    2.2888E-01  at reduced coord.    0.4167    0.2500    0.2500
,     Minimum=    2.4739E-02  at reduced coord.    0.6667    0.6667    0.6667
,Next minimum=    2.4796E-02  at reduced coord.    0.7500    0.6667    0.5833
,  Integrated=    2.0000E+00

--------------------------------------------------------------------------------
 Components of total free energy (in Hartree) :

    Kinetic energy  =  1.29233041199917E+00
    Hartree energy  =  6.29510319967840E-02
    XC energy       = -7.67685902220419E-01
    Ewald energy    = -1.11446879939629E+00
    PspCore energy  =  6.22030071830427E-03
    Loc. psp. energy= -5.32864886361797E-01
    NL   psp  energy=  0.00000000000000E+00
    >>>>>>>>> Etotal= -1.05351784326425E+00

 Other information on the energy :
    Total energy(eV)= -2.86676784364228E+01 ; Band energy (Ha)=  -1.1786689811E-01
--------------------------------------------------------------------------------

 Cartesian components of stress tensor (hartree/bohr^3)
  sigma(1 1)= -3.81563843E-03  sigma(3 2)=  3.60681305E-04
  sigma(2 2)= -5.38029216E-03  sigma(3 1)=  3.47253732E-04
  sigma(3 3)= -5.38029216E-03  sigma(2 1)=  3.47253732E-04

-Cartesian components of stress tensor (GPa)         [Pressure=  1.4295E+02 GPa]
- sigma(1 1)= -1.12259940E+02  sigma(3 2)=  1.06116086E+01
- sigma(2 2)= -1.58293634E+02  sigma(3 1)=  1.02165558E+01
- sigma(3 3)= -1.58293634E+02  sigma(2 1)=  1.02165558E+01


--------------------------------------------------------------------------------
 STRING METHOD - CELL #    4/   7
--------------------------------------------------------------------------------

 Real(R)+Recip(G) space primitive vectors, cartesian coordinates (Bohr,Bohr^-1):
 R(1)=  3.0000000  0.0000000  0.0000000  G(1)=  0.3333333  0.0000000  0.0000000
 R(2)=  0.0000000  3.0000000  0.0000000  G(2)=  0.0000000  0.3333333  0.0000000
 R(3)=  0.0000000  0.0000000  3.0000000  G(3)=  0.0000000  0.0000000  0.3333333
 Unit cell volume ucvol=  2.7000000E+01 bohr^3
 Angles (23,13,12)=  9.00000000E+01  9.00000000E+01  9.00000000E+01 degrees

 getcut: wavevector=  0.0000  0.0000  0.0000  ngfft=  12  12  12
         ecut(hartree)=     15.000   => boxcut(ratio)=   2.29429

 getcut : COMMENT -
  Note that boxcut > 2.2 ; recall that boxcut=Gcut(box)/Gcut(sphere) = 2
  is sufficient for exact treatment of convolution.
  Such a large boxcut is a waste : you could raise ecut
  e.g. ecut=   19.739209 Hartrees makes boxcut=2

--------------------------------------------------------------------------------

P newkpt: treating      1 bands with npw=      78 for ikpt=   1 by node    0
P newkpt: treating      1 bands with npw=      73 for ikpt=   2 by node    0
P newkpt: treating      1 bands with npw=      73 for ikpt=   3 by node    0
P newkpt: treating      1 bands with npw=      78 for ikpt=   4 by node    0
P newkpt: treating      1 bands with npw=      73 for ikpt=   5 by node    0
P newkpt: treating      1 bands with npw=      76 for ikpt=   6 by node    1
P newkpt: treating      1 bands with npw=      76 for ikpt=   7 by node    1
P newkpt: treating      1 bands with npw=      73 for ikpt=   8 by node    1
P newkpt: treating      1 bands with npw=      73 for ikpt=   9 by node    1
P newkpt: treating      1 bands with npw=      76 for ikpt=  10 by node    1
P newkpt: treating      1 bands with npw=      76 for ikpt=  11 by node    2
P newkpt: treating      1 bands with npw=      73 for ikpt=  12 by node    2
P newkpt: treating      1 bands with npw=      78 for ikpt=  13 by node    2
P newkpt: treating      1 bands with npw=      73 for ikpt=  14 by node    2
P newkpt: treating      1 bands with npw=      76 for ikpt=  15 by node    2
P newkpt: treating      1 bands with npw=      72 for ikpt=  16 by node    3
P newkpt: treating      1 bands with npw=      72 for ikpt=  17 by node    3
P newkpt: treating      1 bands with npw=      76 for ikpt=  18 by node    3
P newkpt: treating      1 bands with npw=      76 for ikpt=  19 by node    3
P newkpt: treating      1 bands with npw=      72 for ikpt=  20 by node    3

_setup2: Arith. and geom. avg. npw (full set) are      74.625      74.598

================================================================================

     iter   Etot(hartree)      deltaE(h)  residm     vres2    diffor    maxfor
 ETOT  1  -1.0507457230382    -1.051E+00 3.084E-06 4.770E-01 1.749E-02 1.749E-02
 ETOT  2  -1.0510585442110    -3.128E-04 1.905E-10 4.350E-03 7.987E-04 1.828E-02
 ETOT  3  -1.0510607149983    -2.171E-06 1.236E-08 6.387E-06 6.198E-05 1.835E-02
 ETOT  4  -1.0510607165074    -1.509E-09 1.467E-11 2.380E-09 1.647E-06 1.834E-02
 ETOT  5  -1.0510607165079    -5.420E-13 1.033E-15 1.272E-12 3.856E-07 1.834E-02

 At SCF step    5, forces are converged : 
  for the second time, max diff in force=  3.856E-07 < toldff=  2.000E-06

 Cartesian components of stress tensor (hartree/bohr^3)
  sigma(1 1)= -3.44500380E-03  sigma(3 2)=  3.40959761E-04
  sigma(2 2)= -5.44431532E-03  sigma(3 1)= -6.26573992E-12
  sigma(3 3)= -5.44431532E-03  sigma(2 1)= -6.26573992E-12

================================================================================

 ----iterations are completed or convergence reached----

 Mean square residual over all n,k,spin=   5.8494E-16; max=  1.0333E-15
   0.1250  0.1250  0.1250    1  8.02732E-16 kpt; spin; max resid(k); each band:
  8.03E-16
   0.3750  0.1250  0.1250    1  1.97832E-16 kpt; spin; max resid(k); each band:
  1.98E-16
  -0.3750  0.1250  0.1250    1  2.02247E-16 kpt; spin; max resid(k); each band:
  2.02E-16
  -0.1250  0.1250  0.1250    1  8.04200E-16 kpt; spin; max resid(k); each band:
  8.04E-16
   0.1250  0.3750  0.1250    1  6.79618E-16 kpt; spin; max resid(k); each band:
  6.80E-16
   0.3750  0.3750  0.1250    1  7.03254E-16 kpt; spin; max resid(k); each band:
  7.03E-16
  -0.3750  0.3750  0.1250    1  7.14508E-16 kpt; spin; max resid(k); each band:
  7.15E-16
  -0.1250  0.3750  0.1250    1  6.80708E-16 kpt; spin; max resid(k); each band:
  6.81E-16
   0.1250 -0.3750  0.1250    1  7.62434E-16 kpt; spin; max resid(k); each band:
  7.62E-16
   0.3750 -0.3750  0.1250    1  1.03333E-15 kpt; spin; max resid(k); each band:
  1.03E-15
  -0.3750 -0.3750  0.1250    1  1.01587E-15 kpt; spin; max resid(k); each band:
  1.02E-15
  -0.1250 -0.3750  0.1250    1  7.60678E-16 kpt; spin; max resid(k); each band:
  7.61E-16
   0.1250 -0.1250  0.1250    1  6.75560E-16 kpt; spin; max resid(k); each band:
  6.76E-16
   0.3750 -0.1250  0.1250    1  1.48962E-16 kpt; spin; max resid(k); each band:
  1.49E-16
   0.1250  0.3750  0.3750    1  2.99368E-16 kpt; spin; max resid(k); each band:
  2.99E-16
   0.3750  0.3750  0.3750    1  5.53216E-16 kpt; spin; max resid(k); each band:
  5.53E-16
  -0.3750  0.3750  0.3750    1  5.72108E-16 kpt; spin; max resid(k); each band:
  5.72E-16
  -0.1250  0.3750  0.3750    1  2.98894E-16 kpt; spin; max resid(k); each band:
  2.99E-16
   0.1250 -0.3750  0.3750    1  2.50778E-16 kpt; spin; max resid(k); each band:
  2.51E-16
   0.3750 -0.3750  0.3750    1  5.42494E-16 kpt; spin; max resid(k); each band:
  5.42E-16
 reduced coordinates (array xred) for    2 atoms
       0.000000000000      0.000000000000      0.000000000000
       0.500000000000      0.255637000000      0.255637000000
 rms dE/dt=  4.4933E-02; max dE/dt=  5.5031E-02; dE/dt below (all hartree)
    1       0.000000000476     -0.055031346706     -0.055031346706
    2      -0.000000000451      0.055031346885      0.055031346885

 cartesian coordinates (angstrom) at end:
    1      0.00000000000000     0.00000000000000     0.00000000000000
    2      0.79376581288500     0.40583182221697     0.40583182221697

 cartesian forces (hartree/bohr) at end:
    1     -0.00000000015446     0.01834378226516     0.01834378226516
    2      0.00000000015446    -0.01834378226516    -0.01834378226516
 frms,max,avg= 1.4977636E-02 1.8343782E-02  -4.251E-12 -2.974E-11 -2.974E-11 h/b

 cartesian forces (eV/Angstrom) at end:
    1     -0.00000000794270     0.94327513082333     0.94327513082333
    2      0.00000000794270    -0.94327513082333    -0.94327513082333
 frms,max,avg= 7.7018092E-01 9.4327513E-01  -2.186E-10 -1.529E-09 -1.529E-09 e/A
 length scales=  3.000000000000  3.000000000000  3.000000000000 bohr
              =  1.587531625770  1.587531625770  1.587531625770 angstroms
 Fermi (or HOMO) energy (hartree) =   0.31643   Average Vxc (hartree)=  -0.45798
 Eigenvalues (hartree) for nkpt=  20  k points:
 kpt#   1, nband=  1, wtk=  0.03125, kpt=  0.1250  0.1250  0.1250 (reduced coord)
  -0.43056
 kpt#   2, nband=  1, wtk=  0.03125, kpt=  0.3750  0.1250  0.1250 (reduced coord)
  -0.16040
 kpt#   3, nband=  1, wtk=  0.03125, kpt= -0.3750  0.1250  0.1250 (reduced coord)
  -0.16040
 kpt#   4, nband=  1, wtk=  0.03125, kpt= -0.1250  0.1250  0.1250 (reduced coord)
  -0.43056
 kpt#   5, nband=  1, wtk=  0.06250, kpt=  0.1250  0.3750  0.1250 (reduced coord)
  -0.18549
 kpt#   6, nband=  1, wtk=  0.06250, kpt=  0.3750  0.3750  0.1250 (reduced coord)
   0.08147
 kpt#   7, nband=  1, wtk=  0.06250, kpt= -0.3750  0.3750  0.1250 (reduced coord)
   0.08147
 kpt#   8, nband=  1, wtk=  0.06250, kpt= -0.1250  0.3750  0.1250 (reduced coord)
  -0.18549
 kpt#   9, nband=  1, wtk=  0.06250, kpt=  0.1250 -0.3750  0.1250 (reduced coord)
  -0.18671
 kpt#  10, nband=  1, wtk=  0.06250, kpt=  0.3750 -0.3750  0.1250 (reduced coord)
   0.08043
 kpt#  11, nband=  1, wtk=  0.06250, kpt= -0.3750 -0.3750  0.1250 (reduced coord)
   0.08043
 kpt#  12, nband=  1, wtk=  0.06250, kpt= -0.1250 -0.3750  0.1250 (reduced coord)
  -0.18671
 kpt#  13, nband=  1, wtk=  0.06250, kpt=  0.1250 -0.1250  0.1250 (reduced coord)
  -0.43090
 kpt#  14, nband=  1, wtk=  0.06250, kpt=  0.3750 -0.1250  0.1250 (reduced coord)
  -0.16070
 kpt#  15, nband=  1, wtk=  0.03125, kpt=  0.1250  0.3750  0.3750 (reduced coord)
   0.05420
 kpt#  16, nband=  1, wtk=  0.03125, kpt=  0.3750  0.3750  0.3750 (reduced coord)
   0.31643
 kpt#  17, nband=  1, wtk=  0.03125, kpt= -0.3750  0.3750  0.3750 (reduced coord)
   0.31643
 kpt#  18, nband=  1, wtk=  0.03125, kpt= -0.1250  0.3750  0.3750 (reduced coord)
   0.05420
 kpt#  19, nband=  1, wtk=  0.06250, kpt=  0.1250 -0.3750  0.3750 (reduced coord)
   0.04944
 kpt#  20, nband=  1, wtk=  0.06250, kpt=  0.3750 -0.3750  0.3750 (reduced coord)
   0.31224
 Total charge density [el/Bohr^3]
,     Maximum=    2.2232E-01  at reduced coord.    0.5000    0.2500    0.2500
,Next maximum=    2.2072E-01  at reduced coord.    0.0000    0.0000    0.0000
,     Minimum=    2.7158E-02  at reduced coord.    0.5000    0.6667    0.6667
,Next minimum=    2.7209E-02  at reduced coord.    0.0000    0.5833    0.5833
,  Integrated=    2.0000E+00

--------------------------------------------------------------------------------
 Components of total free energy (in Hartree) :

    Kinetic energy  =  1.27554032970998E+00
    Hartree energy  =  5.59485709157453E-02
    XC energy       = -7.63352398131762E-01
    Ewald energy    = -1.12663148189956E+00
    PspCore energy  =  6.22030071830427E-03
    Loc. psp. energy= -4.98786037820618E-01
    NL   psp  energy=  0.00000000000000E+00
    >>>>>>>>> Etotal= -1.05106071650791E+00

 Other information on the energy :
    Total energy(eV)= -2.86008166170634E+01 ; Band energy (Ha)=  -1.0885753431E-01
--------------------------------------------------------------------------------

 Cartesian components of stress tensor (hartree/bohr^3)
  sigma(1 1)= -3.44500380E-03  sigma(3 2)=  3.40959761E-04
  sigma(2 2)= -5.44431532E-03  sigma(3 1)= -6.26573992E-12
  sigma(3 3)= -5.44431532E-03  sigma(2 1)= -6.26573992E-12

-Cartesian components of stress tensor (GPa)         [Pressure=  1.4057E+02 GPa]
- sigma(1 1)= -1.01355494E+02  sigma(3 2)=  1.00313808E+01
- sigma(2 2)= -1.60177260E+02  sigma(3 1)= -1.84344402E-07
- sigma(3 3)= -1.60177260E+02  sigma(2 1)= -1.84344402E-07


--------------------------------------------------------------------------------
 STRING METHOD - CELL #    5/   7
--------------------------------------------------------------------------------

 Real(R)+Recip(G) space primitive vectors, cartesian coordinates (Bohr,Bohr^-1):
 R(1)=  3.0000000  0.0000000  0.0000000  G(1)=  0.3333333  0.0000000  0.0000000
 R(2)=  0.0000000  3.0000000  0.0000000  G(2)=  0.0000000  0.3333333  0.0000000
 R(3)=  0.0000000  0.0000000  3.0000000  G(3)=  0.0000000  0.0000000  0.3333333
 Unit cell volume ucvol=  2.7000000E+01 bohr^3
 Angles (23,13,12)=  9.00000000E+01  9.00000000E+01  9.00000000E+01 degrees

 getcut: wavevector=  0.0000  0.0000  0.0000  ngfft=  12  12  12
         ecut(hartree)=     15.000   => boxcut(ratio)=   2.29429

 getcut : COMMENT -
  Note that boxcut > 2.2 ; recall that boxcut=Gcut(box)/Gcut(sphere) = 2
  is sufficient for exact treatment of convolution.
  Such a large boxcut is a waste : you could raise ecut
  e.g. ecut=   19.739209 Hartrees makes boxcut=2

--------------------------------------------------------------------------------

P newkpt: treating      1 bands with npw=      78 for ikpt=   1 by node    0
P newkpt: treating      1 bands with npw=      73 for ikpt=   2 by node    0
P newkpt: treating      1 bands with npw=      73 for ikpt=   3 by node    0
P newkpt: treating      1 bands with npw=      78 for ikpt=   4 by node    0
P newkpt: treating      1 bands with npw=      73 for ikpt=   5 by node    0
P newkpt: treating      1 bands with npw=      76 for ikpt=   6 by node    1
P newkpt: treating      1 bands with npw=      76 for ikpt=   7 by node    1
P newkpt: treating      1 bands with npw=      73 for ikpt=   8 by node    1
P newkpt: treating      1 bands with npw=      73 for ikpt=   9 by node    1
P newkpt: treating      1 bands with npw=      76 for ikpt=  10 by node    1
P newkpt: treating      1 bands with npw=      76 for ikpt=  11 by node    2
P newkpt: treating      1 bands with npw=      73 for ikpt=  12 by node    2
P newkpt: treating      1 bands with npw=      78 for ikpt=  13 by node    2
P newkpt: treating      1 bands with npw=      73 for ikpt=  14 by node    2
P newkpt: treating      1 bands with npw=      76 for ikpt=  15 by node    2
P newkpt: treating      1 bands with npw=      72 for ikpt=  16 by node    3
P newkpt: treating      1 bands with npw=      72 for ikpt=  17 by node    3
P newkpt: treating      1 bands with npw=      76 for ikpt=  18 by node    3
P newkpt: treating      1 bands with npw=      76 for ikpt=  19 by node    3
P newkpt: treating      1 bands with npw=      72 for ikpt=  20 by node    3

_setup2: Arith. and geom. avg. npw (full set) are      74.625      74.598

================================================================================

     iter   Etot(hartree)      deltaE(h)  residm     vres2    diffor    maxfor
 ETOT  1  -1.0530120454710    -1.053E+00 1.873E-06 6.634E-01 2.084E-02 2.084E-02
 ETOT  2  -1.0535158950833    -5.038E-04 2.708E-10 4.444E-03 2.231E-03 1.880E-02
 ETOT  3  -1.0535178385759    -1.943E-06 1.084E-08 1.699E-05 1.305E-04 1.884E-02
 ETOT  4  -1.0535178432617    -4.686E-09 3.039E-11 8.389E-09 8.672E-06 1.883E-02
 ETOT  5  -1.0535178432642    -2.587E-12 1.522E-14 2.102E-12 5.727E-07 1.883E-02
 ETOT  6  -1.0535178432642     6.661E-16 6.452E-18 2.272E-15 6.338E-09 1.883E-02

 At SCF step    6, forces are converged : 
  for the second time, max diff in force=  6.338E-09 < toldff=  2.000E-06

 Cartesian components of stress tensor (hartree/bohr^3)
  sigma(1 1)= -3.81563843E-03  sigma(3 2)=  3.60681305E-04
  sigma(2 2)= -5.38029216E-03  sigma(3 1)= -3.47253732E-04
  sigma(3 3)= -5.38029216E-03  sigma(2 1)= -3.47253732E-04

================================================================================

 ----iterations are completed or convergence reached----

 Mean square residual over all n,k,spin=   1.7182E-18; max=  6.4518E-18
   0.1250  0.1250  0.1250    1  1.34634E-18 kpt; spin; max resid(k); each band:
  1.35E-18
   0.3750  0.1250  0.1250    1  7.62015E-19 kpt; spin; max resid(k); each band:
  7.62E-19
  -0.3750  0.1250  0.1250    1  4.33923E-19 kpt; spin; max resid(k); each band:
  4.34E-19
  -0.1250  0.1250  0.1250    1  9.64470E-19 kpt; spin; max resid(k); each band:
  9.64E-19
   0.1250  0.3750  0.1250    1  2.72838E-18 kpt; spin; max resid(k); each band:
  2.73E-18
   0.3750  0.3750  0.1250    1  1.38387E-18 kpt; spin; max resid(k); each band:
  1.38E-18
  -0.3750  0.3750  0.1250    1  2.47708E-18 kpt; spin; max resid(k); each band:
  2.48E-18
  -0.1250  0.3750  0.1250    1  1.23538E-18 kpt; spin; max resid(k); each band:
  1.24E-18
   0.1250 -0.3750  0.1250    1  7.81292E-19 kpt; spin; max resid(k); each band:
  7.81E-19
   0.3750 -0.3750  0.1250    1  1.75318E-18 kpt; spin; max resid(k); each band:
  1.75E-18
  -0.3750 -0.3750  0.1250    1  8.22224E-19 kpt; spin; max resid(k); each band:
  8.22E-19
  -0.1250 -0.3750  0.1250    1  8.12930E-19 kpt; spin; max resid(k); each band:
  8.13E-19
   0.1250 -0.1250  0.1250    1  1.18669E-18 kpt; spin; max resid(k); each band:
  1.19E-18
   0.3750 -0.1250  0.1250    1  4.91953E-19 kpt; spin; max resid(k); each band:
  4.92E-19
   0.1250  0.3750  0.3750    1  6.05223E-18 kpt; spin; max resid(k); each band:
  6.05E-18
   0.3750  0.3750  0.3750    1  1.24381E-18 kpt; spin; max resid(k); each band:
  1.24E-18
  -0.3750  0.3750  0.3750    1  3.37295E-19 kpt; spin; max resid(k); each band:
  3.37E-19
  -0.1250  0.3750  0.3750    1  6.45179E-18 kpt; spin; max resid(k); each band:
  6.45E-18
   0.1250 -0.3750  0.3750    1  5.87809E-19 kpt; spin; max resid(k); each band:
  5.88E-19
   0.3750 -0.3750  0.3750    1  2.51117E-18 kpt; spin; max resid(k); each band:
  2.51E-18
 reduced coordinates (array xred) for    2 atoms
       0.000000000000      0.000000000000      0.000000000000
       0.581454333333      0.255637000000      0.255637000000
 rms dE/dt=  5.6141E-02; max dE/dt=  5.6501E-02; dE/dt below (all hartree)
    1       0.055415478881     -0.056500788183     -0.056500788183
    2      -0.055415478841      0.056500788131      0.056500788131

 cartesian coordinates (angstrom) at end:
    1      0.00000000000000     0.00000000000000     0.00000000000000
    2      0.92307714310768     0.40583182221697     0.40583182221697

 cartesian forces (hartree/bohr) at end:
    1     -0.01847182628695     0.01883359605237     0.01883359605237
    2      0.01847182628695    -0.01883359605237    -0.01883359605237
 frms,max,avg= 1.8713783E-02 1.8833596E-02  -6.709E-12  8.663E-12  8.663E-12 h/b

 cartesian forces (eV/Angstrom) at end:
    1     -0.94985941860325     0.96846236634157     0.96846236634157
    2      0.94985941860325    -0.96846236634157    -0.96846236634157
 frms,max,avg= 9.6230134E-01 9.6846237E-01  -3.450E-10  4.455E-10  4.455E-10 e/A
 length scales=  3.000000000000  3.000000000000  3.000000000000 bohr
              =  1.587531625770  1.587531625770  1.587531625770 angstroms
 Fermi (or HOMO) energy (hartree) =   0.31267   Average Vxc (hartree)=  -0.45677
 Eigenvalues (hartree) for nkpt=  20  k points:
 kpt#   1, nband=  1, wtk=  0.03125, kpt=  0.1250  0.1250  0.1250 (reduced coord)
  -0.43239
 kpt#   2, nband=  1, wtk=  0.03125, kpt=  0.3750  0.1250  0.1250 (reduced coord)
  -0.16716
 kpt#   3, nband=  1, wtk=  0.03125, kpt= -0.3750  0.1250  0.1250 (reduced coord)
  -0.16504
 kpt#   4, nband=  1, wtk=  0.03125, kpt= -0.1250  0.1250  0.1250 (reduced coord)
  -0.43186
 kpt#   5, nband=  1, wtk=  0.06250, kpt=  0.1250  0.3750  0.1250 (reduced coord)
  -0.18804
 kpt#   6, nband=  1, wtk=  0.06250, kpt=  0.3750  0.3750  0.1250 (reduced coord)
   0.07207
 kpt#   7, nband=  1, wtk=  0.06250, kpt= -0.3750  0.3750  0.1250 (reduced coord)
   0.07724
 kpt#   8, nband=  1, wtk=  0.06250, kpt= -0.1250  0.3750  0.1250 (reduced coord)
  -0.18687
 kpt#   9, nband=  1, wtk=  0.06250, kpt=  0.1250 -0.3750  0.1250 (reduced coord)
  -0.18846
 kpt#  10, nband=  1, wtk=  0.06250, kpt=  0.3750 -0.3750  0.1250 (reduced coord)
   0.07481
 kpt#  11, nband=  1, wtk=  0.06250, kpt= -0.3750 -0.3750  0.1250 (reduced coord)
   0.07211
 kpt#  12, nband=  1, wtk=  0.06250, kpt= -0.1250 -0.3750  0.1250 (reduced coord)
  -0.18902
 kpt#  13, nband=  1, wtk=  0.06250, kpt=  0.1250 -0.1250  0.1250 (reduced coord)
  -0.43249
 kpt#  14, nband=  1, wtk=  0.06250, kpt=  0.3750 -0.1250  0.1250 (reduced coord)
  -0.16644
 kpt#  15, nband=  1, wtk=  0.03125, kpt=  0.1250  0.3750  0.3750 (reduced coord)
   0.05072
 kpt#  16, nband=  1, wtk=  0.03125, kpt=  0.3750  0.3750  0.3750 (reduced coord)
   0.30385
 kpt#  17, nband=  1, wtk=  0.03125, kpt= -0.3750  0.3750  0.3750 (reduced coord)
   0.31267
 kpt#  18, nband=  1, wtk=  0.03125, kpt= -0.1250  0.3750  0.3750 (reduced coord)
   0.05271
 kpt#  19, nband=  1, wtk=  0.06250, kpt=  0.1250 -0.3750  0.3750 (reduced coord)
   0.04679
 kpt#  20, nband=  1, wtk=  0.06250, kpt=  0.3750 -0.3750  0.3750 (reduced coord)
   0.30363
 Total charge density [el/Bohr^3]
,     Maximum=    2.2931E-01  at reduced coord.    0.9167    0.0833    0.0833
,Next maximum=    2.2888E-01  at reduced coord.    0.5833    0.2500    0.2500
,     Minimum=    2.4739E-02  at reduced coord.    0.3333    0.6667    0.6667
,Next minimum=    2.4796E-02  at reduced coord.    0.2500    0.6667    0.5833
,  Integrated=    2.0000E+00

--------------------------------------------------------------------------------
 Components of total free energy (in Hartree) :

    Kinetic energy  =  1.29233041201026E+00
    Hartree energy  =  6.29510320002772E-02
    XC energy       = -7.67685902222735E-01
    Ewald energy    = -1.11446879939629E+00
    PspCore energy  =  6.22030071830427E-03
    Loc. psp. energy= -5.32864886374058E-01
    NL   psp  energy=  0.00000000000000E+00
    >>>>>>>>> Etotal= -1.05351784326425E+00

 Other information on the energy :
    Total energy(eV)= -2.86676784364227E+01 ; Band energy (Ha)=  -1.1786689815E-01
--------------------------------------------------------------------------------

 Cartesian components of stress tensor (hartree/bohr^3)
  sigma(1 1)= -3.81563843E-03  sigma(3 2)=  3.60681305E-04
  sigma(2 2)= -5.38029216E-03  sigma(3 1)= -3.47253732E-04
  sigma(3 3)= -5.38029216E-03  sigma(2 1)= -3.47253732E-04

-Cartesian components of stress tensor (GPa)         [Pressure=  1.4295E+02 GPa]
- sigma(1 1)= -1.12259940E+02  sigma(3 2)=  1.06116086E+01
- sigma(2 2)= -1.58293634E+02  sigma(3 1)= -1.02165558E+01
- sigma(3 3)= -1.58293634E+02  sigma(2 1)= -1.02165558E+01


--------------------------------------------------------------------------------
 STRING METHOD - CELL #    6/   7
--------------------------------------------------------------------------------

 Real(R)+Recip(G) space primitive vectors, cartesian coordinates (Bohr,Bohr^-1):
 R(1)=  3.0000000  0.0000000  0.0000000  G(1)=  0.3333333  0.0000000  0.0000000
 R(2)=  0.0000000  3.0000000  0.0000000  G(2)=  0.0000000  0.3333333  0.0000000
 R(3)=  0.0000000  0.0000000  3.0000000  G(3)=  0.0000000  0.0000000  0.3333333
 Unit cell volume ucvol=  2.7000000E+01 bohr^3
 Angles (23,13,12)=  9.00000000E+01  9.00000000E+01  9.00000000E+01 degrees

 getcut: wavevector=  0.0000  0.0000  0.0000  ngfft=  12  12  12
         ecut(hartree)=     15.000   => boxcut(ratio)=   2.29429

 getcut : COMMENT -
  Note that boxcut > 2.2 ; recall that boxcut=Gcut(box)/Gcut(sphere) = 2
  is sufficient for exact treatment of convolution.
  Such a large boxcut is a waste : you could raise ecut
  e.g. ecut=   19.739209 Hartrees makes boxcut=2

--------------------------------------------------------------------------------

P newkpt: treating      1 bands with npw=      78 for ikpt=   1 by node    0
P newkpt: treating      1 bands with npw=      73 for ikpt=   2 by node    0
P newkpt: treating      1 bands with npw=      73 for ikpt=   3 by node    0
P newkpt: treating      1 bands with npw=      78 for ikpt=   4 by node    0
P newkpt: treating      1 bands with npw=      73 for ikpt=   5 by node    0
P newkpt: treating      1 bands with npw=      76 for ikpt=   6 by node    1
P newkpt: treating      1 bands with npw=      76 for ikpt=   7 by node    1
P newkpt: treating      1 bands with npw=      73 for ikpt=   8 by node    1
P newkpt: treating      1 bands with npw=      73 for ikpt=   9 by node    1
P newkpt: treating      1 bands with npw=      76 for ikpt=  10 by node    1
P newkpt: treating      1 bands with npw=      76 for ikpt=  11 by node    2
P newkpt: treating      1 bands with npw=      73 for ikpt=  12 by node    2
P newkpt: treating      1 bands with npw=      78 for ikpt=  13 by node    2
P newkpt: treating      1 bands with npw=      73 for ikpt=  14 by node    2
P newkpt: treating      1 bands with npw=      76 for ikpt=  15 by node    2
P newkpt: treating      1 bands with npw=      72 for ikpt=  16 by node    3
P newkpt: treating      1 bands with npw=      72 for ikpt=  17 by node    3
P newkpt: treating      1 bands with npw=      76 for ikpt=  18 by node    3
P newkpt: treating      1 bands with npw=      76 for ikpt=  19 by node    3
P newkpt: treating      1 bands with npw=      72 for ikpt=  20 by node    3

_setup2: Arith. and geom. avg. npw (full set) are      74.625      74.598

================================================================================

     iter   Etot(hartree)      deltaE(h)  residm     vres2    diffor    maxfor
 ETOT  1  -1.0576673456259    -1.058E+00 7.957E-07 1.163E+00 2.356E-02 2.356E-02
 ETOT  2  -1.0586695725693    -1.002E-03 6.912E-10 5.304E-03 3.396E-03 2.017E-02
 ETOT  3  -1.0586712359643    -1.663E-06 7.901E-09 4.772E-05 1.529E-04 2.001E-02
 ETOT  4  -1.0586712492414    -1.328E-08 6.717E-11 1.120E-08 2.168E-05 1.999E-02
 ETOT  5  -1.0586712492440    -2.603E-12 9.738E-15 3.036E-12 6.130E-07 1.999E-02
 ETOT  6  -1.0586712492440    -2.220E-16 5.520E-18 1.934E-15 6.214E-09 1.999E-02

 At SCF step    6, forces are converged : 
  for the second time, max diff in force=  6.214E-09 < toldff=  2.000E-06

 Cartesian components of stress tensor (hartree/bohr^3)
  sigma(1 1)= -4.72718824E-03  sigma(3 2)=  3.09264953E-04
  sigma(2 2)= -5.34033328E-03  sigma(3 1)= -3.69964553E-04
  sigma(3 3)= -5.34033328E-03  sigma(2 1)= -3.69964553E-04

================================================================================

 ----iterations are completed or convergence reached----

 Mean square residual over all n,k,spin=   1.7301E-18; max=  5.5198E-18
   0.1250  0.1250  0.1250    1  8.43987E-19 kpt; spin; max resid(k); each band:
  8.44E-19
   0.3750  0.1250  0.1250    1  1.72693E-18 kpt; spin; max resid(k); each band:
  1.73E-18
  -0.3750  0.1250  0.1250    1  2.27799E-18 kpt; spin; max resid(k); each band:
  2.28E-18
  -0.1250  0.1250  0.1250    1  1.16271E-18 kpt; spin; max resid(k); each band:
  1.16E-18
   0.1250  0.3750  0.1250    1  2.61807E-19 kpt; spin; max resid(k); each band:
  2.62E-19
   0.3750  0.3750  0.1250    1  2.89477E-19 kpt; spin; max resid(k); each band:
  2.89E-19
  -0.3750  0.3750  0.1250    1  3.75123E-18 kpt; spin; max resid(k); each band:
  3.75E-18
  -0.1250  0.3750  0.1250    1  2.29689E-19 kpt; spin; max resid(k); each band:
  2.30E-19
   0.1250 -0.3750  0.1250    1  6.15802E-19 kpt; spin; max resid(k); each band:
  6.16E-19
   0.3750 -0.3750  0.1250    1  2.71316E-18 kpt; spin; max resid(k); each band:
  2.71E-18
  -0.3750 -0.3750  0.1250    1  4.30407E-19 kpt; spin; max resid(k); each band:
  4.30E-19
  -0.1250 -0.3750  0.1250    1  2.87243E-19 kpt; spin; max resid(k); each band:
  2.87E-19
   0.1250 -0.1250  0.1250    1  1.21622E-18 kpt; spin; max resid(k); each band:
  1.22E-18
   0.3750 -0.1250  0.1250    1  1.87803E-18 kpt; spin; max resid(k); each band:
  1.88E-18
   0.1250  0.3750  0.3750    1  2.25773E-18 kpt; spin; max resid(k); each band:
  2.26E-18
   0.3750  0.3750  0.3750    1  5.51980E-18 kpt; spin; max resid(k); each band:
  5.52E-18
  -0.3750  0.3750  0.3750    1  2.52149E-18 kpt; spin; max resid(k); each band:
  2.52E-18
  -0.1250  0.3750  0.3750    1  1.48332E-18 kpt; spin; max resid(k); each band:
  1.48E-18
   0.1250 -0.3750  0.3750    1  7.30100E-19 kpt; spin; max resid(k); each band:
  7.30E-19
   0.3750 -0.3750  0.3750    1  4.40496E-18 kpt; spin; max resid(k); each band:
  4.40E-18
 reduced coordinates (array xred) for    2 atoms
       0.000000000000      0.000000000000      0.000000000000
       0.662908666667      0.255637000000      0.255637000000
 rms dE/dt=  5.2563E-02; max dE/dt=  5.9975E-02; dE/dt below (all hartree)
    1       0.059974876615     -0.048433019632     -0.048433019632
    2      -0.059974876641      0.048433019606      0.048433019606

 cartesian coordinates (angstrom) at end:
    1      0.00000000000000     0.00000000000000     0.00000000000000
    2      1.05238847333036     0.40583182221697     0.40583182221697

 cartesian forces (hartree/bohr) at end:
    1     -0.01999162554265     0.01614433987291     0.01614433987291
    2      0.01999162554265    -0.01614433987291    -0.01614433987291
 frms,max,avg= 1.7520888E-02 1.9991626E-02   4.406E-12  4.274E-12  4.274E-12 h/b

 cartesian forces (eV/Angstrom) at end:
    1     -1.02801063196930     0.83017526514177     0.83017526514177
    2      1.02801063196930    -0.83017526514177    -0.83017526514177
 frms,max,avg= 9.0096019E-01 1.0280106E+00   2.266E-10  2.198E-10  2.198E-10 e/A
 length scales=  3.000000000000  3.000000000000  3.000000000000 bohr
              =  1.587531625770  1.587531625770  1.587531625770 angstroms
 Fermi (or HOMO) energy (hartree) =   0.29220   Average Vxc (hartree)=  -0.45361
[...]
                       2.7126478409E-11 -6.0354042361E-04 -6.0354042361E-04
       fcart_5img3     1.7179860702E-03 -3.8928615128E-03 -3.8928615128E-03
                      -1.7179860702E-03  3.8928615128E-03  3.8928615128E-03
       fcart_6img3    -2.5813981835E-03 -2.0464843782E-04 -2.0464843782E-04
                       2.5813981835E-03  2.0464843782E-04  2.0464843782E-04
       fcart_7img3    -2.3627959875E-06  2.3627983582E-06  2.3627983582E-06
                       2.3627959875E-06 -2.3627983582E-06 -2.3627983582E-06
-          fftalg         112
     fxcartfactor      1.00000000E+01
           iatfix        1
           imgmov           2
           jdtset        1    2    3
              kpt      1.25000000E-01  1.25000000E-01  1.25000000E-01
                       3.75000000E-01  1.25000000E-01  1.25000000E-01
                      -3.75000000E-01  1.25000000E-01  1.25000000E-01
                      -1.25000000E-01  1.25000000E-01  1.25000000E-01
                       1.25000000E-01  3.75000000E-01  1.25000000E-01
                       3.75000000E-01  3.75000000E-01  1.25000000E-01
                      -3.75000000E-01  3.75000000E-01  1.25000000E-01
                      -1.25000000E-01  3.75000000E-01  1.25000000E-01
                       1.25000000E-01 -3.75000000E-01  1.25000000E-01
                       3.75000000E-01 -3.75000000E-01  1.25000000E-01
                      -3.75000000E-01 -3.75000000E-01  1.25000000E-01
                      -1.25000000E-01 -3.75000000E-01  1.25000000E-01
                       1.25000000E-01 -1.25000000E-01  1.25000000E-01
                       3.75000000E-01 -1.25000000E-01  1.25000000E-01
                       1.25000000E-01  3.75000000E-01  3.75000000E-01
                       3.75000000E-01  3.75000000E-01  3.75000000E-01
                      -3.75000000E-01  3.75000000E-01  3.75000000E-01
                      -1.25000000E-01  3.75000000E-01  3.75000000E-01
                       1.25000000E-01 -3.75000000E-01  3.75000000E-01
                       3.75000000E-01 -3.75000000E-01  3.75000000E-01
         kptrlatt        4    0    0      0    4    0      0    0    4
          kptrlen      1.20000000E+01
P           mkmem           5
           natfix           1
            natom           2
            nband           1
           ndtset           3
        ndynimage           5
            ngfft          12      12      12
           nimage           7
             nkpt          20
-           npkpt           4
            nstep          20
             nsym           2
        ntimimage          10
           ntypat           2
        optforces           1
           prtden           0
           prteig           0
        prtvolimg1          0
        prtvolimg2          1
        prtvolimg3          2
            prtwf           0
           shiftk      5.00000000E-01  5.00000000E-01  5.00000000E-01
          spgroup           8
           strten1    -5.6821488428E-03 -5.6821488432E-03 -5.6821488432E-03
                      -9.9837122710E-05 -9.9837122822E-05 -9.9837122822E-05
      strten_2img1    -5.5130354749E-03 -5.7490491138E-03 -5.7490491138E-03
                      -6.2956425456E-05 -6.4083351970E-05 -6.4083351970E-05
      strten_3img1    -5.7292768227E-03 -5.8069964238E-03 -5.8069964238E-03
                      -8.5230391428E-05 -1.0791022880E-04 -1.0791022880E-04
      strten_4img1    -4.7726752555E-03 -5.8318236184E-03 -5.8318236184E-03
                      -8.5256833817E-06 -4.8493647377E-14 -4.8493647377E-14
      strten_5img1    -5.7292768349E-03 -5.8069964242E-03 -5.8069964242E-03
                      -8.5230392852E-05  1.0791023193E-04  1.0791023193E-04
      strten_6img1    -5.5130354618E-03 -5.7490491063E-03 -5.7490491063E-03
                      -6.2956418003E-05  6.4083344356E-05  6.4083344356E-05
      strten_7img1    -5.6821488426E-03 -5.6821488430E-03 -5.6821488430E-03
                      -9.9837122896E-05  9.9837123022E-05  9.9837123022E-05
           strten2    -5.6821488428E-03 -5.6821488432E-03 -5.6821488432E-03
                      -9.9837122710E-05 -9.9837122822E-05 -9.9837122822E-05
      strten_2img2    -5.5130354749E-03 -5.7490491138E-03 -5.7490491138E-03
                      -6.2956425456E-05 -6.4083351970E-05 -6.4083351970E-05
      strten_3img2    -5.7292768227E-03 -5.8069964238E-03 -5.8069964238E-03
                      -8.5230391428E-05 -1.0791022880E-04 -1.0791022880E-04
      strten_4img2    -4.7726752555E-03 -5.8318236184E-03 -5.8318236184E-03
                      -8.5256833817E-06 -4.8493647377E-14 -4.8493647377E-14
      strten_5img2    -5.7292768349E-03 -5.8069964242E-03 -5.8069964242E-03
                      -8.5230392852E-05  1.0791023193E-04  1.0791023193E-04
      strten_6img2    -5.5130354618E-03 -5.7490491063E-03 -5.7490491063E-03
                      -6.2956418003E-05  6.4083344356E-05  6.4083344356E-05
      strten_7img2    -5.6821488426E-03 -5.6821488430E-03 -5.6821488430E-03
                      -9.9837122896E-05  9.9837123022E-05  9.9837123022E-05
           strten3    -5.6821488428E-03 -5.6821488432E-03 -5.6821488432E-03
                      -9.9837122710E-05 -9.9837122822E-05 -9.9837122822E-05
      strten_2img3    -5.5130354749E-03 -5.7490491138E-03 -5.7490491138E-03
                      -6.2956425456E-05 -6.4083351970E-05 -6.4083351970E-05
      strten_3img3    -5.7292768227E-03 -5.8069964238E-03 -5.8069964238E-03
                      -8.5230391428E-05 -1.0791022880E-04 -1.0791022880E-04
      strten_4img3    -4.7726752555E-03 -5.8318236184E-03 -5.8318236184E-03
                      -8.5256833817E-06 -4.8493647377E-14 -4.8493647377E-14
      strten_5img3    -5.7292768349E-03 -5.8069964242E-03 -5.8069964242E-03
                      -8.5230392852E-05  1.0791023193E-04  1.0791023193E-04
      strten_6img3    -5.5130354618E-03 -5.7490491063E-03 -5.7490491063E-03
                      -6.2956418003E-05  6.4083344356E-05  6.4083344356E-05
      strten_7img3    -5.6821488426E-03 -5.6821488430E-03 -5.6821488430E-03
                      -9.9837122896E-05  9.9837123022E-05  9.9837123022E-05
           symrel      1  0  0   0  1  0   0  0  1       1  0  0   0  0  1   0  1  0
           toldff      2.00000000E-06
           tolimg      1.00000000E-05 Hartree
            typat      1  2
              wtk        0.03125    0.03125    0.03125    0.03125    0.06250    0.06250
                         0.06250    0.06250    0.06250    0.06250    0.06250    0.06250
                         0.06250    0.06250    0.03125    0.03125    0.03125    0.03125
                         0.06250    0.06250
           xangst1     0.0000000000E+00  0.0000000000E+00  0.0000000000E+00
                       4.0583182222E-01  4.0583182222E-01  4.0583182222E-01
      xangst_2img1     0.0000000000E+00  0.0000000000E+00  0.0000000000E+00
                       5.3733734811E-01  3.2876466228E-01  3.2876466228E-01
      xangst_3img1     0.0000000000E+00  0.0000000000E+00  0.0000000000E+00
                       6.3678707573E-01  2.2941908867E-01  2.2941908867E-01
      xangst_4img1     0.0000000000E+00  0.0000000000E+00  0.0000000000E+00
                       7.9376581316E-01  1.7947127791E-01  1.7947127791E-01
      xangst_5img1     0.0000000000E+00  0.0000000000E+00  0.0000000000E+00
                       9.5074455069E-01  2.2941908864E-01  2.2941908864E-01
      xangst_6img1     0.0000000000E+00  0.0000000000E+00  0.0000000000E+00
                       1.0501942770E+00  3.2876466292E-01  3.2876466292E-01
      xangst_7img1     0.0000000000E+00  0.0000000000E+00  0.0000000000E+00
                       1.1816998036E+00  4.0583182222E-01  4.0583182222E-01
           xangst2     0.0000000000E+00  0.0000000000E+00  0.0000000000E+00
                       4.0583182222E-01  4.0583182222E-01  4.0583182222E-01
      xangst_2img2     0.0000000000E+00  0.0000000000E+00  0.0000000000E+00
                       5.3733734811E-01  3.2876466228E-01  3.2876466228E-01
      xangst_3img2     0.0000000000E+00  0.0000000000E+00  0.0000000000E+00
                       6.3678707573E-01  2.2941908867E-01  2.2941908867E-01
      xangst_4img2     0.0000000000E+00  0.0000000000E+00  0.0000000000E+00
                       7.9376581316E-01  1.7947127791E-01  1.7947127791E-01
      xangst_5img2     0.0000000000E+00  0.0000000000E+00  0.0000000000E+00
                       9.5074455069E-01  2.2941908864E-01  2.2941908864E-01
      xangst_6img2     0.0000000000E+00  0.0000000000E+00  0.0000000000E+00
                       1.0501942770E+00  3.2876466292E-01  3.2876466292E-01
      xangst_7img2     0.0000000000E+00  0.0000000000E+00  0.0000000000E+00
                       1.1816998036E+00  4.0583182222E-01  4.0583182222E-01
           xangst3     0.0000000000E+00  0.0000000000E+00  0.0000000000E+00
                       4.0583182222E-01  4.0583182222E-01  4.0583182222E-01
      xangst_2img3     0.0000000000E+00  0.0000000000E+00  0.0000000000E+00
                       5.3733734811E-01  3.2876466228E-01  3.2876466228E-01
      xangst_3img3     0.0000000000E+00  0.0000000000E+00  0.0000000000E+00
                       6.3678707573E-01  2.2941908867E-01  2.2941908867E-01
      xangst_4img3     0.0000000000E+00  0.0000000000E+00  0.0000000000E+00
                       7.9376581316E-01  1.7947127791E-01  1.7947127791E-01
      xangst_5img3     0.0000000000E+00  0.0000000000E+00  0.0000000000E+00
                       9.5074455069E-01  2.2941908864E-01  2.2941908864E-01
      xangst_6img3     0.0000000000E+00  0.0000000000E+00  0.0000000000E+00
                       1.0501942770E+00  3.2876466292E-01  3.2876466292E-01
      xangst_7img3     0.0000000000E+00  0.0000000000E+00  0.0000000000E+00
                       1.1816998036E+00  4.0583182222E-01  4.0583182222E-01
            xcart1     0.0000000000E+00  0.0000000000E+00  0.0000000000E+00
                       7.6691100000E-01  7.6691100000E-01  7.6691100000E-01
       xcart_2img1     0.0000000000E+00  0.0000000000E+00  0.0000000000E+00
                       1.0154204289E+00  6.2127517387E-01  6.2127517387E-01
       xcart_3img1     0.0000000000E+00  0.0000000000E+00  0.0000000000E+00
                       1.2033531781E+00  4.3353924725E-01  4.3353924725E-01
       xcart_4img1     0.0000000000E+00  0.0000000000E+00  0.0000000000E+00
                       1.5000000005E+00  3.3915156397E-01  3.3915156397E-01
       xcart_5img1     0.0000000000E+00  0.0000000000E+00  0.0000000000E+00
                       1.7966468231E+00  4.3353924719E-01  4.3353924719E-01
       xcart_6img1     0.0000000000E+00  0.0000000000E+00  0.0000000000E+00
                       1.9845795698E+00  6.2127517508E-01  6.2127517508E-01
       xcart_7img1     0.0000000000E+00  0.0000000000E+00  0.0000000000E+00
                       2.2330890000E+00  7.6691100000E-01  7.6691100000E-01
            xcart2     0.0000000000E+00  0.0000000000E+00  0.0000000000E+00
                       7.6691100000E-01  7.6691100000E-01  7.6691100000E-01
       xcart_2img2     0.0000000000E+00  0.0000000000E+00  0.0000000000E+00
                       1.0154204289E+00  6.2127517387E-01  6.2127517387E-01
       xcart_3img2     0.0000000000E+00  0.0000000000E+00  0.0000000000E+00
                       1.2033531781E+00  4.3353924725E-01  4.3353924725E-01
       xcart_4img2     0.0000000000E+00  0.0000000000E+00  0.0000000000E+00
                       1.5000000005E+00  3.3915156397E-01  3.3915156397E-01
       xcart_5img2     0.0000000000E+00  0.0000000000E+00  0.0000000000E+00
                       1.7966468231E+00  4.3353924719E-01  4.3353924719E-01
       xcart_6img2     0.0000000000E+00  0.0000000000E+00  0.0000000000E+00
                       1.9845795698E+00  6.2127517508E-01  6.2127517508E-01
       xcart_7img2     0.0000000000E+00  0.0000000000E+00  0.0000000000E+00
                       2.2330890000E+00  7.6691100000E-01  7.6691100000E-01
            xcart3     0.0000000000E+00  0.0000000000E+00  0.0000000000E+00
                       7.6691100000E-01  7.6691100000E-01  7.6691100000E-01
       xcart_2img3     0.0000000000E+00  0.0000000000E+00  0.0000000000E+00
                       1.0154204289E+00  6.2127517387E-01  6.2127517387E-01
       xcart_3img3     0.0000000000E+00  0.0000000000E+00  0.0000000000E+00
                       1.2033531781E+00  4.3353924725E-01  4.3353924725E-01
       xcart_4img3     0.0000000000E+00  0.0000000000E+00  0.0000000000E+00
                       1.5000000005E+00  3.3915156397E-01  3.3915156397E-01
       xcart_5img3     0.0000000000E+00  0.0000000000E+00  0.0000000000E+00
                       1.7966468231E+00  4.3353924719E-01  4.3353924719E-01
       xcart_6img3     0.0000000000E+00  0.0000000000E+00  0.0000000000E+00
                       1.9845795698E+00  6.2127517508E-01  6.2127517508E-01
       xcart_7img3     0.0000000000E+00  0.0000000000E+00  0.0000000000E+00
                       2.2330890000E+00  7.6691100000E-01  7.6691100000E-01
             xred1     0.0000000000E+00  0.0000000000E+00  0.0000000000E+00
                       2.5563700000E-01  2.5563700000E-01  2.5563700000E-01
        xred_2img1     0.0000000000E+00  0.0000000000E+00  0.0000000000E+00
                       3.3847347630E-01  2.0709172462E-01  2.0709172462E-01
        xred_3img1     0.0000000000E+00  0.0000000000E+00  0.0000000000E+00
                       4.0111772603E-01  1.4451308242E-01  1.4451308242E-01
        xred_4img1     0.0000000000E+00  0.0000000000E+00  0.0000000000E+00
                       5.0000000017E-01  1.1305052132E-01  1.1305052132E-01
        xred_5img1     0.0000000000E+00  0.0000000000E+00  0.0000000000E+00
                       5.9888227438E-01  1.4451308240E-01  1.4451308240E-01
        xred_6img1     0.0000000000E+00  0.0000000000E+00  0.0000000000E+00
                       6.6152652326E-01  2.0709172503E-01  2.0709172503E-01
        xred_7img1     0.0000000000E+00  0.0000000000E+00  0.0000000000E+00
                       7.4436300000E-01  2.5563700000E-01  2.5563700000E-01
             xred2     0.0000000000E+00  0.0000000000E+00  0.0000000000E+00
                       2.5563700000E-01  2.5563700000E-01  2.5563700000E-01
        xred_2img2     0.0000000000E+00  0.0000000000E+00  0.0000000000E+00
                       3.3847347630E-01  2.0709172462E-01  2.0709172462E-01
        xred_3img2     0.0000000000E+00  0.0000000000E+00  0.0000000000E+00
                       4.0111772603E-01  1.4451308242E-01  1.4451308242E-01
        xred_4img2     0.0000000000E+00  0.0000000000E+00  0.0000000000E+00
                       5.0000000017E-01  1.1305052132E-01  1.1305052132E-01
        xred_5img2     0.0000000000E+00  0.0000000000E+00  0.0000000000E+00
                       5.9888227438E-01  1.4451308240E-01  1.4451308240E-01
        xred_6img2     0.0000000000E+00  0.0000000000E+00  0.0000000000E+00
                       6.6152652326E-01  2.0709172503E-01  2.0709172503E-01
        xred_7img2     0.0000000000E+00  0.0000000000E+00  0.0000000000E+00
                       7.4436300000E-01  2.5563700000E-01  2.5563700000E-01
             xred3     0.0000000000E+00  0.0000000000E+00  0.0000000000E+00
                       2.5563700000E-01  2.5563700000E-01  2.5563700000E-01
        xred_2img3     0.0000000000E+00  0.0000000000E+00  0.0000000000E+00
                       3.3847347630E-01  2.0709172462E-01  2.0709172462E-01
        xred_3img3     0.0000000000E+00  0.0000000000E+00  0.0000000000E+00
                       4.0111772603E-01  1.4451308242E-01  1.4451308242E-01
        xred_4img3     0.0000000000E+00  0.0000000000E+00  0.0000000000E+00
                       5.0000000017E-01  1.1305052132E-01  1.1305052132E-01
        xred_5img3     0.0000000000E+00  0.0000000000E+00  0.0000000000E+00
                       5.9888227438E-01  1.4451308240E-01  1.4451308240E-01
        xred_6img3     0.0000000000E+00  0.0000000000E+00  0.0000000000E+00
                       6.6152652326E-01  2.0709172503E-01  2.0709172503E-01
        xred_7img3     0.0000000000E+00  0.0000000000E+00  0.0000000000E+00
                       7.4436300000E-01  2.5563700000E-01  2.5563700000E-01
            znucl        1.00000    1.00000

================================================================================


- Timing analysis has been suppressed with timopt=0



================================================================================

 Suggested references for the acknowledgment of ABINIT usage.

 The users of ABINIT have little formal obligations with respect to the ABINIT group
 (those specified in the GNU General Public License, http://www.gnu.org/copyleft/gpl.txt).
 However, it is common practice in the scientific literature,
 to acknowledge the efforts of people that have made the research possible.
 In this spirit, please find below suggested citations of work written by ABINIT developers,
 corresponding to implementations inside of ABINIT that you have used in the present run.
 Note also that it will be of great value to readers of publications presenting these results,
 to read papers enabling them to understand the theoretical formalism and details
 of the ABINIT implementation.
 For information on why they are suggested, see also http://www.abinit.org/about/?text=acknowledgments.

 [1] ABINIT : First-principles approach of materials and nanosystem properties.
 X. Gonze, B. Amadon, P.-M. Anglade, J.-M. Beuken, F. Bottin, P. Boulanger, F. Bruneval,
 D. Caliste, R. Caracas, M. Cote, T. Deutsch, L. Genovese, Ph. Ghosez, M. Giantomassi
 S. Goedecker, D.R. Hamann, P. Hermet, F. Jollet, G. Jomard, S. Leroux, M. Mancini, S. Mazevet,
 M.J.T. Oliveira, G. Onida, Y. Pouillon, T. Rangel, G.-M. Rignanese, D. Sangalli, R. Shaltaf,
 M. Torrent, M.J. Verstraete, G. Zerah, J.W. Zwanziger
 Computer Phys. Comm. 180, 2582-2615 (2009).
 Comment : the third generic paper describing the ABINIT project.
 Note that a version of this paper, that is not formatted for Computer Phys. Comm. 
 is available at http://www.abinit.org/about/ABINIT_CPC_v10.pdf .
 The licence allows the authors to put it on the Web.

 [2] A brief introduction to the ABINIT software package.
 X. Gonze, G.-M. Rignanese, M. Verstraete, J.-M. Beuken, Y. Pouillon, R. Caracas, F. Jollet,
 M. Torrent, G. Zerah, M. Mikami, Ph. Ghosez, M. Veithen, J.-Y. Raty, V. Olevano, F. Bruneval,
 L. Reining, R. Godby, G. Onida, D.R. Hamann, and D.C. Allan.
 Z. Kristallogr. 220, 558-562 (2005).
 Comment : the second generic paper describing the ABINIT project. Note that this paper
 should be cited especially if you are using the GW part of ABINIT, as several authors
 of this part are not in the list of authors of the first or third paper.
 The .pdf of the latter paper is available at http://www.abinit.org/about/zfk_0505-06_558-562.pdf.
 Note that it should not redistributed (Copyright by Oldenburg Wissenshaftverlag,
 the licence allows the authors to put it on the Web).


 And optionally :

 [3] First-principles computation of material properties : the ABINIT software project. 
 X. Gonze, J.-M. Beuken, R. Caracas, F. Detraux, M. Fuchs, G.-M. Rignanese, L. Sindic,
 M. Verstraete, G. Zerah, F. Jollet, M. Torrent, A. Roy, M. Mikami, Ph. Ghosez, J.-Y. Raty, D.C. Allan.
 Computational Materials Science 25, 478-492 (2002). http://dx.doi.org/10.1016/S0927-0256(02)00325-7
 Comment : the original paper describing the ABINIT project.

 [4] Fast radix 2, 3, 4 and 5 kernels for Fast Fourier Transformations
 on computers with overlapping multiply-add instructions.
 S. Goedecker, SIAM J. on Scientific Computing 18, 1605 (1997).
-
- Proc.   0 individual time (sec): cpu=          4.1  wall=          4.3

================================================================================

 Calculation completed.
.Delivered    0 WARNINGs and 282 COMMENTs to log file.
+Overall time at end (sec) : cpu=         16.9  wall=         17.1
