
.Version 7.10.2 of ABINIT 
.(MPI version, prepared for a x86_64_linux_gnu4.7 computer) 

.Copyright (C) 1998-2014 ABINIT group . 
 ABINIT comes with ABSOLUTELY NO WARRANTY.
 It is free software, and you are welcome to redistribute it
 under certain conditions (GNU General Public License,
 see ~abinit/COPYING or http://www.gnu.org/copyleft/gpl.txt).

 ABINIT is a project of the Universite Catholique de Louvain,
 Corning Inc. and other collaborators, see ~abinit/doc/developers/contributors.txt .
 Please read ~abinit/doc/users/acknowledgments.html for suggested
 acknowledgments of the ABINIT effort.
 For more information, see http://www.abinit.org .

.Starting date : Tue 11 Nov 2014.
- ( at 12h01 )
  
- input  file    -> t22.in
- output file    -> t22_MPI4.out
- root for input  files -> t22_MPI4i
- root for output files -> t22_MPI4o


 DATASET    1 : space group R-3 m (#166); Bravais hR (rhombohedral)
================================================================================
 Values of the parameters that define the memory need for DATASET  1.
   intxc =         0  ionmov =         0    iscf =        17 xclevel =         1
  lmnmax =         8   lnmax =         4   mband =        12  mffmem =         1
P  mgfft =        18   mkmem =         1 mpssoang=         2     mpw =        64
  mqgrid =      3001   natom =         2    nfft =      2916    nkpt =         1
  nloalg =         4  nspden =         1 nspinor =         1  nsppol =         1
    nsym =        12  n1xccc =         1  ntypat =         1  occopt =         0
Pmy_natom=         1
 PAW method is used; the additional fine FFT grid is defined by:
   mgfftf=        36    nfftf =     23328
================================================================================
P This job should need less than                       7.601 Mbytes of memory.
  Rough estimation (10% accuracy) of disk space for files :
_ WF disk file :      0.025 Mbytes ; DEN or POT disk file :      0.180 Mbytes.
================================================================================


 DATASET    2 : space group R-3 m (#166); Bravais hR (rhombohedral)
================================================================================
 Values of the parameters that define the memory need for DATASET  2.
   intxc =         0  ionmov =         0    iscf =        17 xclevel =         1
  lmnmax =         8   lnmax =         4   mband =        12  mffmem =         1
P  mgfft =        18   mkmem =         1 mpssoang=         2     mpw =        64
  mqgrid =      3001   natom =         2    nfft =      2916    nkpt =         1
  nloalg =         4  nspden =         1 nspinor =         1  nsppol =         1
    nsym =        12  n1xccc =         1  ntypat =         1  occopt =         7
Pmy_natom=         1
 PAW method is used; the additional fine FFT grid is defined by:
   mgfftf=        36    nfftf =     23328
================================================================================
P This job should need less than                       8.334 Mbytes of memory.
  Rough estimation (10% accuracy) of disk space for files :
_ WF disk file :      0.025 Mbytes ; DEN or POT disk file :      0.180 Mbytes.
================================================================================


 DATASET    3 : space group R-3 m (#166); Bravais hR (rhombohedral)
================================================================================
 Values of the parameters that define the memory need for DATASET  3.
   intxc =         0  ionmov =         0    iscf =        17 xclevel =         1
  lmnmax =         8   lnmax =         4   mband =        12  mffmem =         1
P  mgfft =        18   mkmem =         5 mpssoang=         2     mpw =        68
  mqgrid =      3001   natom =         2    nfft =      2916    nkpt =         5
  nloalg =         4  nspden =         1 nspinor =         1  nsppol =         1
    nsym =        12  n1xccc =         1  ntypat =         1  occopt =         0
Pmy_natom=         1
 PAW method is used; the additional fine FFT grid is defined by:
   mgfftf=        36    nfftf =     23328
================================================================================
P This job should need less than                       7.664 Mbytes of memory.
  Rough estimation (10% accuracy) of disk space for files :
_ WF disk file :      0.127 Mbytes ; DEN or POT disk file :      0.180 Mbytes.
================================================================================


 DATASET    4 : space group R-3 m (#166); Bravais hR (rhombohedral)
================================================================================
 Values of the parameters that define the memory need for DATASET  4.
   intxc =         0  ionmov =         0    iscf =        17 xclevel =         1
  lmnmax =         8   lnmax =         4   mband =        12  mffmem =         1
P  mgfft =        18   mkmem =         5 mpssoang=         2     mpw =        68
  mqgrid =      3001   natom =         2    nfft =      2916    nkpt =         5
  nloalg =         4  nspden =         1 nspinor =         1  nsppol =         1
    nsym =        12  n1xccc =         1  ntypat =         1  occopt =         7
Pmy_natom=         1
 PAW method is used; the additional fine FFT grid is defined by:
   mgfftf=        36    nfftf =     23328
================================================================================
P This job should need less than                       8.397 Mbytes of memory.
  Rough estimation (10% accuracy) of disk space for files :
_ WF disk file :      0.127 Mbytes ; DEN or POT disk file :      0.180 Mbytes.
================================================================================


 DATASET    5 : space group R-3 m (#166); Bravais hR (rhombohedral)
================================================================================
 Values of the parameters that define the memory need for DATASET  5.
   intxc =         0  ionmov =         3    iscf =         7 xclevel =         1
  lmnmax =         8   lnmax =         4   mband =        12  mffmem =         1
P  mgfft =        18   mkmem =         1 mpssoang=         2     mpw =        64
  mqgrid =      3001   natom =         2    nfft =      2916    nkpt =         1
  nloalg =         4  nspden =         1 nspinor =         1  nsppol =         1
    nsym =        12  n1xccc =         1  ntypat =         1  occopt =         0
Pmy_natom=         1
 PAW method is used; the additional fine FFT grid is defined by:
   mgfftf=        36    nfftf =     23328
================================================================================
P This job should need less than                       7.067 Mbytes of memory.
  Rough estimation (10% accuracy) of disk space for files :
_ WF disk file :      0.025 Mbytes ; DEN or POT disk file :      0.180 Mbytes.
================================================================================


 DATASET    6 : space group R-3 m (#166); Bravais hR (rhombohedral)
================================================================================
 Values of the parameters that define the memory need for DATASET  6.
   intxc =         0  ionmov =         3    iscf =        17 xclevel =         1
  lmnmax =         8   lnmax =         4   mband =        12  mffmem =         1
P  mgfft =        18   mkmem =         1 mpssoang=         2     mpw =        64
  mqgrid =      3001   natom =         2    nfft =      2916    nkpt =         1
  nloalg =         4  nspden =         1 nspinor =         1  nsppol =         1
    nsym =        12  n1xccc =         1  ntypat =         1  occopt =         7
Pmy_natom=         1
 PAW method is used; the additional fine FFT grid is defined by:
   mgfftf=        36    nfftf =     23328
================================================================================
P This job should need less than                       8.334 Mbytes of memory.
  Rough estimation (10% accuracy) of disk space for files :
_ WF disk file :      0.025 Mbytes ; DEN or POT disk file :      0.180 Mbytes.
================================================================================


 DATASET    7 : space group R-3 m (#166); Bravais hR (rhombohedral)
================================================================================
 Values of the parameters that define the memory need for DATASET  7.
   intxc =         0  ionmov =         3    iscf =        17 xclevel =         1
  lmnmax =         8   lnmax =         4   mband =        12  mffmem =         1
P  mgfft =        18   mkmem =         5 mpssoang=         2     mpw =        90
  mqgrid =      3001   natom =         2    nfft =      2916    nkpt =         5
  nloalg =         4  nspden =         1 nspinor =         1  nsppol =         1
    nsym =        12  n1xccc =         1  ntypat =         1  occopt =         0
Pmy_natom=         1
 PAW method is used; the additional fine FFT grid is defined by:
   mgfftf=        36    nfftf =     23328
================================================================================
P This job should need less than                       7.689 Mbytes of memory.
  Rough estimation (10% accuracy) of disk space for files :
_ WF disk file :      0.167 Mbytes ; DEN or POT disk file :      0.180 Mbytes.
================================================================================


 DATASET    8 : space group R-3 m (#166); Bravais hR (rhombohedral)
================================================================================
 Values of the parameters that define the memory need for DATASET  8.
   intxc =         0  ionmov =         3    iscf =        17 xclevel =         1
  lmnmax =         8   lnmax =         4   mband =        12  mffmem =         1
P  mgfft =        18   mkmem =         5 mpssoang=         2     mpw =        90
  mqgrid =      3001   natom =         2    nfft =      2916    nkpt =         5
  nloalg =         4  nspden =         1 nspinor =         1  nsppol =         1
    nsym =        12  n1xccc =         1  ntypat =         1  occopt =         7
Pmy_natom=         1
 PAW method is used; the additional fine FFT grid is defined by:
   mgfftf=        36    nfftf =     23328
================================================================================
P This job should need less than                       8.422 Mbytes of memory.
  Rough estimation (10% accuracy) of disk space for files :
_ WF disk file :      0.167 Mbytes ; DEN or POT disk file :      0.180 Mbytes.
================================================================================


 DATASET    9 : space group R-3 m (#166); Bravais hR (rhombohedral)
================================================================================
 Values of the parameters that define the memory need for DATASET  9.
   intxc =         0  ionmov =         0    iscf =        17 xclevel =         1
  lmnmax =         8   lnmax =         4   mband =        12  mffmem =         1
P  mgfft =        18   mkmem =         1 mpssoang=         2     mpw =        64
  mqgrid =      3001   natom =         2    nfft =      2916    nkpt =         1
  nloalg =         4  nspden =         2 nspinor =         1  nsppol =         2
    nsym =        12  n1xccc =         1  ntypat =         1  occopt =         1
Pmy_natom=         1
 PAW method is used; the additional fine FFT grid is defined by:
   mgfftf=        36    nfftf =     23328
================================================================================
P This job should need less than                      12.958 Mbytes of memory.
  Rough estimation (10% accuracy) of disk space for files :
_ WF disk file :      0.049 Mbytes ; DEN or POT disk file :      0.358 Mbytes.
================================================================================

--------------------------------------------------------------------------------
------------- Echo of variables that govern the present computation ------------
--------------------------------------------------------------------------------
-
- outvars: echo of selected default values                                      
-   accesswff0 =  0 , fftalg0 =112 , wfoptalg0 = 10
-
- outvars: echo of global parameters not present in the input file              
-  max_nthreads =    0
-
 -outvars: echo values of preprocessed input variables --------
            acell      7.0000000000E+00  7.0000000000E+00  7.0000000000E+00 Bohr
              amu      1.20110000E+01
        bs_loband1          0
        bs_loband2          0
        bs_loband3          0
        bs_loband4          0
        bs_loband5          0
        bs_loband6          0
        bs_loband7          0
        bs_loband8          0
        bs_loband9          0       0
           diemac      1.20000000E+01
          dilatmx1     1.00000000E+00
          dilatmx2     1.00000000E+00
          dilatmx3     1.00000000E+00
          dilatmx4     1.00000000E+00
          dilatmx5     1.00000000E+00
          dilatmx6     1.00000000E+00
          dilatmx7     1.10000000E+00
          dilatmx8     1.10000000E+00
          dilatmx9     1.00000000E+00
             ecut      1.60000000E+01 Hartree
           ecutsm1     0.00000000E+00 Hartree
           ecutsm2     0.00000000E+00 Hartree
           ecutsm3     0.00000000E+00 Hartree
           ecutsm4     0.00000000E+00 Hartree
           ecutsm5     0.00000000E+00 Hartree
           ecutsm6     0.00000000E+00 Hartree
           ecutsm7     5.00000000E-01 Hartree
           ecutsm8     5.00000000E-01 Hartree
           ecutsm9     0.00000000E+00 Hartree
           enunit           2
-          fftalg         401
      fft_opt_lob           2
           ionmov1          0
           ionmov2          0
           ionmov3          0
           ionmov4          0
           ionmov5          3
           ionmov6          3
           ionmov7          3
           ionmov8          3
           ionmov9          0
           iprcch           6
             iscf1         17
             iscf2         17
             iscf3         17
             iscf4         17
             iscf5          7
             iscf6         17
             iscf7         17
             iscf8         17
             iscf9         17
           istwfk1       1
           istwfk2       1
           istwfk5       1
           istwfk6       1
           istwfk9       1
              ixc1          2
              ixc2          2
              ixc3          2
              ixc4          2
              ixc5          2
              ixc6          2
              ixc7          2
              ixc8          2
              ixc9          1
           jdtset        1    2    3    4    5    6    7    8    9
              kpt1     0.00000000E+00  0.00000000E+00  0.00000000E+00
              kpt2     0.00000000E+00  0.00000000E+00  0.00000000E+00
              kpt3    -2.50000000E-01  5.00000000E-01  0.00000000E+00
                      -2.50000000E-01 -2.50000000E-01  2.50000000E-01
                      -2.50000000E-01  0.00000000E+00  0.00000000E+00
                       5.00000000E-01  5.00000000E-01  2.50000000E-01
                      -2.50000000E-01 -2.50000000E-01 -2.50000000E-01
              kpt4    -2.50000000E-01  5.00000000E-01  0.00000000E+00
                      -2.50000000E-01 -2.50000000E-01  2.50000000E-01
                      -2.50000000E-01  0.00000000E+00  0.00000000E+00
                       5.00000000E-01  5.00000000E-01  2.50000000E-01
                      -2.50000000E-01 -2.50000000E-01 -2.50000000E-01
              kpt5     0.00000000E+00  0.00000000E+00  0.00000000E+00
              kpt6     0.00000000E+00  0.00000000E+00  0.00000000E+00
              kpt7    -2.50000000E-01  5.00000000E-01  0.00000000E+00
                      -2.50000000E-01 -2.50000000E-01  2.50000000E-01
                      -2.50000000E-01  0.00000000E+00  0.00000000E+00
                       5.00000000E-01  5.00000000E-01  2.50000000E-01
                      -2.50000000E-01 -2.50000000E-01 -2.50000000E-01
              kpt8    -2.50000000E-01  5.00000000E-01  0.00000000E+00
                      -2.50000000E-01 -2.50000000E-01  2.50000000E-01
                      -2.50000000E-01  0.00000000E+00  0.00000000E+00
                       5.00000000E-01  5.00000000E-01  2.50000000E-01
                      -2.50000000E-01 -2.50000000E-01 -2.50000000E-01
              kpt9     0.00000000E+00  0.00000000E+00  0.00000000E+00
           kptopt1          0
           kptopt2          0
           kptopt3          1
           kptopt4          1
           kptopt5          0
           kptopt6          0
           kptopt7          1
           kptopt8          1
           kptopt9          0
         kptrlatt        2   -2    2     -2    2    2     -2   -2    2
          kptrlen1     3.00000000E+01
          kptrlen2     3.00000000E+01
          kptrlen3     1.40000000E+01
          kptrlen4     1.40000000E+01
          kptrlen5     3.00000000E+01
          kptrlen6     3.00000000E+01
          kptrlen7     1.40000000E+01
          kptrlen8     1.40000000E+01
          kptrlen9     3.00000000E+01
P           mkmem1          1
P           mkmem2          1
P           mkmem3          5
P           mkmem4          5
P           mkmem5          1
P           mkmem6          1
P           mkmem7          5
P           mkmem8          5
P           mkmem9          1
            natom           2
            nband1         12
            nband2         12
            nband3         12
            nband4         12
            nband5         12
            nband6         12
            nband7         12
            nband8         12
            nband9         12
           ndtset           9
            ngfft          18      18      18
          ngfftdg          36      36      36
             nkpt1          1
             nkpt2          1
             nkpt3          5
             nkpt4          5
             nkpt5          1
             nkpt6          1
             nkpt7          5
             nkpt8          5
             nkpt9          1
-          npband           2
-           npfft           2
-          np_slk          10
           nspden1          1
           nspden2          1
           nspden3          1
           nspden4          1
           nspden5          1
           nspden6          1
           nspden7          1
           nspden8          1
           nspden9          2
           nsppol1          1
           nsppol2          1
           nsppol3          1
           nsppol4          1
           nsppol5          1
           nsppol6          1
           nsppol7          1
           nsppol8          1
           nsppol9          2
            nstep           5
             nsym          12
            ntime1          1
            ntime2          1
            ntime3          1
            ntime4          1
            ntime5          3
            ntime6          3
            ntime7          3
            ntime8          3
            ntime9          1
           ntypat           1
              occ1     2.000000  2.000000  2.000000  2.000000  0.000000  0.000000
                       0.000000  0.000000  0.000000  0.000000  0.000000  0.000000
              occ2     2.000000  2.000000  2.000000  2.000000  0.000000  0.000000
                       0.000000  0.000000  0.000000  0.000000  0.000000  0.000000
              occ3     2.000000  2.000000  2.000000  2.000000  0.000000  0.000000
                       0.000000  0.000000  0.000000  0.000000  0.000000  0.000000
              occ4     2.000000  2.000000  2.000000  2.000000  0.000000  0.000000
                       0.000000  0.000000  0.000000  0.000000  0.000000  0.000000
                       2.000000  2.000000  2.000000  2.000000  0.000000  0.000000
                       0.000000  0.000000  0.000000  0.000000  0.000000  0.000000
                       2.000000  2.000000  2.000000  2.000000  0.000000  0.000000
                       0.000000  0.000000  0.000000  0.000000  0.000000  0.000000
                       2.000000  2.000000  2.000000  2.000000  0.000000  0.000000
                       0.000000  0.000000  0.000000  0.000000  0.000000  0.000000
                       2.000000  2.000000  2.000000  2.000000  0.000000  0.000000
                       0.000000  0.000000  0.000000  0.000000  0.000000  0.000000
              occ5     2.000000  2.000000  2.000000  2.000000  0.000000  0.000000
                       0.000000  0.000000  0.000000  0.000000  0.000000  0.000000
              occ6     2.000000  2.000000  2.000000  2.000000  0.000000  0.000000
                       0.000000  0.000000  0.000000  0.000000  0.000000  0.000000
              occ7     2.000000  2.000000  2.000000  2.000000  0.000000  0.000000
                       0.000000  0.000000  0.000000  0.000000  0.000000  0.000000
              occ8     2.000000  2.000000  2.000000  2.000000  0.000000  0.000000
                       0.000000  0.000000  0.000000  0.000000  0.000000  0.000000
                       2.000000  2.000000  2.000000  2.000000  0.000000  0.000000
                       0.000000  0.000000  0.000000  0.000000  0.000000  0.000000
                       2.000000  2.000000  2.000000  2.000000  0.000000  0.000000
                       0.000000  0.000000  0.000000  0.000000  0.000000  0.000000
                       2.000000  2.000000  2.000000  2.000000  0.000000  0.000000
                       0.000000  0.000000  0.000000  0.000000  0.000000  0.000000
                       2.000000  2.000000  2.000000  2.000000  0.000000  0.000000
                       0.000000  0.000000  0.000000  0.000000  0.000000  0.000000
              occ9     1.000000  1.000000  1.000000  1.000000  0.000000  0.000000
                       0.000000  0.000000  0.000000  0.000000  0.000000  0.000000
                       1.000000  1.000000  1.000000  1.000000  0.000000  0.000000
                       0.000000  0.000000  0.000000  0.000000  0.000000  0.000000
           occopt1          0
           occopt2          7
           occopt3          0
           occopt4          7
           occopt5          0
           occopt6          7
           occopt7          0
           occopt8          7
           occopt9          1
          optcell1          0
          optcell2          0
          optcell3          0
          optcell4          0
          optcell5          0
          optcell6          0
          optcell7          1
          optcell8          1
          optcell9          0
        optforces           1
        paral_kgb           1
        pawecutdg      5.00000000E+01 Hartree
         pawmixdg           1
            rprim      0.0000000000E+00  5.0000000000E-01  5.0000000000E-01
                       5.0000000000E-01  0.0000000000E+00  5.0000000000E-01
                       5.0000000000E-01  5.0000000000E-01  0.0000000000E+00
           shiftk      5.00000000E-01  5.00000000E-01  5.00000000E-01
          spgroup         166
           symrel      1  0  0   0  1  0   0  0  1      -1  0  0   0 -1  0   0  0 -1
                       1  0  0   0  0  1   0  1  0      -1  0  0   0  0 -1   0 -1  0
                       0  1  0   0  0  1   1  0  0       0 -1  0   0  0 -1  -1  0  0
                       0  1  0   1  0  0   0  0  1       0 -1  0  -1  0  0   0  0 -1
                       0  0  1   1  0  0   0  1  0       0  0 -1  -1  0  0   0 -1  0
                       0  0  1   0  1  0   1  0  0       0  0 -1   0 -1  0  -1  0  0
            tnons      0.0000000  0.0000000  0.0000000     0.2200000  0.2200000  0.2200000
                       0.0000000  0.0000000  0.0000000     0.2200000  0.2200000  0.2200000
                       0.0000000  0.0000000  0.0000000     0.2200000  0.2200000  0.2200000
                       0.0000000  0.0000000  0.0000000     0.2200000  0.2200000  0.2200000
                       0.0000000  0.0000000  0.0000000     0.2200000  0.2200000  0.2200000
                       0.0000000  0.0000000  0.0000000     0.2200000  0.2200000  0.2200000
           toldfe1     1.00000000E-10 Hartree
           toldfe2     1.00000000E-10 Hartree
           toldfe3     1.00000000E-10 Hartree
           toldfe4     1.00000000E-10 Hartree
           toldfe5     0.00000000E+00 Hartree
           toldfe6     0.00000000E+00 Hartree
           toldfe7     0.00000000E+00 Hartree
           toldfe8     0.00000000E+00 Hartree
           toldfe9     1.00000000E-10 Hartree
           toldff1     0.00000000E+00
           toldff2     0.00000000E+00
           toldff3     0.00000000E+00
           toldff4     0.00000000E+00
           toldff5     1.00000000E-06
           toldff6     1.00000000E-06
           toldff7     1.00000000E-07
           toldff8     1.00000000E-07
           toldff9     0.00000000E+00
           tolmxf1     5.00000000E-05
           tolmxf2     5.00000000E-05
           tolmxf3     5.00000000E-05
           tolmxf4     5.00000000E-05
           tolmxf5     1.00000000E-05
           tolmxf6     1.00000000E-05
           tolmxf7     1.00000000E-05
           tolmxf8     1.00000000E-05
           tolmxf9     5.00000000E-05
           tsmear1     4.00000000E-02 Hartree
           tsmear2     1.00000000E-03 Hartree
           tsmear3     4.00000000E-02 Hartree
           tsmear4     1.00000000E-03 Hartree
           tsmear5     4.00000000E-02 Hartree
           tsmear6     1.00000000E-03 Hartree
           tsmear7     4.00000000E-02 Hartree
           tsmear8     1.00000000E-03 Hartree
           tsmear9     4.00000000E-02 Hartree
            typat      1  1
           useylm           1
         wfoptalg          14
              wtk1       1.00000
              wtk2       1.00000
              wtk3       0.37500    0.18750    0.18750    0.18750    0.06250
              wtk4       0.37500    0.18750    0.18750    0.18750    0.06250
              wtk5       1.00000
              wtk6       1.00000
              wtk7       0.37500    0.18750    0.18750    0.18750    0.06250
              wtk8       0.37500    0.18750    0.18750    0.18750    0.06250
              wtk9       1.00000
           xangst      0.0000000000E+00  0.0000000000E+00  0.0000000000E+00
                       8.1493290123E-01  8.1493290123E-01  8.1493290123E-01
            xcart      0.0000000000E+00  0.0000000000E+00  0.0000000000E+00
                       1.5400000000E+00  1.5400000000E+00  1.5400000000E+00
             xred      0.0000000000E+00  0.0000000000E+00  0.0000000000E+00
                       2.2000000000E-01  2.2000000000E-01  2.2000000000E-01
            znucl        6.00000

================================================================================

 chkinp: Checking input parameters for consistency, jdtset=   1.

 chkinp: Checking input parameters for consistency, jdtset=   2.

 chkinp: Checking input parameters for consistency, jdtset=   3.

 chkinp: Checking input parameters for consistency, jdtset=   4.

 chkinp: Checking input parameters for consistency, jdtset=   5.

 chkinp: Checking input parameters for consistency, jdtset=   6.

 chkinp: Checking input parameters for consistency, jdtset=   7.

 chkinp: Checking input parameters for consistency, jdtset=   8.

 chkinp: Checking input parameters for consistency, jdtset=   9.

================================================================================
== DATASET  1 ==================================================================
-   nproc =    4

 Exchange-correlation functional for the present dataset will be:
  LDA: Perdew-Zunger-Ceperley-Alder - ixc=2
 Citation for XC functional:
  J.P.Perdew and A.Zunger, PRB 23, 5048 (1981)

 Real(R)+Recip(G) space primitive vectors, cartesian coordinates (Bohr,Bohr^-1):
 R(1)=  0.0000000  3.5000000  3.5000000  G(1)= -0.1428571  0.1428571  0.1428571
 R(2)=  3.5000000  0.0000000  3.5000000  G(2)=  0.1428571 -0.1428571  0.1428571
 R(3)=  3.5000000  3.5000000  0.0000000  G(3)=  0.1428571  0.1428571 -0.1428571
 Unit cell volume ucvol=  8.5750000E+01 bohr^3
 Angles (23,13,12)=  6.00000000E+01  6.00000000E+01  6.00000000E+01 degrees

 Coarse grid specifications (used for wave-functions):

 getcut: wavevector=  0.0000  0.0000  0.0000  ngfft=  18  18  18
         ecut(hartree)=     16.000   => boxcut(ratio)=   2.02582

 Fine grid specifications (used for densities):

 getcut: wavevector=  0.0000  0.0000  0.0000  ngfft=  36  36  36
         ecut(hartree)=     50.000   => boxcut(ratio)=   2.28491

 getcut : COMMENT -
  Note that boxcut > 2.2 ; recall that boxcut=Gcut(box)/Gcut(sphere) = 2
  is sufficient for exact treatment of convolution.
  Such a large boxcut is a waste : you could raise ecut
  e.g. ecut=   65.260241 Hartrees makes boxcut=2


--- Pseudopotential description ------------------------------------------------
- pspini: atom type   1  psp file is /data/ABINIT/testf_gcc47/trunk_7.10.2-private/tests/Psps_for_tests/6c_lda.paw
- pspatm: opening atomic psp file    /data/ABINIT/testf_gcc47/trunk_7.10.2-private/tests/Psps_for_tests/6c_lda.paw
- Paw atomic data extracted from US-psp (D.Vanderbilt): carbon
-  6.00000   4.00000  20041014                znucl, zion, pspdat
    7    2    1    0       467   0.00000      pspcod,pspxc,lmax,lloc,mmax,r2well
 Pseudopotential format is: paw2
 basis_size (lnmax)=  4 (lmn_size=  8), orbitals=   0   0   1   1
 Spheres core radius: rc_sph= 1.11201554
 4 radial meshes are used:
  - mesh 1: r(i)=AA*[exp(BB*(i-1))-1], size= 467 , AA= 0.41313E-03 BB= 0.16949E-01
  - mesh 2: r(i)=AA*[exp(BB*(i-1))-1], size= 532 , AA= 0.41313E-03 BB= 0.16949E-01
  - mesh 3: r(i)=AA*[exp(BB*(i-1))-1], size= 520 , AA= 0.41313E-03 BB= 0.16949E-01
  - mesh 4: r(i)=AA*[exp(BB*(i-1))-1], size= 596 , AA= 0.41313E-03 BB= 0.16949E-01
 Shapefunction is SIN type: shapef(r)=[sin(pi*r/rshp)/(pi*r/rshp)]**2
 Radius for shape functions = sphere core radius
 Radial grid used for partial waves is grid 1
 Radial grid used for projectors is grid  2
 Radial grid used for (t)core density is grid 3
 Radial grid used for Vloc is grid 4
 Compensation charge density is taken into account in XC energy/potential
 pspatm: atomic psp has been read  and splines computed

   4.71224288E+01                                ecore*ucvol(ha*bohr**3)
--------------------------------------------------------------------------------

P newkpt: treating     12 bands with npw=      64 for ikpt=   1 by node    0

_setup2: Arith. and geom. avg. npw (full set) are      64.000      64.000

================================================================================

     iter   Etot(hartree)      deltaE(h)  residm     nres2    diffor    maxfor
 ETOT  1  -10.531188501943    -1.053E+01 3.724E-04 7.587E+01 2.291E-01 2.291E-01
 ETOT  2  -10.427887714209     1.033E-01 2.599E-08 6.702E+00 1.158E-02 2.407E-01
 ETOT  3  -10.420817899283     7.070E-03 2.024E-08 3.051E-01 5.242E-03 2.355E-01
 ETOT  4  -10.420275985189     5.419E-04 1.898E-09 1.844E-02 1.345E-04 2.356E-01
 ETOT  5  -10.420271552287     4.433E-06 2.512E-10 3.146E-04 2.452E-05 2.356E-01

 Cartesian components of stress tensor (hartree/bohr^3)
  sigma(1 1)= -8.20705009E-03  sigma(3 2)= -1.74880268E-03
  sigma(2 2)= -8.20705009E-03  sigma(3 1)= -1.74880268E-03
  sigma(3 3)= -8.20705009E-03  sigma(2 1)= -1.74880268E-03


 scprqt:  WARNING -
  nstep=    5 was not enough SCF cycles to converge;
  maximum energy difference=  4.433E-06 exceeds toldfe=  1.000E-10


 PAW TEST:
 ==== Compensation charge inside spheres ============
 The following values must be close to each other ...
 Compensation charge over spherical meshes =      0.475073520666184
 Compensation charge over fine fft grid    =      0.475251191243190

 ==== Results concerning PAW augmentation regions ====

 Total pseudopotential strength Dij (hartree):
 Atom #  1
   0.48453   0.58388   0.00004   0.00004   0.00004   0.00007   0.00007   0.00007
   0.58388   0.70057   0.00003   0.00003   0.00003   0.00006   0.00006   0.00006
   0.00004   0.00003  -0.07868  -0.00010  -0.00010  -0.07754  -0.00012  -0.00012
   0.00004   0.00003  -0.00010  -0.07868  -0.00010  -0.00012  -0.07754  -0.00012
   0.00004   0.00003  -0.00010  -0.00010  -0.07868  -0.00012  -0.00012  -0.07754
   0.00007   0.00006  -0.07754  -0.00012  -0.00012  -0.07192  -0.00014  -0.00014
   0.00007   0.00006  -0.00012  -0.07754  -0.00012  -0.00014  -0.07192  -0.00014
   0.00007   0.00006  -0.00012  -0.00012  -0.07754  -0.00014  -0.00014  -0.07192
 Atom #  2
   0.48453   0.58388  -0.00004  -0.00004  -0.00004  -0.00007  -0.00007  -0.00007
   0.58388   0.70057  -0.00003  -0.00003  -0.00003  -0.00006  -0.00006  -0.00006
  -0.00004  -0.00003  -0.07868  -0.00010  -0.00010  -0.07754  -0.00012  -0.00012
  -0.00004  -0.00003  -0.00010  -0.07868  -0.00010  -0.00012  -0.07754  -0.00012
  -0.00004  -0.00003  -0.00010  -0.00010  -0.07868  -0.00012  -0.00012  -0.07754
  -0.00007  -0.00006  -0.07754  -0.00012  -0.00012  -0.07192  -0.00014  -0.00014
  -0.00007  -0.00006  -0.00012  -0.07754  -0.00012  -0.00014  -0.07192  -0.00014
  -0.00007  -0.00006  -0.00012  -0.00012  -0.07754  -0.00014  -0.00014  -0.07192

 Total pseudopotential strength Dij (eV):
 Atom #  1
  13.18464  15.88824   0.00110   0.00110   0.00110   0.00193   0.00193   0.00193
  15.88824  19.06338   0.00079   0.00079   0.00079   0.00171   0.00171   0.00171
   0.00110   0.00079  -2.14102  -0.00280  -0.00280  -2.10984  -0.00333  -0.00333
   0.00110   0.00079  -0.00280  -2.14102  -0.00280  -0.00333  -2.10984  -0.00333
   0.00110   0.00079  -0.00280  -0.00280  -2.14102  -0.00333  -0.00333  -2.10984
   0.00193   0.00171  -2.10984  -0.00333  -0.00333  -1.95697  -0.00393  -0.00393
   0.00193   0.00171  -0.00333  -2.10984  -0.00333  -0.00393  -1.95697  -0.00393
   0.00193   0.00171  -0.00333  -0.00333  -2.10984  -0.00393  -0.00393  -1.95697
 Atom #  2
  13.18464  15.88824  -0.00110  -0.00110  -0.00110  -0.00193  -0.00193  -0.00193
  15.88824  19.06338  -0.00079  -0.00079  -0.00079  -0.00171  -0.00171  -0.00171
  -0.00110  -0.00079  -2.14102  -0.00280  -0.00280  -2.10984  -0.00333  -0.00333
  -0.00110  -0.00079  -0.00280  -2.14102  -0.00280  -0.00333  -2.10984  -0.00333
  -0.00110  -0.00079  -0.00280  -0.00280  -2.14102  -0.00333  -0.00333  -2.10984
  -0.00193  -0.00171  -2.10984  -0.00333  -0.00333  -1.95697  -0.00393  -0.00393
  -0.00193  -0.00171  -0.00333  -2.10984  -0.00333  -0.00393  -1.95697  -0.00393
  -0.00193  -0.00171  -0.00333  -0.00333  -2.10984  -0.00393  -0.00393  -1.95697

 Augmentation waves occupancies Rhoij:
 Atom #  1
   1.92931  -0.59426  -0.17146  -0.17146  -0.17146   0.08263   0.08263   0.08263
  -0.59426   0.18624   0.00667   0.00667   0.00667  -0.02116  -0.02116  -0.02116
  -0.17146   0.00667   1.19720   0.42405   0.42405   0.11423  -0.16111  -0.16111
  -0.17146   0.00667   0.42405   1.19720   0.42405  -0.16111   0.11423  -0.16111
  -0.17146   0.00667   0.42405   0.42405   1.19720  -0.16111  -0.16111   0.11423
   0.08263  -0.02116   0.11423  -0.16111  -0.16111   0.07467  -0.02338  -0.02338
   0.08263  -0.02116  -0.16111   0.11423  -0.16111  -0.02338   0.07467  -0.02338
   0.08263  -0.02116  -0.16111  -0.16111   0.11423  -0.02338  -0.02338   0.07467
 Atom #  2
   1.92931  -0.59426   0.17146   0.17146   0.17146  -0.08263  -0.08263  -0.08263
  -0.59426   0.18624  -0.00667  -0.00667  -0.00667   0.02116   0.02116   0.02116
   0.17146  -0.00667   1.19720   0.42405   0.42405   0.11423  -0.16111  -0.16111
   0.17146  -0.00667   0.42405   1.19720   0.42405  -0.16111   0.11423  -0.16111
   0.17146  -0.00667   0.42405   0.42405   1.19720  -0.16111  -0.16111   0.11423
  -0.08263   0.02116   0.11423  -0.16111  -0.16111   0.07467  -0.02338  -0.02338
  -0.08263   0.02116  -0.16111   0.11423  -0.16111  -0.02338   0.07467  -0.02338
  -0.08263   0.02116  -0.16111  -0.16111   0.11423  -0.02338  -0.02338   0.07467


================================================================================

 ----iterations are completed or convergence reached----

 Mean square residual over all n,k,spin=   2.7570E-11; max=  2.5119E-10
   0.0000  0.0000  0.0000    1  2.51195E-10 kpt; spin; max resid(k); each band:
  3.30E-12 5.08E-15 6.39E-15 6.39E-15 3.06E-11 3.06E-11 2.72E-15 8.04E-15
  6.44E-13 4.12E-12 2.51E-10 1.03E-11
 reduced coordinates (array xred) for    2 atoms
       0.000000000000      0.000000000000      0.000000000000
       0.220000000000      0.220000000000      0.220000000000
 rms dE/dt=  1.6490E+00; max dE/dt=  1.6490E+00; dE/dt below (all hartree)
    1       1.649036868898      1.649036868898      1.649036868898
    2      -1.649036868898     -1.649036868898     -1.649036868898

 cartesian coordinates (angstrom) at end:
    1      0.00000000000000     0.00000000000000     0.00000000000000
    2      0.81493290122860     0.81493290122860     0.81493290122860

 cartesian forces (hartree/bohr) at end:
    1     -0.23557669555685    -0.23557669555685    -0.23557669555685
    2      0.23557669555685     0.23557669555685     0.23557669555685
 frms,max,avg= 2.3557670E-01 2.3557670E-01   0.000E+00  0.000E+00  0.000E+00 h/b

 cartesian forces (eV/Angstrom) at end:
    1    -12.11383972553979   -12.11383972553979   -12.11383972553978
    2     12.11383972553979    12.11383972553979    12.11383972553978
 frms,max,avg= 1.2113840E+01 1.2113840E+01   0.000E+00  0.000E+00  0.000E+00 e/A
 length scales=  7.000000000000  7.000000000000  7.000000000000 bohr
              =  3.704240460130  3.704240460130  3.704240460130 angstroms
 prteigrs : about to open file t22_MPI4o_DS1_EIG
 Fermi (or HOMO) energy (hartree) =   0.47348   Average Vxc (hartree)=  -0.46289
 Eigenvalues (hartree) for nkpt=   1  k points:
 kpt#   1, nband= 12, wtk=  1.00000, kpt=  0.0000  0.0000  0.0000 (reduced coord)
  -0.35841   0.29986   0.47348   0.47348   0.52396   0.52396   0.69378   0.80946
   0.98780   1.25620   1.25620   1.30028
 Fermi (or HOMO) energy (eV) =  12.88393   Average Vxc (eV)= -12.59601
 Eigenvalues (   eV  ) for nkpt=   1  k points:
 kpt#   1, nband= 12, wtk=  1.00000, kpt=  0.0000  0.0000  0.0000 (reduced coord)
  -9.75286   8.15964  12.88393  12.88393  14.25769  14.25769  18.87878  22.02644
  26.87937  34.18282  34.18282  35.38245
 Total charge density [el/Bohr^3]
,     Maximum=    3.8640E-01  at reduced coord.    0.1111    0.1111    0.1111
,Next maximum=    3.8500E-01  at reduced coord.    0.1389    0.1389    0.1389
,     Minimum=    9.0948E-03  at reduced coord.    0.5000    0.4722    0.4722
,Next minimum=    9.0948E-03  at reduced coord.    0.4722    0.5000    0.4722
,  Integrated=    8.0000E+00

--------------------------------------------------------------------------------
 Components of total free energy (in Hartree) :

    Kinetic energy  =  8.71100319306562E+00
    Hartree energy  =  1.52238677984588E+00
    XC energy       = -3.90861252747446E+00
    Ewald energy    = -1.22408856604630E+01
    PspCore energy  =  5.49532697036698E-01
    Loc. psp. energy= -6.85324155923623E+00
    Spherical terms =  1.79728109580156E+00
    >>>>>>>>> Etotal= -1.04225359814239E+01

 "Double-counting" decomposition of free energy:
    Band energy     =  1.77680272444596E+00
    Ewald energy    = -1.22408856604630E+01
    PspCore energy  =  5.49532697036698E-01
    Dble-C XC-energy= -6.34241045893366E-01
    Spherical terms =  1.28519732586642E-01
    >>>> Etotal (DC)= -1.04202715522870E+01

  >Total energy in eV           = -2.83611627385188E+02
  >Total DC energy in eV        = -2.83550009134721E+02
--------------------------------------------------------------------------------

 Cartesian components of stress tensor (hartree/bohr^3)
  sigma(1 1)= -8.20705009E-03  sigma(3 2)= -1.74880268E-03
  sigma(2 2)= -8.20705009E-03  sigma(3 1)= -1.74880268E-03
  sigma(3 3)= -8.20705009E-03  sigma(2 1)= -1.74880268E-03

-Cartesian components of stress tensor (GPa)         [Pressure=  2.4146E+02 GPa]
- sigma(1 1)= -2.41459709E+02  sigma(3 2)= -5.14515424E+01
- sigma(2 2)= -2.41459709E+02  sigma(3 1)= -5.14515424E+01
- sigma(3 3)= -2.41459709E+02  sigma(2 1)= -5.14515424E+01

================================================================================
== DATASET  2 ==================================================================
-   nproc =    4

 Exchange-correlation functional for the present dataset will be:
  LDA: Perdew-Zunger-Ceperley-Alder - ixc=2
 Citation for XC functional:
  J.P.Perdew and A.Zunger, PRB 23, 5048 (1981)

 Real(R)+Recip(G) space primitive vectors, cartesian coordinates (Bohr,Bohr^-1):
 R(1)=  0.0000000  3.5000000  3.5000000  G(1)= -0.1428571  0.1428571  0.1428571
 R(2)=  3.5000000  0.0000000  3.5000000  G(2)=  0.1428571 -0.1428571  0.1428571
 R(3)=  3.5000000  3.5000000  0.0000000  G(3)=  0.1428571  0.1428571 -0.1428571
 Unit cell volume ucvol=  8.5750000E+01 bohr^3
 Angles (23,13,12)=  6.00000000E+01  6.00000000E+01  6.00000000E+01 degrees

 Coarse grid specifications (used for wave-functions):

 getcut: wavevector=  0.0000  0.0000  0.0000  ngfft=  18  18  18
         ecut(hartree)=     16.000   => boxcut(ratio)=   2.02582

 Fine grid specifications (used for densities):

 getcut: wavevector=  0.0000  0.0000  0.0000  ngfft=  36  36  36
         ecut(hartree)=     50.000   => boxcut(ratio)=   2.28491

 getcut : COMMENT -
  Note that boxcut > 2.2 ; recall that boxcut=Gcut(box)/Gcut(sphere) = 2
  is sufficient for exact treatment of convolution.
  Such a large boxcut is a waste : you could raise ecut
  e.g. ecut=   65.260241 Hartrees makes boxcut=2

--------------------------------------------------------------------------------

P newkpt: treating     12 bands with npw=      64 for ikpt=   1 by node    0

_setup2: Arith. and geom. avg. npw (full set) are      64.000      64.000

================================================================================

     iter   Etot(hartree)      deltaE(h)  residm     nres2    diffor    maxfor
 ETOT  1  -10.531188501943    -1.053E+01 3.724E-04 7.587E+01 2.291E-01 2.291E-01
 ETOT  2  -10.427887714209     1.033E-01 2.599E-08 6.702E+00 1.158E-02 2.407E-01
 ETOT  3  -10.420817899283     7.070E-03 2.024E-08 3.051E-01 5.242E-03 2.355E-01
 ETOT  4  -10.420275985189     5.419E-04 1.898E-09 1.844E-02 1.345E-04 2.356E-01
 ETOT  5  -10.420271552287     4.433E-06 2.512E-10 3.146E-04 2.452E-05 2.356E-01

 Cartesian components of stress tensor (hartree/bohr^3)
  sigma(1 1)= -8.20705009E-03  sigma(3 2)= -1.74880268E-03
  sigma(2 2)= -8.20705009E-03  sigma(3 1)= -1.74880268E-03
  sigma(3 3)= -8.20705009E-03  sigma(2 1)= -1.74880268E-03


 scprqt:  WARNING -
  nstep=    5 was not enough SCF cycles to converge;
  maximum energy difference=  4.433E-06 exceeds toldfe=  1.000E-10


 PAW TEST:
 ==== Compensation charge inside spheres ============
 The following values must be close to each other ...
 Compensation charge over spherical meshes =      0.475073520666184
 Compensation charge over fine fft grid    =      0.475251191243190

 ==== Results concerning PAW augmentation regions ====

 Total pseudopotential strength Dij (hartree):
 Atom #  1
   0.48453   0.58388   0.00004   0.00004   0.00004   0.00007   0.00007   0.00007
   0.58388   0.70057   0.00003   0.00003   0.00003   0.00006   0.00006   0.00006
   0.00004   0.00003  -0.07868  -0.00010  -0.00010  -0.07754  -0.00012  -0.00012
   0.00004   0.00003  -0.00010  -0.07868  -0.00010  -0.00012  -0.07754  -0.00012
   0.00004   0.00003  -0.00010  -0.00010  -0.07868  -0.00012  -0.00012  -0.07754
   0.00007   0.00006  -0.07754  -0.00012  -0.00012  -0.07192  -0.00014  -0.00014
   0.00007   0.00006  -0.00012  -0.07754  -0.00012  -0.00014  -0.07192  -0.00014
   0.00007   0.00006  -0.00012  -0.00012  -0.07754  -0.00014  -0.00014  -0.07192
 Atom #  2
   0.48453   0.58388  -0.00004  -0.00004  -0.00004  -0.00007  -0.00007  -0.00007
   0.58388   0.70057  -0.00003  -0.00003  -0.00003  -0.00006  -0.00006  -0.00006
  -0.00004  -0.00003  -0.07868  -0.00010  -0.00010  -0.07754  -0.00012  -0.00012
  -0.00004  -0.00003  -0.00010  -0.07868  -0.00010  -0.00012  -0.07754  -0.00012
  -0.00004  -0.00003  -0.00010  -0.00010  -0.07868  -0.00012  -0.00012  -0.07754
  -0.00007  -0.00006  -0.07754  -0.00012  -0.00012  -0.07192  -0.00014  -0.00014
  -0.00007  -0.00006  -0.00012  -0.07754  -0.00012  -0.00014  -0.07192  -0.00014
  -0.00007  -0.00006  -0.00012  -0.00012  -0.07754  -0.00014  -0.00014  -0.07192

 Total pseudopotential strength Dij (eV):
 Atom #  1
  13.18464  15.88824   0.00110   0.00110   0.00110   0.00193   0.00193   0.00193
  15.88824  19.06338   0.00079   0.00079   0.00079   0.00171   0.00171   0.00171
   0.00110   0.00079  -2.14102  -0.00280  -0.00280  -2.10984  -0.00333  -0.00333
   0.00110   0.00079  -0.00280  -2.14102  -0.00280  -0.00333  -2.10984  -0.00333
   0.00110   0.00079  -0.00280  -0.00280  -2.14102  -0.00333  -0.00333  -2.10984
   0.00193   0.00171  -2.10984  -0.00333  -0.00333  -1.95697  -0.00393  -0.00393
   0.00193   0.00171  -0.00333  -2.10984  -0.00333  -0.00393  -1.95697  -0.00393
   0.00193   0.00171  -0.00333  -0.00333  -2.10984  -0.00393  -0.00393  -1.95697
 Atom #  2
  13.18464  15.88824  -0.00110  -0.00110  -0.00110  -0.00193  -0.00193  -0.00193
  15.88824  19.06338  -0.00079  -0.00079  -0.00079  -0.00171  -0.00171  -0.00171
  -0.00110  -0.00079  -2.14102  -0.00280  -0.00280  -2.10984  -0.00333  -0.00333
  -0.00110  -0.00079  -0.00280  -2.14102  -0.00280  -0.00333  -2.10984  -0.00333
  -0.00110  -0.00079  -0.00280  -0.00280  -2.14102  -0.00333  -0.00333  -2.10984
  -0.00193  -0.00171  -2.10984  -0.00333  -0.00333  -1.95697  -0.00393  -0.00393
  -0.00193  -0.00171  -0.00333  -2.10984  -0.00333  -0.00393  -1.95697  -0.00393
  -0.00193  -0.00171  -0.00333  -0.00333  -2.10984  -0.00393  -0.00393  -1.95697

 Augmentation waves occupancies Rhoij:
 Atom #  1
   1.92931  -0.59426  -0.17146  -0.17146  -0.17146   0.08263   0.08263   0.08263
  -0.59426   0.18624   0.00667   0.00667   0.00667  -0.02116  -0.02116  -0.02116
  -0.17146   0.00667   1.19720   0.42405   0.42405   0.11423  -0.16111  -0.16111
  -0.17146   0.00667   0.42405   1.19720   0.42405  -0.16111   0.11423  -0.16111
  -0.17146   0.00667   0.42405   0.42405   1.19720  -0.16111  -0.16111   0.11423
   0.08263  -0.02116   0.11423  -0.16111  -0.16111   0.07467  -0.02338  -0.02338
   0.08263  -0.02116  -0.16111   0.11423  -0.16111  -0.02338   0.07467  -0.02338
   0.08263  -0.02116  -0.16111  -0.16111   0.11423  -0.02338  -0.02338   0.07467
 Atom #  2
   1.92931  -0.59426   0.17146   0.17146   0.17146  -0.08263  -0.08263  -0.08263
  -0.59426   0.18624  -0.00667  -0.00667  -0.00667   0.02116   0.02116   0.02116
   0.17146  -0.00667   1.19720   0.42405   0.42405   0.11423  -0.16111  -0.16111
   0.17146  -0.00667   0.42405   1.19720   0.42405  -0.16111   0.11423  -0.16111
   0.17146  -0.00667   0.42405   0.42405   1.19720  -0.16111  -0.16111   0.11423
  -0.08263   0.02116   0.11423  -0.16111  -0.16111   0.07467  -0.02338  -0.02338
  -0.08263   0.02116  -0.16111   0.11423  -0.16111  -0.02338   0.07467  -0.02338
  -0.08263   0.02116  -0.16111  -0.16111   0.11423  -0.02338  -0.02338   0.07467


================================================================================

 ----iterations are completed or convergence reached----

 Mean square residual over all n,k,spin=   2.7570E-11; max=  2.5119E-10
   0.0000  0.0000  0.0000    1  2.51195E-10 kpt; spin; max resid(k); each band:
  3.30E-12 5.08E-15 6.39E-15 6.39E-15 3.06E-11 3.06E-11 2.72E-15 8.04E-15
  6.44E-13 4.12E-12 2.51E-10 1.03E-11
 reduced coordinates (array xred) for    2 atoms
       0.000000000000      0.000000000000      0.000000000000
       0.220000000000      0.220000000000      0.220000000000
 rms dE/dt=  1.6490E+00; max dE/dt=  1.6490E+00; dE/dt below (all hartree)
    1       1.649036868898      1.649036868898      1.649036868898
    2      -1.649036868898     -1.649036868898     -1.649036868898

 cartesian coordinates (angstrom) at end:
    1      0.00000000000000     0.00000000000000     0.00000000000000
    2      0.81493290122860     0.81493290122860     0.81493290122860

 cartesian forces (hartree/bohr) at end:
    1     -0.23557669555685    -0.23557669555685    -0.23557669555685
    2      0.23557669555685     0.23557669555685     0.23557669555685
 frms,max,avg= 2.3557670E-01 2.3557670E-01   0.000E+00  0.000E+00  0.000E+00 h/b

 cartesian forces (eV/Angstrom) at end:
    1    -12.11383972553979   -12.11383972553979   -12.11383972553978
    2     12.11383972553979    12.11383972553979    12.11383972553978
 frms,max,avg= 1.2113840E+01 1.2113840E+01   0.000E+00  0.000E+00  0.000E+00 e/A
 length scales=  7.000000000000  7.000000000000  7.000000000000 bohr
              =  3.704240460130  3.704240460130  3.704240460130 angstroms
 prteigrs : about to open file t22_MPI4o_DS2_EIG
 Fermi (or HOMO) energy (hartree) =   0.49704   Average Vxc (hartree)=  -0.46289
 Eigenvalues (hartree) for nkpt=   1  k points:
 kpt#   1, nband= 12, wtk=  1.00000, kpt=  0.0000  0.0000  0.0000 (reduced coord)
  -0.35841   0.29986   0.47348   0.47348   0.52396   0.52396   0.69378   0.80946
   0.98780   1.25620   1.25620   1.30028
      occupation numbers for kpt#   1
   2.00000   2.00000   2.00000   2.00000   0.00000   0.00000   0.00000   0.00000
   0.00000   0.00000   0.00000   0.00000
 Fermi (or HOMO) energy (eV) =  13.52514   Average Vxc (eV)= -12.59601
 Eigenvalues (   eV  ) for nkpt=   1  k points:
 kpt#   1, nband= 12, wtk=  1.00000, kpt=  0.0000  0.0000  0.0000 (reduced coord)
  -9.75286   8.15964  12.88393  12.88393  14.25769  14.25769  18.87878  22.02644
  26.87937  34.18282  34.18282  35.38245
 Total charge density [el/Bohr^3]
,     Maximum=    3.8640E-01  at reduced coord.    0.1111    0.1111    0.1111
,Next maximum=    3.8500E-01  at reduced coord.    0.1389    0.1389    0.1389
,     Minimum=    9.0948E-03  at reduced coord.    0.5000    0.4722    0.4722
,Next minimum=    9.0948E-03  at reduced coord.    0.4722    0.5000    0.4722
,  Integrated=    8.0000E+00

--------------------------------------------------------------------------------
 Components of total free energy (in Hartree) :

    Kinetic energy  =  8.71100319306562E+00
    Hartree energy  =  1.52238677984588E+00
    XC energy       = -3.90861252747446E+00
    Ewald energy    = -1.22408856604630E+01
    PspCore energy  =  5.49532697036698E-01
    Loc. psp. energy= -6.85324155923623E+00
    Spherical terms =  1.79728109580156E+00
    >>>>> Internal E= -1.04225359814239E+01

    -kT*entropy     = -2.83635311754038E-19
    >>>>>>>>> Etotal= -1.04225359814239E+01

 "Double-counting" decomposition of free energy:
    Band energy     =  1.77680272444596E+00
    Ewald energy    = -1.22408856604630E+01
    PspCore energy  =  5.49532697036698E-01
    Dble-C XC-energy= -6.34241045893366E-01
    Spherical terms =  1.28519732586642E-01
    >>>>> Internal E= -1.04202715522870E+01

    -kT*entropy     = -2.83635311754038E-19
    >>>> Etotal (DC)= -1.04202715522870E+01

  >Total energy in eV           = -2.83611627385188E+02
  >Total DC energy in eV        = -2.83550009134721E+02
--------------------------------------------------------------------------------

 Cartesian components of stress tensor (hartree/bohr^3)
  sigma(1 1)= -8.20705009E-03  sigma(3 2)= -1.74880268E-03
  sigma(2 2)= -8.20705009E-03  sigma(3 1)= -1.74880268E-03
  sigma(3 3)= -8.20705009E-03  sigma(2 1)= -1.74880268E-03

-Cartesian components of stress tensor (GPa)         [Pressure=  2.4146E+02 GPa]
- sigma(1 1)= -2.41459709E+02  sigma(3 2)= -5.14515424E+01
- sigma(2 2)= -2.41459709E+02  sigma(3 1)= -5.14515424E+01
- sigma(3 3)= -2.41459709E+02  sigma(2 1)= -5.14515424E+01

================================================================================
== DATASET  3 ==================================================================
-   nproc =    4

 Exchange-correlation functional for the present dataset will be:
  LDA: Perdew-Zunger-Ceperley-Alder - ixc=2
 Citation for XC functional:
  J.P.Perdew and A.Zunger, PRB 23, 5048 (1981)

 Real(R)+Recip(G) space primitive vectors, cartesian coordinates (Bohr,Bohr^-1):
 R(1)=  0.0000000  3.5000000  3.5000000  G(1)= -0.1428571  0.1428571  0.1428571
 R(2)=  3.5000000  0.0000000  3.5000000  G(2)=  0.1428571 -0.1428571  0.1428571
 R(3)=  3.5000000  3.5000000  0.0000000  G(3)=  0.1428571  0.1428571 -0.1428571
 Unit cell volume ucvol=  8.5750000E+01 bohr^3
 Angles (23,13,12)=  6.00000000E+01  6.00000000E+01  6.00000000E+01 degrees

 Coarse grid specifications (used for wave-functions):

 getcut: wavevector=  0.0000  0.0000  0.0000  ngfft=  18  18  18
         ecut(hartree)=     16.000   => boxcut(ratio)=   2.02582

 Fine grid specifications (used for densities):

 getcut: wavevector=  0.0000  0.0000  0.0000  ngfft=  36  36  36
         ecut(hartree)=     50.000   => boxcut(ratio)=   2.28491

 getcut : COMMENT -
  Note that boxcut > 2.2 ; recall that boxcut=Gcut(box)/Gcut(sphere) = 2
  is sufficient for exact treatment of convolution.
  Such a large boxcut is a waste : you could raise ecut
  e.g. ecut=   65.260241 Hartrees makes boxcut=2

--------------------------------------------------------------------------------

P newkpt: treating     12 bands with npw=      66 for ikpt=   1 by node    0
P newkpt: treating     12 bands with npw=      66 for ikpt=   2 by node    0
P newkpt: treating     12 bands with npw=      67 for ikpt=   3 by node    0
P newkpt: treating     12 bands with npw=      66 for ikpt=   4 by node    0
P newkpt: treating     12 bands with npw=      68 for ikpt=   5 by node    0

_setup2: Arith. and geom. avg. npw (full set) are      66.313      66.310

================================================================================

     iter   Etot(hartree)      deltaE(h)  residm     nres2    diffor    maxfor
 ETOT  1  -11.494515277209    -1.149E+01 1.092E-05 1.636E+01 7.879E-02 7.879E-02
 ETOT  2  -11.474864123630     1.965E-02 6.050E-10 1.228E+00 5.401E-03 8.419E-02
 ETOT  3  -11.473272092340     1.592E-03 3.231E-07 1.358E-02 1.287E-03 8.548E-02
 ETOT  4  -11.473262835970     9.256E-06 2.736E-10 1.372E-04 1.733E-04 8.531E-02
 ETOT  5  -11.473262855775    -1.981E-08 2.921E-11 2.665E-06 5.317E-06 8.531E-02

 Cartesian components of stress tensor (hartree/bohr^3)
  sigma(1 1)=  1.21416726E-03  sigma(3 2)= -1.48502359E-04
  sigma(2 2)=  1.21416726E-03  sigma(3 1)= -1.48502359E-04
  sigma(3 3)=  1.21416726E-03  sigma(2 1)= -1.48502359E-04


 scprqt:  WARNING -
  nstep=    5 was not enough SCF cycles to converge;
  maximum energy difference=  1.981E-08 exceeds toldfe=  1.000E-10


 PAW TEST:
 ==== Compensation charge inside spheres ============
 The following values must be close to each other ...
 Compensation charge over spherical meshes =      0.229390267700035
 Compensation charge over fine fft grid    =      0.229349314275251

 ==== Results concerning PAW augmentation regions ====

 Total pseudopotential strength Dij (hartree):
 Atom #  1
   0.49085   0.59219   0.00002   0.00002   0.00002   0.00004   0.00004   0.00004
   0.59219   0.71142   0.00002   0.00002   0.00002   0.00004   0.00004   0.00004
   0.00002   0.00002  -0.08600  -0.00011  -0.00011  -0.08630  -0.00013  -0.00013
   0.00002   0.00002  -0.00011  -0.08600  -0.00011  -0.00013  -0.08630  -0.00013
   0.00002   0.00002  -0.00011  -0.00011  -0.08600  -0.00013  -0.00013  -0.08630
   0.00004   0.00004  -0.08630  -0.00013  -0.00013  -0.08240  -0.00015  -0.00015
   0.00004   0.00004  -0.00013  -0.08630  -0.00013  -0.00015  -0.08240  -0.00015
   0.00004   0.00004  -0.00013  -0.00013  -0.08630  -0.00015  -0.00015  -0.08240
 Atom #  2
   0.49085   0.59219  -0.00002  -0.00002  -0.00002  -0.00004  -0.00004  -0.00004
   0.59219   0.71142  -0.00002  -0.00002  -0.00002  -0.00004  -0.00004  -0.00004
  -0.00002  -0.00002  -0.08600  -0.00011  -0.00011  -0.08630  -0.00013  -0.00013
  -0.00002  -0.00002  -0.00011  -0.08600  -0.00011  -0.00013  -0.08630  -0.00013
  -0.00002  -0.00002  -0.00011  -0.00011  -0.08600  -0.00013  -0.00013  -0.08630
  -0.00004  -0.00004  -0.08630  -0.00013  -0.00013  -0.08240  -0.00015  -0.00015
  -0.00004  -0.00004  -0.00013  -0.08630  -0.00013  -0.00015  -0.08240  -0.00015
  -0.00004  -0.00004  -0.00013  -0.00013  -0.08630  -0.00015  -0.00015  -0.08240

 Total pseudopotential strength Dij (eV):
 Atom #  1
  13.35668  16.11422   0.00065   0.00065   0.00065   0.00108   0.00108   0.00108
  16.11422  19.35864   0.00050   0.00050   0.00050   0.00098   0.00098   0.00098
   0.00065   0.00050  -2.34030  -0.00287  -0.00287  -2.34841  -0.00343  -0.00343
   0.00065   0.00050  -0.00287  -2.34030  -0.00287  -0.00343  -2.34841  -0.00343
   0.00065   0.00050  -0.00287  -0.00287  -2.34030  -0.00343  -0.00343  -2.34841
   0.00108   0.00098  -2.34841  -0.00343  -0.00343  -2.24212  -0.00410  -0.00410
   0.00108   0.00098  -0.00343  -2.34841  -0.00343  -0.00410  -2.24212  -0.00410
   0.00108   0.00098  -0.00343  -0.00343  -2.34841  -0.00410  -0.00410  -2.24212
 Atom #  2
  13.35668  16.11422  -0.00065  -0.00065  -0.00065  -0.00108  -0.00108  -0.00108
  16.11422  19.35864  -0.00050  -0.00050  -0.00050  -0.00098  -0.00098  -0.00098
  -0.00065  -0.00050  -2.34030  -0.00287  -0.00287  -2.34841  -0.00343  -0.00343
  -0.00065  -0.00050  -0.00287  -2.34030  -0.00287  -0.00343  -2.34841  -0.00343
  -0.00065  -0.00050  -0.00287  -0.00287  -2.34030  -0.00343  -0.00343  -2.34841
  -0.00108  -0.00098  -2.34841  -0.00343  -0.00343  -2.24212  -0.00410  -0.00410
  -0.00108  -0.00098  -0.00343  -2.34841  -0.00343  -0.00410  -2.24212  -0.00410
  -0.00108  -0.00098  -0.00343  -0.00343  -2.34841  -0.00410  -0.00410  -2.24212

 Augmentation waves occupancies Rhoij:
 Atom #  1
   1.76363  -0.15876  -0.17083  -0.17083  -0.17083   0.08297   0.08297   0.08297
  -0.15876   0.04716   0.03537   0.03537   0.03537  -0.01301  -0.01301  -0.01301
  -0.17083   0.03537   1.84088   0.23771   0.23771  -0.40359  -0.10506  -0.10506
  -0.17083   0.03537   0.23771   1.84088   0.23771  -0.10506  -0.40359  -0.10506
  -0.17083   0.03537   0.23771   0.23771   1.84088  -0.10506  -0.10506  -0.40359
   0.08297  -0.01301  -0.40359  -0.10506  -0.10506   0.14352   0.03274   0.03274
   0.08297  -0.01301  -0.10506  -0.40359  -0.10506   0.03274   0.14352   0.03274
   0.08297  -0.01301  -0.10506  -0.10506  -0.40359   0.03274   0.03274   0.14352
 Atom #  2
   1.76363  -0.15876   0.17083   0.17083   0.17083  -0.08297  -0.08297  -0.08297
  -0.15876   0.04716  -0.03537  -0.03537  -0.03537   0.01301   0.01301   0.01301
   0.17083  -0.03537   1.84088   0.23771   0.23771  -0.40359  -0.10506  -0.10506
   0.17083  -0.03537   0.23771   1.84088   0.23771  -0.10506  -0.40359  -0.10506
   0.17083  -0.03537   0.23771   0.23771   1.84088  -0.10506  -0.10506  -0.40359
  -0.08297   0.01301  -0.40359  -0.10506  -0.10506   0.14352   0.03274   0.03274
  -0.08297   0.01301  -0.10506  -0.40359  -0.10506   0.03274   0.14352   0.03274
  -0.08297   0.01301  -0.10506  -0.10506  -0.40359   0.03274   0.03274   0.14352


================================================================================

 ----iterations are completed or convergence reached----

 Mean square residual over all n,k,spin=   1.7333E-12; max=  2.9209E-11
  -0.2500  0.5000  0.0000    1  2.92089E-11 kpt; spin; max resid(k); each band:
  1.77E-13 2.24E-12 1.43E-13 4.94E-14 1.24E-12 2.92E-11 6.59E-12 1.53E-12
  1.62E-11 4.77E-12 8.75E-13 1.70E-12
  -0.2500 -0.2500  0.2500    1  6.85217E-13 kpt; spin; max resid(k); each band:
  2.35E-13 3.31E-14 2.73E-14 3.79E-15 4.00E-13 5.68E-13 1.21E-15 6.85E-13
  1.19E-13 2.83E-13 1.81E-14 2.37E-13
  -0.2500  0.0000  0.0000    1  1.35561E-11 kpt; spin; max resid(k); each band:
  9.04E-14 1.36E-11 1.15E-12 7.06E-14 5.35E-16 4.62E-12 8.88E-13 4.68E-12
  4.20E-12 2.89E-12 5.42E-15 1.07E-13
   0.5000  0.5000  0.2500    1  1.43204E-12 kpt; spin; max resid(k); each band:
  6.20E-14 4.53E-13 7.84E-14 3.19E-15 2.79E-13 1.43E-12 3.45E-15 4.17E-13
  1.05E-13 8.69E-13 4.29E-14 3.19E-13
  -0.2500 -0.2500 -0.2500    1  1.38998E-13 kpt; spin; max resid(k); each band:
  1.45E-14 2.61E-14 1.62E-14 1.62E-14 2.99E-15 2.99E-15 1.87E-14 4.58E-14
  1.39E-13 1.05E-14 1.05E-14 4.68E-14
 reduced coordinates (array xred) for    2 atoms
       0.000000000000      0.000000000000      0.000000000000
       0.220000000000      0.220000000000      0.220000000000
 rms dE/dt=  5.9719E-01; max dE/dt=  5.9719E-01; dE/dt below (all hartree)
    1       0.597186258501      0.597186258501      0.597186258501
    2      -0.597186258501     -0.597186258501     -0.597186258501

 cartesian coordinates (angstrom) at end:
    1      0.00000000000000     0.00000000000000     0.00000000000000
    2      0.81493290122860     0.81493290122860     0.81493290122860

 cartesian forces (hartree/bohr) at end:
    1     -0.08531232264304    -0.08531232264304    -0.08531232264304
    2      0.08531232264304     0.08531232264304     0.08531232264304
 frms,max,avg= 8.5312323E-02 8.5312323E-02   0.000E+00  0.000E+00  0.000E+00 h/b

 cartesian forces (eV/Angstrom) at end:
    1     -4.38693564602577    -4.38693564602577    -4.38693564602577
    2      4.38693564602577     4.38693564602577     4.38693564602577
 frms,max,avg= 4.3869356E+00 4.3869356E+00   0.000E+00  0.000E+00  0.000E+00 e/A
 length scales=  7.000000000000  7.000000000000  7.000000000000 bohr
              =  3.704240460130  3.704240460130  3.704240460130 angstroms
 prteigrs : about to open file t22_MPI4o_DS3_EIG
 Fermi (or HOMO) energy (hartree) =   0.34219   Average Vxc (hartree)=  -0.47858
 Eigenvalues (hartree) for nkpt=   5  k points:
 kpt#   1, nband= 12, wtk=  0.37500, kpt= -0.2500  0.5000  0.0000 (reduced coord)
  -0.19780  -0.01949   0.10970   0.18899   0.49339   0.71280   0.77845   0.85411
   0.98902   1.16329   1.28719   1.42026
 kpt#   2, nband= 12, wtk=  0.18750, kpt= -0.2500 -0.2500  0.2500 (reduced coord)
  -0.19870  -0.00115   0.07003   0.20608   0.56728   0.65702   0.70923   0.85025
   1.07777   1.12056   1.37044   1.38326
 kpt#   3, nband= 12, wtk=  0.18750, kpt= -0.2500  0.0000  0.0000 (reduced coord)
  -0.33583   0.11757   0.23065   0.34219   0.52450   0.56389   0.73461   0.79740
   1.03123   1.13332   1.16535   1.19481
 kpt#   4, nband= 12, wtk=  0.18750, kpt=  0.5000  0.5000  0.2500 (reduced coord)
  -0.18876  -0.06312   0.13517   0.19341   0.56416   0.67365   0.77497   0.84459
   0.99110   1.17116   1.26444   1.41870
 kpt#   5, nband= 12, wtk=  0.06250, kpt= -0.2500 -0.2500 -0.2500 (reduced coord)
  -0.33556   0.07268   0.30229   0.30229   0.61060   0.61060   0.63630   0.83131
   1.01470   1.09128   1.09128   1.26355
 Fermi (or HOMO) energy (eV) =   9.31159   Average Vxc (eV)= -13.02279
 Eigenvalues (   eV  ) for nkpt=   5  k points:
 kpt#   1, nband= 12, wtk=  0.37500, kpt= -0.2500  0.5000  0.0000 (reduced coord)
  -5.38241  -0.53029   2.98522   5.14277  13.42574  19.39615  21.18275  23.24161
  26.91256  31.65476  35.02631  38.64716
 kpt#   2, nband= 12, wtk=  0.18750, kpt= -0.2500 -0.2500  0.2500 (reduced coord)
  -5.40678  -0.03135   1.90548   5.60773  15.43638  17.87847  19.29910  23.13656
  29.32768  30.49199  37.29152  37.64047
 kpt#   3, nband= 12, wtk=  0.18750, kpt= -0.2500  0.0000  0.0000 (reduced coord)
  -9.13852   3.19929   6.27629   9.31159  14.27233  15.34417  19.98966  21.69848
  28.06130  30.83925  31.71080  32.51238
 kpt#   4, nband= 12, wtk=  0.18750, kpt=  0.5000  0.5000  0.2500 (reduced coord)
  -5.13641  -1.71761   3.67811   5.26307  15.35164  18.33086  21.08793  22.98242
  26.96908  31.86892  34.40729  38.60467
 kpt#   5, nband= 12, wtk=  0.06250, kpt= -0.2500 -0.2500 -0.2500 (reduced coord)
  -9.13100   1.97770   8.22568   8.22568  16.61530  16.61530  17.31452  22.62113
  27.61137  29.69530  29.69530  34.38283
 Total charge density [el/Bohr^3]
,     Maximum=    3.1379E-01  at reduced coord.    0.1389    0.1389    0.1389
,Next maximum=    3.1345E-01  at reduced coord.    0.1389    0.1389    0.1667
,     Minimum=    1.1344E-02  at reduced coord.    0.7500    0.7500    0.2222
,Next minimum=    1.1344E-02  at reduced coord.    0.7500    0.7222    0.2500
,  Integrated=    8.0000E+00

--------------------------------------------------------------------------------
 Components of total free energy (in Hartree) :

    Kinetic energy  =  6.69614296452142E+00
    Hartree energy  =  1.04869756482453E+00
    XC energy       = -3.73147336806842E+00
    Ewald energy    = -1.22408856604630E+01
    PspCore energy  =  5.49532697036698E-01
    Loc. psp. energy= -5.55818536225567E+00
    Spherical terms =  1.76267759693258E+00
    >>>>>>>>> Etotal= -1.14734935674718E+01

 "Double-counting" decomposition of free energy:
    Band energy     =  2.94097885621654E-01
    Ewald energy    = -1.22408856604630E+01
    PspCore energy  =  5.49532697036698E-01
    Dble-C XC-energy= -2.03962474196477E-01
    Spherical terms =  1.27954696225829E-01
    >>>> Etotal (DC)= -1.14732628557753E+01

  >Total energy in eV           = -3.12209637679717E+02
  >Total DC energy in eV        = -3.12203359695181E+02
--------------------------------------------------------------------------------

 Cartesian components of stress tensor (hartree/bohr^3)
  sigma(1 1)=  1.21416726E-03  sigma(3 2)= -1.48502359E-04
  sigma(2 2)=  1.21416726E-03  sigma(3 1)= -1.48502359E-04
  sigma(3 3)=  1.21416726E-03  sigma(2 1)= -1.48502359E-04

-Cartesian components of stress tensor (GPa)         [Pressure= -3.5722E+01 GPa]
- sigma(1 1)=  3.57220282E+01  sigma(3 2)= -4.36908951E+00
- sigma(2 2)=  3.57220282E+01  sigma(3 1)= -4.36908951E+00
- sigma(3 3)=  3.57220282E+01  sigma(2 1)= -4.36908951E+00

================================================================================
== DATASET  4 ==================================================================
-   nproc =    4

 Exchange-correlation functional for the present dataset will be:
  LDA: Perdew-Zunger-Ceperley-Alder - ixc=2
 Citation for XC functional:
  J.P.Perdew and A.Zunger, PRB 23, 5048 (1981)

 Real(R)+Recip(G) space primitive vectors, cartesian coordinates (Bohr,Bohr^-1):
 R(1)=  0.0000000  3.5000000  3.5000000  G(1)= -0.1428571  0.1428571  0.1428571
 R(2)=  3.5000000  0.0000000  3.5000000  G(2)=  0.1428571 -0.1428571  0.1428571
 R(3)=  3.5000000  3.5000000  0.0000000  G(3)=  0.1428571  0.1428571 -0.1428571
 Unit cell volume ucvol=  8.5750000E+01 bohr^3
 Angles (23,13,12)=  6.00000000E+01  6.00000000E+01  6.00000000E+01 degrees

 Coarse grid specifications (used for wave-functions):

 getcut: wavevector=  0.0000  0.0000  0.0000  ngfft=  18  18  18
         ecut(hartree)=     16.000   => boxcut(ratio)=   2.02582

 Fine grid specifications (used for densities):

 getcut: wavevector=  0.0000  0.0000  0.0000  ngfft=  36  36  36
         ecut(hartree)=     50.000   => boxcut(ratio)=   2.28491

 getcut : COMMENT -
  Note that boxcut > 2.2 ; recall that boxcut=Gcut(box)/Gcut(sphere) = 2
  is sufficient for exact treatment of convolution.
  Such a large boxcut is a waste : you could raise ecut
  e.g. ecut=   65.260241 Hartrees makes boxcut=2

--------------------------------------------------------------------------------

P newkpt: treating     12 bands with npw=      66 for ikpt=   1 by node    0
P newkpt: treating     12 bands with npw=      66 for ikpt=   2 by node    0
P newkpt: treating     12 bands with npw=      67 for ikpt=   3 by node    0
P newkpt: treating     12 bands with npw=      66 for ikpt=   4 by node    0
P newkpt: treating     12 bands with npw=      68 for ikpt=   5 by node    0

_setup2: Arith. and geom. avg. npw (full set) are      66.313      66.310

================================================================================

     iter   Etot(hartree)      deltaE(h)  residm     nres2    diffor    maxfor
 ETOT  1  -11.494515277209    -1.149E+01 1.092E-05 1.636E+01 7.879E-02 7.879E-02
 ETOT  2  -11.474864123630     1.965E-02 6.050E-10 1.228E+00 5.401E-03 8.419E-02
 ETOT  3  -11.473272092340     1.592E-03 3.231E-07 1.358E-02 1.287E-03 8.548E-02
 ETOT  4  -11.473262835970     9.256E-06 2.736E-10 1.372E-04 1.733E-04 8.531E-02
 ETOT  5  -11.473262855775    -1.981E-08 2.921E-11 2.665E-06 5.317E-06 8.531E-02

 Cartesian components of stress tensor (hartree/bohr^3)
  sigma(1 1)=  1.21416726E-03  sigma(3 2)= -1.48502359E-04
  sigma(2 2)=  1.21416726E-03  sigma(3 1)= -1.48502359E-04
  sigma(3 3)=  1.21416726E-03  sigma(2 1)= -1.48502359E-04


 scprqt:  WARNING -
  nstep=    5 was not enough SCF cycles to converge;
  maximum energy difference=  1.981E-08 exceeds toldfe=  1.000E-10


 PAW TEST:
 ==== Compensation charge inside spheres ============
 The following values must be close to each other ...
 Compensation charge over spherical meshes =      0.229390267700035
 Compensation charge over fine fft grid    =      0.229349314275251

 ==== Results concerning PAW augmentation regions ====

 Total pseudopotential strength Dij (hartree):
 Atom #  1
   0.49085   0.59219   0.00002   0.00002   0.00002   0.00004   0.00004   0.00004
   0.59219   0.71142   0.00002   0.00002   0.00002   0.00004   0.00004   0.00004
   0.00002   0.00002  -0.08600  -0.00011  -0.00011  -0.08630  -0.00013  -0.00013
   0.00002   0.00002  -0.00011  -0.08600  -0.00011  -0.00013  -0.08630  -0.00013
   0.00002   0.00002  -0.00011  -0.00011  -0.08600  -0.00013  -0.00013  -0.08630
   0.00004   0.00004  -0.08630  -0.00013  -0.00013  -0.08240  -0.00015  -0.00015
   0.00004   0.00004  -0.00013  -0.08630  -0.00013  -0.00015  -0.08240  -0.00015
   0.00004   0.00004  -0.00013  -0.00013  -0.08630  -0.00015  -0.00015  -0.08240
 Atom #  2
   0.49085   0.59219  -0.00002  -0.00002  -0.00002  -0.00004  -0.00004  -0.00004
   0.59219   0.71142  -0.00002  -0.00002  -0.00002  -0.00004  -0.00004  -0.00004
  -0.00002  -0.00002  -0.08600  -0.00011  -0.00011  -0.08630  -0.00013  -0.00013
  -0.00002  -0.00002  -0.00011  -0.08600  -0.00011  -0.00013  -0.08630  -0.00013
  -0.00002  -0.00002  -0.00011  -0.00011  -0.08600  -0.00013  -0.00013  -0.08630
  -0.00004  -0.00004  -0.08630  -0.00013  -0.00013  -0.08240  -0.00015  -0.00015
  -0.00004  -0.00004  -0.00013  -0.08630  -0.00013  -0.00015  -0.08240  -0.00015
  -0.00004  -0.00004  -0.00013  -0.00013  -0.08630  -0.00015  -0.00015  -0.08240

 Total pseudopotential strength Dij (eV):
 Atom #  1
  13.35668  16.11422   0.00065   0.00065   0.00065   0.00108   0.00108   0.00108
  16.11422  19.35864   0.00050   0.00050   0.00050   0.00098   0.00098   0.00098
   0.00065   0.00050  -2.34030  -0.00287  -0.00287  -2.34841  -0.00343  -0.00343
   0.00065   0.00050  -0.00287  -2.34030  -0.00287  -0.00343  -2.34841  -0.00343
   0.00065   0.00050  -0.00287  -0.00287  -2.34030  -0.00343  -0.00343  -2.34841
   0.00108   0.00098  -2.34841  -0.00343  -0.00343  -2.24212  -0.00410  -0.00410
   0.00108   0.00098  -0.00343  -2.34841  -0.00343  -0.00410  -2.24212  -0.00410
   0.00108   0.00098  -0.00343  -0.00343  -2.34841  -0.00410  -0.00410  -2.24212
 Atom #  2
  13.35668  16.11422  -0.00065  -0.00065  -0.00065  -0.00108  -0.00108  -0.00108
  16.11422  19.35864  -0.00050  -0.00050  -0.00050  -0.00098  -0.00098  -0.00098
  -0.00065  -0.00050  -2.34030  -0.00287  -0.00287  -2.34841  -0.00343  -0.00343
  -0.00065  -0.00050  -0.00287  -2.34030  -0.00287  -0.00343  -2.34841  -0.00343
  -0.00065  -0.00050  -0.00287  -0.00287  -2.34030  -0.00343  -0.00343  -2.34841
  -0.00108  -0.00098  -2.34841  -0.00343  -0.00343  -2.24212  -0.00410  -0.00410
  -0.00108  -0.00098  -0.00343  -2.34841  -0.00343  -0.00410  -2.24212  -0.00410
  -0.00108  -0.00098  -0.00343  -0.00343  -2.34841  -0.00410  -0.00410  -2.24212

 Augmentation waves occupancies Rhoij:
 Atom #  1
   1.76363  -0.15876  -0.17083  -0.17083  -0.17083   0.08297   0.08297   0.08297
  -0.15876   0.04716   0.03537   0.03537   0.03537  -0.01301  -0.01301  -0.01301
  -0.17083   0.03537   1.84088   0.23771   0.23771  -0.40359  -0.10506  -0.10506
  -0.17083   0.03537   0.23771   1.84088   0.23771  -0.10506  -0.40359  -0.10506
  -0.17083   0.03537   0.23771   0.23771   1.84088  -0.10506  -0.10506  -0.40359
   0.08297  -0.01301  -0.40359  -0.10506  -0.10506   0.14352   0.03274   0.03274
   0.08297  -0.01301  -0.10506  -0.40359  -0.10506   0.03274   0.14352   0.03274
   0.08297  -0.01301  -0.10506  -0.10506  -0.40359   0.03274   0.03274   0.14352
 Atom #  2
   1.76363  -0.15876   0.17083   0.17083   0.17083  -0.08297  -0.08297  -0.08297
  -0.15876   0.04716  -0.03537  -0.03537  -0.03537   0.01301   0.01301   0.01301
   0.17083  -0.03537   1.84088   0.23771   0.23771  -0.40359  -0.10506  -0.10506
   0.17083  -0.03537   0.23771   1.84088   0.23771  -0.10506  -0.40359  -0.10506
   0.17083  -0.03537   0.23771   0.23771   1.84088  -0.10506  -0.10506  -0.40359
  -0.08297   0.01301  -0.40359  -0.10506  -0.10506   0.14352   0.03274   0.03274
  -0.08297   0.01301  -0.10506  -0.40359  -0.10506   0.03274   0.14352   0.03274
  -0.08297   0.01301  -0.10506  -0.10506  -0.40359   0.03274   0.03274   0.14352


================================================================================

 ----iterations are completed or convergence reached----

 Mean square residual over all n,k,spin=   1.7333E-12; max=  2.9209E-11
  -0.2500  0.5000  0.0000    1  2.92089E-11 kpt; spin; max resid(k); each band:
  1.77E-13 2.24E-12 1.43E-13 4.94E-14 1.24E-12 2.92E-11 6.59E-12 1.53E-12
  1.62E-11 4.77E-12 8.75E-13 1.70E-12
  -0.2500 -0.2500  0.2500    1  6.85217E-13 kpt; spin; max resid(k); each band:
  2.35E-13 3.31E-14 2.73E-14 3.79E-15 4.00E-13 5.68E-13 1.21E-15 6.85E-13
  1.19E-13 2.83E-13 1.81E-14 2.37E-13
  -0.2500  0.0000  0.0000    1  1.35561E-11 kpt; spin; max resid(k); each band:
  9.04E-14 1.36E-11 1.15E-12 7.06E-14 5.35E-16 4.62E-12 8.88E-13 4.68E-12
  4.20E-12 2.89E-12 5.42E-15 1.07E-13
   0.5000  0.5000  0.2500    1  1.43204E-12 kpt; spin; max resid(k); each band:
  6.20E-14 4.53E-13 7.84E-14 3.19E-15 2.79E-13 1.43E-12 3.45E-15 4.17E-13
  1.05E-13 8.69E-13 4.29E-14 3.19E-13
  -0.2500 -0.2500 -0.2500    1  1.38998E-13 kpt; spin; max resid(k); each band:
  1.45E-14 2.61E-14 1.62E-14 1.62E-14 2.99E-15 2.99E-15 1.87E-14 4.58E-14
  1.39E-13 1.05E-14 1.05E-14 4.68E-14
 reduced coordinates (array xred) for    2 atoms
       0.000000000000      0.000000000000      0.000000000000
       0.220000000000      0.220000000000      0.220000000000
 rms dE/dt=  5.9719E-01; max dE/dt=  5.9719E-01; dE/dt below (all hartree)
    1       0.597186258501      0.597186258501      0.597186258501
    2      -0.597186258501     -0.597186258501     -0.597186258501

 cartesian coordinates (angstrom) at end:
    1      0.00000000000000     0.00000000000000     0.00000000000000
    2      0.81493290122860     0.81493290122860     0.81493290122860

 cartesian forces (hartree/bohr) at end:
    1     -0.08531232264304    -0.08531232264304    -0.08531232264304
    2      0.08531232264304     0.08531232264304     0.08531232264304
 frms,max,avg= 8.5312323E-02 8.5312323E-02   0.000E+00  0.000E+00  0.000E+00 h/b

 cartesian forces (eV/Angstrom) at end:
    1     -4.38693564602577    -4.38693564602577    -4.38693564602577
    2      4.38693564602577     4.38693564602577     4.38693564602577
 frms,max,avg= 4.3869356E+00 4.3869356E+00   0.000E+00  0.000E+00  0.000E+00 e/A
 length scales=  7.000000000000  7.000000000000  7.000000000000 bohr
              =  3.704240460130  3.704240460130  3.704240460130 angstroms
 prteigrs : about to open file t22_MPI4o_DS4_EIG
 Fermi (or HOMO) energy (hartree) =   0.43171   Average Vxc (hartree)=  -0.47858
 Eigenvalues (hartree) for nkpt=   5  k points:
 kpt#   1, nband= 12, wtk=  0.37500, kpt= -0.2500  0.5000  0.0000 (reduced coord)
  -0.19780  -0.01949   0.10970   0.18899   0.49339   0.71280   0.77845   0.85411
   0.98902   1.16329   1.28719   1.42026
      occupation numbers for kpt#   1
   2.00000   2.00000   2.00000   2.00000   0.00000   0.00000   0.00000   0.00000
   0.00000   0.00000   0.00000   0.00000
 kpt#   2, nband= 12, wtk=  0.18750, kpt= -0.2500 -0.2500  0.2500 (reduced coord)
  -0.19870  -0.00115   0.07003   0.20608   0.56728   0.65702   0.70923   0.85025
   1.07777   1.12056   1.37044   1.38326
      occupation numbers for kpt#   2
   2.00000   2.00000   2.00000   2.00000   0.00000   0.00000   0.00000   0.00000
   0.00000   0.00000   0.00000   0.00000
 kpt#   3, nband= 12, wtk=  0.18750, kpt= -0.2500  0.0000  0.0000 (reduced coord)
  -0.33583   0.11757   0.23065   0.34219   0.52450   0.56389   0.73461   0.79740
   1.03123   1.13332   1.16535   1.19481
      occupation numbers for kpt#   3
   2.00000   2.00000   2.00000   2.00000   0.00000   0.00000   0.00000   0.00000
   0.00000   0.00000   0.00000   0.00000
 kpt#   4, nband= 12, wtk=  0.18750, kpt=  0.5000  0.5000  0.2500 (reduced coord)
  -0.18876  -0.06312   0.13517   0.19341   0.56416   0.67365   0.77497   0.84459
   0.99110   1.17116   1.26444   1.41870
      occupation numbers for kpt#   4
   2.00000   2.00000   2.00000   2.00000   0.00000   0.00000   0.00000   0.00000
   0.00000   0.00000   0.00000   0.00000
 kpt#   5, nband= 12, wtk=  0.06250, kpt= -0.2500 -0.2500 -0.2500 (reduced coord)
  -0.33556   0.07268   0.30229   0.30229   0.61060   0.61060   0.63630   0.83131
   1.01470   1.09128   1.09128   1.26355
      occupation numbers for kpt#   5
   2.00000   2.00000   2.00000   2.00000   0.00000   0.00000   0.00000   0.00000
   0.00000   0.00000   0.00000   0.00000
 Fermi (or HOMO) energy (eV) =  11.74730   Average Vxc (eV)= -13.02279
 Eigenvalues (   eV  ) for nkpt=   5  k points:
 kpt#   1, nband= 12, wtk=  0.37500, kpt= -0.2500  0.5000  0.0000 (reduced coord)
  -5.38241  -0.53029   2.98522   5.14277  13.42574  19.39615  21.18275  23.24161
  26.91256  31.65476  35.02631  38.64716
 kpt#   2, nband= 12, wtk=  0.18750, kpt= -0.2500 -0.2500  0.2500 (reduced coord)
  -5.40678  -0.03135   1.90548   5.60773  15.43638  17.87847  19.29910  23.13656
  29.32768  30.49199  37.29152  37.64047
 kpt#   3, nband= 12, wtk=  0.18750, kpt= -0.2500  0.0000  0.0000 (reduced coord)
  -9.13852   3.19929   6.27629   9.31159  14.27233  15.34417  19.98966  21.69848
  28.06130  30.83925  31.71080  32.51238
 kpt#   4, nband= 12, wtk=  0.18750, kpt=  0.5000  0.5000  0.2500 (reduced coord)
  -5.13641  -1.71761   3.67811   5.26307  15.35164  18.33086  21.08793  22.98242
  26.96908  31.86892  34.40729  38.60467
 kpt#   5, nband= 12, wtk=  0.06250, kpt= -0.2500 -0.2500 -0.2500 (reduced coord)
  -9.13100   1.97770   8.22568   8.22568  16.61530  16.61530  17.31452  22.62113
  27.61137  29.69530  29.69530  34.38283
 Total charge density [el/Bohr^3]
,     Maximum=    3.1379E-01  at reduced coord.    0.1389    0.1389    0.1389
,Next maximum=    3.1345E-01  at reduced coord.    0.1389    0.1389    0.1667
,     Minimum=    1.1344E-02  at reduced coord.    0.7500    0.7500    0.2222
,Next minimum=    1.1344E-02  at reduced coord.    0.7500    0.7222    0.2500
,  Integrated=    8.0000E+00

--------------------------------------------------------------------------------
 Components of total free energy (in Hartree) :

    Kinetic energy  =  6.69614296452142E+00
    Hartree energy  =  1.04869756482453E+00
    XC energy       = -3.73147336806842E+00
    Ewald energy    = -1.22408856604630E+01
    PspCore energy  =  5.49532697036698E-01
    Loc. psp. energy= -5.55818536225567E+00
    Spherical terms =  1.76267759693258E+00
    >>>>> Internal E= -1.14734935674718E+01

    -kT*entropy     = -2.83635311754038E-19
    >>>>>>>>> Etotal= -1.14734935674718E+01

 "Double-counting" decomposition of free energy:
    Band energy     =  2.94097885621654E-01
    Ewald energy    = -1.22408856604630E+01
    PspCore energy  =  5.49532697036698E-01
    Dble-C XC-energy= -2.03962474196477E-01
    Spherical terms =  1.27954696225829E-01
    >>>>> Internal E= -1.14732628557753E+01

    -kT*entropy     = -2.83635311754038E-19
    >>>> Etotal (DC)= -1.14732628557753E+01

  >Total energy in eV           = -3.12209637679717E+02
  >Total DC energy in eV        = -3.12203359695181E+02
--------------------------------------------------------------------------------

 Cartesian components of stress tensor (hartree/bohr^3)
[...]
                      -2.50000000E-01  0.00000000E+00  0.00000000E+00
                       5.00000000E-01  5.00000000E-01  2.50000000E-01
                      -2.50000000E-01 -2.50000000E-01 -2.50000000E-01
              kpt8    -2.50000000E-01  5.00000000E-01  0.00000000E+00
                      -2.50000000E-01 -2.50000000E-01  2.50000000E-01
                      -2.50000000E-01  0.00000000E+00  0.00000000E+00
                       5.00000000E-01  5.00000000E-01  2.50000000E-01
                      -2.50000000E-01 -2.50000000E-01 -2.50000000E-01
              kpt9     0.00000000E+00  0.00000000E+00  0.00000000E+00
           kptopt1          0
           kptopt2          0
           kptopt3          1
           kptopt4          1
           kptopt5          0
           kptopt6          0
           kptopt7          1
           kptopt8          1
           kptopt9          0
         kptrlatt        2   -2    2     -2    2    2     -2   -2    2
          kptrlen1     3.00000000E+01
          kptrlen2     3.00000000E+01
          kptrlen3     1.40000000E+01
          kptrlen4     1.40000000E+01
          kptrlen5     3.00000000E+01
          kptrlen6     3.00000000E+01
          kptrlen7     1.40000000E+01
          kptrlen8     1.40000000E+01
          kptrlen9     3.00000000E+01
P           mkmem1          1
P           mkmem2          1
P           mkmem3          5
P           mkmem4          5
P           mkmem5          1
P           mkmem6          1
P           mkmem7          5
P           mkmem8          5
P           mkmem9          1
            natom           2
            nband1         12
            nband2         12
            nband3         12
            nband4         12
            nband5         12
            nband6         12
            nband7         12
            nband8         12
            nband9         12
           ndtset           9
            ngfft          18      18      18
          ngfftdg          36      36      36
             nkpt1          1
             nkpt2          1
             nkpt3          5
             nkpt4          5
             nkpt5          1
             nkpt6          1
             nkpt7          5
             nkpt8          5
             nkpt9          1
-          npband           2
-           npfft           2
-          np_slk          10
           nspden1          1
           nspden2          1
           nspden3          1
           nspden4          1
           nspden5          1
           nspden6          1
           nspden7          1
           nspden8          1
           nspden9          2
           nsppol1          1
           nsppol2          1
           nsppol3          1
           nsppol4          1
           nsppol5          1
           nsppol6          1
           nsppol7          1
           nsppol8          1
           nsppol9          2
            nstep           5
             nsym          12
            ntime1          1
            ntime2          1
            ntime3          1
            ntime4          1
            ntime5          3
            ntime6          3
            ntime7          3
            ntime8          3
            ntime9          1
           ntypat           1
              occ1     2.000000  2.000000  2.000000  2.000000  0.000000  0.000000
                       0.000000  0.000000  0.000000  0.000000  0.000000  0.000000
              occ2     2.000000  2.000000  2.000000  2.000000  0.000000  0.000000
                       0.000000  0.000000  0.000000  0.000000  0.000000  0.000000
              occ3     2.000000  2.000000  2.000000  2.000000  0.000000  0.000000
                       0.000000  0.000000  0.000000  0.000000  0.000000  0.000000
              occ4     2.000000  2.000000  2.000000  2.000000  0.000000  0.000000
                       0.000000  0.000000  0.000000  0.000000  0.000000  0.000000
                       2.000000  2.000000  2.000000  2.000000  0.000000  0.000000
                       0.000000  0.000000  0.000000  0.000000  0.000000  0.000000
                       2.000000  2.000000  2.000000  2.000000  0.000000  0.000000
                       0.000000  0.000000  0.000000  0.000000  0.000000  0.000000
                       2.000000  2.000000  2.000000  2.000000  0.000000  0.000000
                       0.000000  0.000000  0.000000  0.000000  0.000000  0.000000
                       2.000000  2.000000  2.000000  2.000000  0.000000  0.000000
                       0.000000  0.000000  0.000000  0.000000  0.000000  0.000000
              occ5     2.000000  2.000000  2.000000  2.000000  0.000000  0.000000
                       0.000000  0.000000  0.000000  0.000000  0.000000  0.000000
              occ6     2.000000  2.000000  2.000000  2.000000  0.000000  0.000000
                       0.000000  0.000000  0.000000  0.000000  0.000000  0.000000
              occ7     2.000000  2.000000  2.000000  2.000000  0.000000  0.000000
                       0.000000  0.000000  0.000000  0.000000  0.000000  0.000000
              occ8     2.000000  2.000000  2.000000  2.000000  0.000000  0.000000
                       0.000000  0.000000  0.000000  0.000000  0.000000  0.000000
                       2.000000  2.000000  2.000000  2.000000  0.000000  0.000000
                       0.000000  0.000000  0.000000  0.000000  0.000000  0.000000
                       2.000000  2.000000  2.000000  2.000000  0.000000  0.000000
                       0.000000  0.000000  0.000000  0.000000  0.000000  0.000000
                       2.000000  2.000000  2.000000  2.000000  0.000000  0.000000
                       0.000000  0.000000  0.000000  0.000000  0.000000  0.000000
                       2.000000  2.000000  2.000000  2.000000  0.000000  0.000000
                       0.000000  0.000000  0.000000  0.000000  0.000000  0.000000
              occ9     1.000000  1.000000  1.000000  1.000000  0.000000  0.000000
                       0.000000  0.000000  0.000000  0.000000  0.000000  0.000000
                       1.000000  1.000000  1.000000  1.000000  0.000000  0.000000
                       0.000000  0.000000  0.000000  0.000000  0.000000  0.000000
           occopt1          0
           occopt2          7
           occopt3          0
           occopt4          7
           occopt5          0
           occopt6          7
           occopt7          0
           occopt8          7
           occopt9          1
          optcell1          0
          optcell2          0
          optcell3          0
          optcell4          0
          optcell5          0
          optcell6          0
          optcell7          1
          optcell8          1
          optcell9          0
        optforces           1
        paral_kgb           1
        pawecutdg      5.00000000E+01 Hartree
         pawmixdg           1
            rprim      0.0000000000E+00  5.0000000000E-01  5.0000000000E-01
                       5.0000000000E-01  0.0000000000E+00  5.0000000000E-01
                       5.0000000000E-01  5.0000000000E-01  0.0000000000E+00
           shiftk      5.00000000E-01  5.00000000E-01  5.00000000E-01
          spgroup         166
           strten1    -8.2070500856E-03 -8.2070500856E-03 -8.2070500856E-03
                      -1.7488026761E-03 -1.7488026761E-03 -1.7488026761E-03
           strten2    -8.2070500856E-03 -8.2070500856E-03 -8.2070500856E-03
                      -1.7488026761E-03 -1.7488026761E-03 -1.7488026761E-03
           strten3     1.2141672629E-03  1.2141672629E-03  1.2141672629E-03
                      -1.4850235899E-04 -1.4850235899E-04 -1.4850235899E-04
           strten4     1.2141672629E-03  1.2141672629E-03  1.2141672629E-03
                      -1.4850235899E-04 -1.4850235899E-04 -1.4850235899E-04
           strten5    -5.9659612643E-03 -5.9659612643E-03 -5.9659612643E-03
                      -5.1867652631E-03 -5.1867652631E-03 -5.1867652631E-03
           strten6    -6.2067785341E-03 -6.2067785341E-03 -6.2067785341E-03
                      -4.6488003752E-03 -4.6488003752E-03 -4.6488003752E-03
           strten7    -6.1513609407E-05 -6.1513609407E-05 -6.1513609407E-05
                      -5.2854891870E-06 -5.2854891870E-06 -5.2854891869E-06
           strten8    -6.1513609407E-05 -6.1513609407E-05 -6.1513609407E-05
                      -5.2854891870E-06 -5.2854891870E-06 -5.2854891869E-06
           strten9    -8.1810214179E-03 -8.1810214179E-03 -8.1810214179E-03
                      -1.7450187541E-03 -1.7450187541E-03 -1.7450187541E-03
           symrel      1  0  0   0  1  0   0  0  1      -1  0  0   0 -1  0   0  0 -1
                       1  0  0   0  0  1   0  1  0      -1  0  0   0  0 -1   0 -1  0
                       0  1  0   0  0  1   1  0  0       0 -1  0   0  0 -1  -1  0  0
                       0  1  0   1  0  0   0  0  1       0 -1  0  -1  0  0   0  0 -1
                       0  0  1   1  0  0   0  1  0       0  0 -1  -1  0  0   0 -1  0
                       0  0  1   0  1  0   1  0  0       0  0 -1   0 -1  0  -1  0  0
            tnons      0.0000000  0.0000000  0.0000000     0.2200000  0.2200000  0.2200000
                       0.0000000  0.0000000  0.0000000     0.2200000  0.2200000  0.2200000
                       0.0000000  0.0000000  0.0000000     0.2200000  0.2200000  0.2200000
                       0.0000000  0.0000000  0.0000000     0.2200000  0.2200000  0.2200000
                       0.0000000  0.0000000  0.0000000     0.2200000  0.2200000  0.2200000
                       0.0000000  0.0000000  0.0000000     0.2200000  0.2200000  0.2200000
           toldfe1     1.00000000E-10 Hartree
           toldfe2     1.00000000E-10 Hartree
           toldfe3     1.00000000E-10 Hartree
           toldfe4     1.00000000E-10 Hartree
           toldfe5     0.00000000E+00 Hartree
           toldfe6     0.00000000E+00 Hartree
           toldfe7     0.00000000E+00 Hartree
           toldfe8     0.00000000E+00 Hartree
           toldfe9     1.00000000E-10 Hartree
           toldff1     0.00000000E+00
           toldff2     0.00000000E+00
           toldff3     0.00000000E+00
           toldff4     0.00000000E+00
           toldff5     1.00000000E-06
           toldff6     1.00000000E-06
           toldff7     1.00000000E-07
           toldff8     1.00000000E-07
           toldff9     0.00000000E+00
           tolmxf1     5.00000000E-05
           tolmxf2     5.00000000E-05
           tolmxf3     5.00000000E-05
           tolmxf4     5.00000000E-05
           tolmxf5     1.00000000E-05
           tolmxf6     1.00000000E-05
           tolmxf7     1.00000000E-05
           tolmxf8     1.00000000E-05
           tolmxf9     5.00000000E-05
           tsmear1     4.00000000E-02 Hartree
           tsmear2     1.00000000E-03 Hartree
           tsmear3     4.00000000E-02 Hartree
           tsmear4     1.00000000E-03 Hartree
           tsmear5     4.00000000E-02 Hartree
           tsmear6     1.00000000E-03 Hartree
           tsmear7     4.00000000E-02 Hartree
           tsmear8     1.00000000E-03 Hartree
           tsmear9     4.00000000E-02 Hartree
            typat      1  1
           useylm           1
         wfoptalg          14
              wtk1       1.00000
              wtk2       1.00000
              wtk3       0.37500    0.18750    0.18750    0.18750    0.06250
              wtk4       0.37500    0.18750    0.18750    0.18750    0.06250
              wtk5       1.00000
              wtk6       1.00000
              wtk7       0.37500    0.18750    0.18750    0.18750    0.06250
              wtk8       0.37500    0.18750    0.18750    0.18750    0.06250
              wtk9       1.00000
           xangst1     0.0000000000E+00  0.0000000000E+00  0.0000000000E+00
                       8.1493290123E-01  8.1493290123E-01  8.1493290123E-01
           xangst2     0.0000000000E+00  0.0000000000E+00  0.0000000000E+00
                       8.1493290123E-01  8.1493290123E-01  8.1493290123E-01
           xangst3     0.0000000000E+00  0.0000000000E+00  0.0000000000E+00
                       8.1493290123E-01  8.1493290123E-01  8.1493290123E-01
           xangst4     0.0000000000E+00  0.0000000000E+00  0.0000000000E+00
                       8.1493290123E-01  8.1493290123E-01  8.1493290123E-01
           xangst5    -2.9661230795E-01 -2.9661230795E-01 -2.9661230795E-01
                       1.1115452092E+00  1.1115452092E+00  1.1115452092E+00
           xangst6    -3.1165454541E-01 -3.1165454541E-01 -3.1165454541E-01
                       1.1265874466E+00  1.1265874466E+00  1.1265874466E+00
           xangst7    -5.1902823568E-02 -5.1902823568E-02 -5.1902823568E-02
                       8.3084722837E-01  8.3084722837E-01  8.3084722837E-01
           xangst8    -5.1902823568E-02 -5.1902823568E-02 -5.1902823568E-02
                       8.3084722837E-01  8.3084722837E-01  8.3084722837E-01
           xangst9     0.0000000000E+00  0.0000000000E+00  0.0000000000E+00
                       8.1493290123E-01  8.1493290123E-01  8.1493290123E-01
            xcart1     0.0000000000E+00  0.0000000000E+00  0.0000000000E+00
                       1.5400000000E+00  1.5400000000E+00  1.5400000000E+00
            xcart2     0.0000000000E+00  0.0000000000E+00  0.0000000000E+00
                       1.5400000000E+00  1.5400000000E+00  1.5400000000E+00
            xcart3     0.0000000000E+00  0.0000000000E+00  0.0000000000E+00
                       1.5400000000E+00  1.5400000000E+00  1.5400000000E+00
            xcart4     0.0000000000E+00  0.0000000000E+00  0.0000000000E+00
                       1.5400000000E+00  1.5400000000E+00  1.5400000000E+00
            xcart5    -5.6051602967E-01 -5.6051602967E-01 -5.6051602967E-01
                       2.1005160297E+00  2.1005160297E+00  2.1005160297E+00
            xcart6    -5.8894173889E-01 -5.8894173889E-01 -5.8894173889E-01
                       2.1289417389E+00  2.1289417389E+00  2.1289417389E+00
            xcart7    -9.8082122066E-02 -9.8082122066E-02 -9.8082122066E-02
                       1.5700737199E+00  1.5700737199E+00  1.5700737199E+00
            xcart8    -9.8082122066E-02 -9.8082122066E-02 -9.8082122066E-02
                       1.5700737199E+00  1.5700737199E+00  1.5700737199E+00
            xcart9     0.0000000000E+00  0.0000000000E+00  0.0000000000E+00
                       1.5400000000E+00  1.5400000000E+00  1.5400000000E+00
             xred1     0.0000000000E+00  0.0000000000E+00  0.0000000000E+00
                       2.2000000000E-01  2.2000000000E-01  2.2000000000E-01
             xred2     0.0000000000E+00  0.0000000000E+00  0.0000000000E+00
                       2.2000000000E-01  2.2000000000E-01  2.2000000000E-01
             xred3     0.0000000000E+00  0.0000000000E+00  0.0000000000E+00
                       2.2000000000E-01  2.2000000000E-01  2.2000000000E-01
             xred4     0.0000000000E+00  0.0000000000E+00  0.0000000000E+00
                       2.2000000000E-01  2.2000000000E-01  2.2000000000E-01
             xred5    -8.0073718525E-02 -8.0073718525E-02 -8.0073718525E-02
                       3.0007371852E-01  3.0007371852E-01  3.0007371852E-01
             xred6    -8.4134534127E-02 -8.4134534127E-02 -8.4134534127E-02
                       3.0413453413E-01  3.0413453413E-01  3.0413453413E-01
             xred7    -1.4659096483E-02 -1.4659096483E-02 -1.4659096483E-02
                       2.3465909648E-01  2.3465909648E-01  2.3465909648E-01
             xred8    -1.4659096483E-02 -1.4659096483E-02 -1.4659096483E-02
                       2.3465909648E-01  2.3465909648E-01  2.3465909648E-01
             xred9     0.0000000000E+00  0.0000000000E+00  0.0000000000E+00
                       2.2000000000E-01  2.2000000000E-01  2.2000000000E-01
            znucl        6.00000

================================================================================


- Timing analysis has been suppressed with timopt=0



================================================================================

 Suggested references for the acknowledgment of ABINIT usage.

 The users of ABINIT have little formal obligations with respect to the ABINIT group
 (those specified in the GNU General Public License, http://www.gnu.org/copyleft/gpl.txt).
 However, it is common practice in the scientific literature,
 to acknowledge the efforts of people that have made the research possible.
 In this spirit, please find below suggested citations of work written by ABINIT developers,
 corresponding to implementations inside of ABINIT that you have used in the present run.
 Note also that it will be of great value to readers of publications presenting these results,
 to read papers enabling them to understand the theoretical formalism and details
 of the ABINIT implementation.
 For information on why they are suggested, see also http://www.abinit.org/about/?text=acknowledgments.

 [1] Large scale ab initio calculations based on three levels of parallelization
 F. Bottin, S. Leroux, A. Knyazev, G. Zerah, Comput. Mat. Science 42, 329, (2008).
 Comment : in case paral_kgb is non-zero. Strong suggestion to cite this paper in your publications.
 This paper is also available at http://www.arxiv.org/abs/0707.3405

 [2] Implementation of the Projector Augmented-Wave Method in the ABINIT code.
 M. Torrent, F. Jollet, F. Bottin, G. Zerah, and X. Gonze Comput. Mat. Science 42, 337, (2008).
 Comment : PAW calculations. Strong suggestion to cite this paper.

 [3] ABINIT : First-principles approach of materials and nanosystem properties.
 X. Gonze, B. Amadon, P.-M. Anglade, J.-M. Beuken, F. Bottin, P. Boulanger, F. Bruneval,
 D. Caliste, R. Caracas, M. Cote, T. Deutsch, L. Genovese, Ph. Ghosez, M. Giantomassi
 S. Goedecker, D.R. Hamann, P. Hermet, F. Jollet, G. Jomard, S. Leroux, M. Mancini, S. Mazevet,
 M.J.T. Oliveira, G. Onida, Y. Pouillon, T. Rangel, G.-M. Rignanese, D. Sangalli, R. Shaltaf,
 M. Torrent, M.J. Verstraete, G. Zerah, J.W. Zwanziger
 Computer Phys. Comm. 180, 2582-2615 (2009).
 Comment : the third generic paper describing the ABINIT project.
 Note that a version of this paper, that is not formatted for Computer Phys. Comm. 
 is available at http://www.abinit.org/about/ABINIT_CPC_v10.pdf .
 The licence allows the authors to put it on the Web.

 [4] A brief introduction to the ABINIT software package.
 X. Gonze, G.-M. Rignanese, M. Verstraete, J.-M. Beuken, Y. Pouillon, R. Caracas, F. Jollet,
 M. Torrent, G. Zerah, M. Mikami, Ph. Ghosez, M. Veithen, J.-Y. Raty, V. Olevano, F. Bruneval,
 L. Reining, R. Godby, G. Onida, D.R. Hamann, and D.C. Allan.
 Z. Kristallogr. 220, 558-562 (2005).
 Comment : the second generic paper describing the ABINIT project. Note that this paper
 should be cited especially if you are using the GW part of ABINIT, as several authors
 of this part are not in the list of authors of the first or third paper.
 The .pdf of the latter paper is available at http://www.abinit.org/about/zfk_0505-06_558-562.pdf.
 Note that it should not redistributed (Copyright by Oldenburg Wissenshaftverlag,
 the licence allows the authors to put it on the Web).


 And optionally :

 [5] First-principles computation of material properties : the ABINIT software project. 
 X. Gonze, J.-M. Beuken, R. Caracas, F. Detraux, M. Fuchs, G.-M. Rignanese, L. Sindic,
 M. Verstraete, G. Zerah, F. Jollet, M. Torrent, A. Roy, M. Mikami, Ph. Ghosez, J.-Y. Raty, D.C. Allan.
 Computational Materials Science 25, 478-492 (2002). http://dx.doi.org/10.1016/S0927-0256(02)00325-7
 Comment : the original paper describing the ABINIT project.
-
- Proc.   0 individual time (sec): cpu=         13.1  wall=         13.1

================================================================================

 Calculation completed.
.Delivered   21 WARNINGs and  24 COMMENTs to log file.
+Overall time at end (sec) : cpu=         52.0  wall=         52.1
