
.Version 7.10.4 of ABINIT 
.(MPI version, prepared for a x86_64_linux_gnu4.6 computer) 

.Copyright (C) 1998-2014 ABINIT group . 
 ABINIT comes with ABSOLUTELY NO WARRANTY.
 It is free software, and you are welcome to redistribute it
 under certain conditions (GNU General Public License,
 see ~abinit/COPYING or http://www.gnu.org/copyleft/gpl.txt).

 ABINIT is a project of the Universite Catholique de Louvain,
 Corning Inc. and other collaborators, see ~abinit/doc/developers/contributors.txt .
 Please read ~abinit/doc/users/acknowledgments.html for suggested
 acknowledgments of the ABINIT effort.
 For more information, see http://www.abinit.org .

.Starting date : Sun  1 Feb 2015.
- ( at 18h54 )
  
- input  file    -> t54.in
- output file    -> t54_MPI10.out
- root for input  files -> t54_MPI10i
- root for output files -> t54_MPI10o


 DATASET    1 : space group F-4 3 m (#216); Bravais cF (face-center cubic)
================================================================================
 Values of the parameters that define the memory need for DATASET  1.
   intxc =         0  ionmov =         0    iscf =         3 xclevel =         1
  lmnmax =         2   lnmax =         2   mband =         4  mffmem =         1
P  mgfft =         8   mkmem =         1 mpssoang=         3     mpw =        15
  mqgrid =      3001   natom =         2    nfft =       512    nkpt =         2
  nloalg =         4  nspden =         1 nspinor =         1  nsppol =         1
    nsym =        24  n1xccc =         0  ntypat =         2  occopt =         1
================================================================================
P This job should need less than                       0.708 Mbytes of memory.
  Rough estimation (10% accuracy) of disk space for files :
_ WF disk file :      0.004 Mbytes ; DEN or POT disk file :      0.006 Mbytes.
================================================================================


 DATASET    2 : space group F-4 3 m (#216); Bravais cF (face-center cubic)
================================================================================
 Values of the parameters that define the memory need for DATASET  2.
   intxc =         0  ionmov =         0    iscf =        -2 xclevel =         1
  lmnmax =         2   lnmax =         2   mband =         4  mffmem =         1
P  mgfft =         8   mkmem =         2 mpssoang=         3     mpw =        15
  mqgrid =      3001   natom =         2    nfft =       512    nkpt =        16
  nloalg =         4  nspden =         1 nspinor =         1  nsppol =         1
    nsym =        24  n1xccc =         0  ntypat =         2  occopt =         1
================================================================================
P This job should need less than                       0.702 Mbytes of memory.
  Rough estimation (10% accuracy) of disk space for files :
_ WF disk file :      0.017 Mbytes ; DEN or POT disk file :      0.006 Mbytes.
================================================================================


 DATASET    3 : space group F-4 3 m (#216); Bravais cF (face-center cubic)
================================================================================
 Values of the parameters that define the memory need for DATASET  3 (RF).
   intxc =         0    iscf =        -3 xclevel =         1  lmnmax =         2
   lnmax =         2   mband =         4  mffmem =         1   mgfft =         8
P  mkmem =         2  mkqmem =         2  mk1mem =         2 mpssoang=         3
     mpw =        15  mqgrid =      3001   natom =         2    nfft =       512
    nkpt =        16  nloalg =         4  nspden =         1 nspinor =         1
  nsppol =         1    nsym =        24  n1xccc =         0  ntypat =         2
  occopt =         1
================================================================================
P This job should need less than                       0.712 Mbytes of memory.
  Rough estimation (10% accuracy) of disk space for files :
_ WF disk file :      0.017 Mbytes ; DEN or POT disk file :      0.006 Mbytes.
================================================================================


 DATASET    4 : space group F-4 3 m (#216); Bravais cF (face-center cubic)
================================================================================
 Values of the parameters that define the memory need for DATASET  4 (RF).
   intxc =         0    iscf =         3 xclevel =         1  lmnmax =         2
   lnmax =         2   mband =         4  mffmem =         1   mgfft =         8
P  mkmem =         2  mkqmem =         2  mk1mem =         2 mpssoang=         3
     mpw =        15  mqgrid =      3001   natom =         2    nfft =       512
    nkpt =        16  nloalg =         4  nspden =         1 nspinor =         1
  nsppol =         1    nsym =        24  n1xccc =         0  ntypat =         2
  occopt =         1
================================================================================
P This job should need less than                       0.728 Mbytes of memory.
  Rough estimation (10% accuracy) of disk space for files :
_ WF disk file :      0.017 Mbytes ; DEN or POT disk file :      0.006 Mbytes.
================================================================================


 DATASET    5 : space group F-4 3 m (#216); Bravais cF (face-center cubic)
================================================================================
 Values of the parameters that define the memory need for DATASET  5.
   intxc =         0  ionmov =         0    iscf =         3 xclevel =         1
  lmnmax =         2   lnmax =         2   mband =         4  mffmem =         1
P  mgfft =         8   mkmem =         2 mpssoang=         3     mpw =        15
  mqgrid =      3001   natom =         2    nfft =       512    nkpt =        16
  nloalg =         4  nspden =         1 nspinor =         1  nsppol =         1
    nsym =        24  n1xccc =         0  ntypat =         2  occopt =         1
================================================================================
P This job should need less than                       0.718 Mbytes of memory.
  Rough estimation (10% accuracy) of disk space for files :
_ WF disk file :      0.017 Mbytes ; DEN or POT disk file :      0.006 Mbytes.
================================================================================

--------------------------------------------------------------------------------
------------- Echo of variables that govern the present computation ------------
--------------------------------------------------------------------------------
-
- outvars: echo of selected default values                                      
-   accesswff0 =  0 , fftalg0 =312 , wfoptalg0 =  0
-
- outvars: echo of global parameters not present in the input file              
-  max_nthreads =    0
-
 -outvars: echo values of preprocessed input variables --------
            acell      1.0600000000E+01  1.0600000000E+01  1.0600000000E+01 Bohr
              amu      6.97200000E+01  7.49216000E+01
           diemac1     1.00000000E+06
           diemac2     1.00000000E+06
           diemac3     1.00000000E+06
           diemac4     1.00000000E+00
           diemac5     1.00000000E+06
           diemix1     1.00000000E+00
           diemix2     1.00000000E+00
           diemix3     1.00000000E+00
           diemix4     7.00000000E-01
           diemix5     1.00000000E+00
             ecut      1.00000000E+00 Hartree
-          fftalg         312
           getddk1          0
           getddk2          0
           getddk3          0
           getddk4          3
           getddk5          0
           getden1          0
           getden2          1
           getden3          0
           getden4          0
           getden5          1
           getwfk1          0
           getwfk2          1
           getwfk3          2
           getwfk4          2
           getwfk5          2
          get1den1          0
          get1den2          0
          get1den3          0
          get1den4          0
          get1den5          4
           get1wf1          0
           get1wf2          0
           get1wf3          0
           get1wf4          0
           get1wf5          4
             iscf1          3
             iscf2         -2
             iscf3         -3
             iscf4          3
             iscf5          3
              ixc           3
           jdtset        1    2    3    4    5
              kpt1    -2.50000000E-01  5.00000000E-01  0.00000000E+00
                      -2.50000000E-01  0.00000000E+00  0.00000000E+00
              kpt2    -2.50000000E-01  5.00000000E-01  0.00000000E+00
                       5.00000000E-01 -2.50000000E-01  0.00000000E+00
                      -2.50000000E-01 -2.50000000E-01  2.50000000E-01
                      -2.50000000E-01  0.00000000E+00  0.00000000E+00
                      -2.50000000E-01  2.50000000E-01  2.50000000E-01
                       5.00000000E-01  5.00000000E-01  2.50000000E-01
                      -2.50000000E-01  5.00000000E-01  5.00000000E-01
                       0.00000000E+00 -2.50000000E-01  0.00000000E+00
                       2.50000000E-01 -2.50000000E-01  2.50000000E-01
                       5.00000000E-01 -2.50000000E-01  5.00000000E-01
                      -2.50000000E-01 -2.50000000E-01 -2.50000000E-01
                       5.00000000E-01  0.00000000E+00  2.50000000E-01
                      -2.50000000E-01  0.00000000E+00  5.00000000E-01
                       0.00000000E+00  5.00000000E-01  2.50000000E-01
                       0.00000000E+00 -2.50000000E-01  5.00000000E-01
                       0.00000000E+00  0.00000000E+00  2.50000000E-01
              kpt3    -2.50000000E-01  5.00000000E-01  0.00000000E+00
                       5.00000000E-01 -2.50000000E-01  0.00000000E+00
                      -2.50000000E-01 -2.50000000E-01  2.50000000E-01
                      -2.50000000E-01  0.00000000E+00  0.00000000E+00
                      -2.50000000E-01  2.50000000E-01  2.50000000E-01
                       5.00000000E-01  5.00000000E-01  2.50000000E-01
                      -2.50000000E-01  5.00000000E-01  5.00000000E-01
                       0.00000000E+00 -2.50000000E-01  0.00000000E+00
                       2.50000000E-01 -2.50000000E-01  2.50000000E-01
                       5.00000000E-01 -2.50000000E-01  5.00000000E-01
                      -2.50000000E-01 -2.50000000E-01 -2.50000000E-01
                       5.00000000E-01  0.00000000E+00  2.50000000E-01
                      -2.50000000E-01  0.00000000E+00  5.00000000E-01
                       0.00000000E+00  5.00000000E-01  2.50000000E-01
                       0.00000000E+00 -2.50000000E-01  5.00000000E-01
                       0.00000000E+00  0.00000000E+00  2.50000000E-01
              kpt4    -2.50000000E-01  5.00000000E-01  0.00000000E+00
                       5.00000000E-01 -2.50000000E-01  0.00000000E+00
                      -2.50000000E-01 -2.50000000E-01  2.50000000E-01
                      -2.50000000E-01  0.00000000E+00  0.00000000E+00
                      -2.50000000E-01  2.50000000E-01  2.50000000E-01
                       5.00000000E-01  5.00000000E-01  2.50000000E-01
                      -2.50000000E-01  5.00000000E-01  5.00000000E-01
                       0.00000000E+00 -2.50000000E-01  0.00000000E+00
                       2.50000000E-01 -2.50000000E-01  2.50000000E-01
                       5.00000000E-01 -2.50000000E-01  5.00000000E-01
                      -2.50000000E-01 -2.50000000E-01 -2.50000000E-01
                       5.00000000E-01  0.00000000E+00  2.50000000E-01
                      -2.50000000E-01  0.00000000E+00  5.00000000E-01
                       0.00000000E+00  5.00000000E-01  2.50000000E-01
                       0.00000000E+00 -2.50000000E-01  5.00000000E-01
                       0.00000000E+00  0.00000000E+00  2.50000000E-01
              kpt5    -2.50000000E-01  5.00000000E-01  0.00000000E+00
                       5.00000000E-01 -2.50000000E-01  0.00000000E+00
                      -2.50000000E-01 -2.50000000E-01  2.50000000E-01
                      -2.50000000E-01  0.00000000E+00  0.00000000E+00
                      -2.50000000E-01  2.50000000E-01  2.50000000E-01
                       5.00000000E-01  5.00000000E-01  2.50000000E-01
                      -2.50000000E-01  5.00000000E-01  5.00000000E-01
                       0.00000000E+00 -2.50000000E-01  0.00000000E+00
                       2.50000000E-01 -2.50000000E-01  2.50000000E-01
                       5.00000000E-01 -2.50000000E-01  5.00000000E-01
                      -2.50000000E-01 -2.50000000E-01 -2.50000000E-01
                       5.00000000E-01  0.00000000E+00  2.50000000E-01
                      -2.50000000E-01  0.00000000E+00  5.00000000E-01
                       0.00000000E+00  5.00000000E-01  2.50000000E-01
                       0.00000000E+00 -2.50000000E-01  5.00000000E-01
                       0.00000000E+00  0.00000000E+00  2.50000000E-01
           kptopt1          1
           kptopt2          2
           kptopt3          2
           kptopt4          2
           kptopt5          2
         kptrlatt        2   -2    2     -2    2    2     -2   -2    2
          kptrlen      2.12000000E+01
P           mkmem1          1
P           mkmem2          2
P           mkmem3          2
P           mkmem4          2
P           mkmem5          2
P          mkqmem1          1
P          mkqmem2          2
P          mkqmem3          2
P          mkqmem4          2
P          mkqmem5          2
P          mk1mem1          1
P          mk1mem2          2
P          mk1mem3          2
P          mk1mem4          2
P          mk1mem5          2
            natom           2
            nband1          4
            nband2          4
            nband3          4
            nband4          4
            nband5          4
           ndtset           5
            ngfft           8       8       8
             nkpt1          2
             nkpt2         16
             nkpt3         16
             nkpt4         16
             nkpt5         16
             nqpt1          0
             nqpt2          0
             nqpt3          1
             nqpt4          1
             nqpt5          0
            nstep          40
             nsym          24
           ntypat           2
              occ1     2.000000  2.000000  2.000000  2.000000
              occ3     2.000000  2.000000  2.000000  2.000000
              occ4     2.000000  2.000000  2.000000  2.000000
              occ5     2.000000  2.000000  2.000000  2.000000
        optdriver1          0
        optdriver2          0
        optdriver3          1
        optdriver4          1
        optdriver5          5
        optforces           1
          prepanl1          0
          prepanl2          0
          prepanl3          0
          prepanl4          1
          prepanl5          0
          rfatpol1          1       1
          rfatpol2          1       1
          rfatpol3          1       1
          rfatpol4          1       2
          rfatpol5          1       1
            rfdir1          0       0       0
            rfdir2          0       0       0
            rfdir3          1       1       1
            rfdir4          1       1       1
            rfdir5          0       0       0
           rfelfd1          0
           rfelfd2          0
           rfelfd3          2
           rfelfd4          3
           rfelfd5          0
           rfphon1          0
           rfphon2          0
           rfphon3          0
           rfphon4          1
           rfphon5          0
         rf1atpol1          1       1
         rf1atpol2          1       1
         rf1atpol3          1       1
         rf1atpol4          1       1
         rf1atpol5          1       2
           rf1dir1          0       0       0
           rf1dir2          0       0       0
           rf1dir3          0       0       0
           rf1dir4          0       0       0
           rf1dir5          1       1       1
          rf1elfd1          0
          rf1elfd2          0
          rf1elfd3          0
          rf1elfd4          0
          rf1elfd5          1
          rf1phon1          0
          rf1phon2          0
          rf1phon3          0
          rf1phon4          0
          rf1phon5          1
           rf2dir1          0       0       0
           rf2dir2          0       0       0
           rf2dir3          0       0       0
           rf2dir4          0       0       0
           rf2dir5          1       1       1
          rf2elfd1          0
          rf2elfd2          0
          rf2elfd3          0
          rf2elfd4          0
          rf2elfd5          1
           rf3dir1          0       0       0
           rf3dir2          0       0       0
           rf3dir3          0       0       0
           rf3dir4          0       0       0
           rf3dir5          1       1       1
          rf3elfd1          0
          rf3elfd2          0
          rf3elfd3          0
          rf3elfd4          0
          rf3elfd5          1
            rprim      0.0000000000E+00  5.0000000000E-01  5.0000000000E-01
                       5.0000000000E-01  0.0000000000E+00  5.0000000000E-01
                       5.0000000000E-01  5.0000000000E-01  0.0000000000E+00
           shiftk      5.00000000E-01  5.00000000E-01  5.00000000E-01
          spgroup         216
           symrel      1  0  0   0  1  0   0  0  1       0  1 -1   1  0 -1   0  0 -1
                       0 -1  1   0 -1  0   1 -1  0      -1  0  0  -1  0  1  -1  1  0
                       0  1  0   0  0  1   1  0  0       1  0 -1   0  0 -1   0  1 -1
                       0 -1  0   1 -1  0   0 -1  1      -1  0  1  -1  1  0  -1  0  0
                       0  0  1   1  0  0   0  1  0       0  0 -1   0  1 -1   1  0 -1
                       1 -1  0   0 -1  1   0 -1  0      -1  1  0  -1  0  0  -1  0  1
                       1  0 -1   0  1 -1   0  0 -1       0  1  0   1  0  0   0  0  1
                      -1  0  1  -1  0  0  -1  1  0       0 -1  0   0 -1  1   1 -1  0
                      -1  1  0  -1  0  1  -1  0  0       1 -1  0   0 -1  0   0 -1  1
                       0  0 -1   1  0 -1   0  1 -1       0  0  1   0  1  0   1  0  0
                       0 -1  1   1 -1  0   0 -1  0      -1  0  0  -1  1  0  -1  0  1
                       1  0  0   0  0  1   0  1  0       0  1 -1   0  0 -1   1  0 -1
           timopt           2
           tolwfr1     1.00000000E-22
           tolwfr2     1.00000000E-22
           tolwfr3     1.00000000E-22
           tolwfr4     1.00000000E-16
           tolwfr5     0.00000000E+00
            typat      1  2
              wtk1       0.75000    0.25000
              wtk2       0.06250    0.06250    0.06250    0.06250    0.06250    0.06250
                         0.06250    0.06250    0.06250    0.06250    0.06250    0.06250
                         0.06250    0.06250    0.06250    0.06250
              wtk3       0.06250    0.06250    0.06250    0.06250    0.06250    0.06250
                         0.06250    0.06250    0.06250    0.06250    0.06250    0.06250
                         0.06250    0.06250    0.06250    0.06250
              wtk4       0.06250    0.06250    0.06250    0.06250    0.06250    0.06250
                         0.06250    0.06250    0.06250    0.06250    0.06250    0.06250
                         0.06250    0.06250    0.06250    0.06250
              wtk5       0.06250    0.06250    0.06250    0.06250    0.06250    0.06250
                         0.06250    0.06250    0.06250    0.06250    0.06250    0.06250
                         0.06250    0.06250    0.06250    0.06250
           xangst      0.0000000000E+00  0.0000000000E+00  0.0000000000E+00
                       1.4023196028E+00  1.4023196028E+00  1.4023196028E+00
            xcart      0.0000000000E+00  0.0000000000E+00  0.0000000000E+00
                       2.6500000000E+00  2.6500000000E+00  2.6500000000E+00
             xred      0.0000000000E+00  0.0000000000E+00  0.0000000000E+00
                       2.5000000000E-01  2.5000000000E-01  2.5000000000E-01
            znucl       31.00000   33.00000

================================================================================

 chkinp: Checking input parameters for consistency, jdtset=   1.

 chkinp: Checking input parameters for consistency, jdtset=   2.

 chkinp: Checking input parameters for consistency, jdtset=   3.

 chkinp: Checking input parameters for consistency, jdtset=   4.

 chkinp: Checking input parameters for consistency, jdtset=   5.

================================================================================
== DATASET  1 ==================================================================
-   nproc =   10   -> not optimal: autoparal keyword recommended in input file

 Exchange-correlation functional for the present dataset will be:
  LDA: old Teter (4/91) fit to Ceperley-Alder data - ixc=3

 Real(R)+Recip(G) space primitive vectors, cartesian coordinates (Bohr,Bohr^-1):
 R(1)=  0.0000000  5.3000000  5.3000000  G(1)= -0.0943396  0.0943396  0.0943396
 R(2)=  5.3000000  0.0000000  5.3000000  G(2)=  0.0943396 -0.0943396  0.0943396
 R(3)=  5.3000000  5.3000000  0.0000000  G(3)=  0.0943396  0.0943396 -0.0943396
 Unit cell volume ucvol=  2.9775400E+02 bohr^3
 Angles (23,13,12)=  6.00000000E+01  6.00000000E+01  6.00000000E+01 degrees

 getcut: wavevector=  0.0000  0.0000  0.0000  ngfft=   8   8   8
         ecut(hartree)=      1.000   => boxcut(ratio)=   2.37101

 getcut : COMMENT -
  Note that boxcut > 2.2 ; recall that boxcut=Gcut(box)/Gcut(sphere) = 2
  is sufficient for exact treatment of convolution.
  Such a large boxcut is a waste : you could raise ecut
  e.g. ecut=    1.405426 Hartrees makes boxcut=2


--- Pseudopotential description ------------------------------------------------
- pspini: atom type   1  psp file is /home/buildbot/ABINIT/cronos_gcc46_paral/trunk_7.10.4-training/tests/Psps_for_tests/31ga.SGS_mod
- pspatm: opening atomic psp file    /home/buildbot/ABINIT/cronos_gcc46_paral/trunk_7.10.4-training/tests/Psps_for_tests/31ga.SGS_mod
-   pspot from prpsa - Bachelet or Stumpf table ( !! OLD, only for tests )
- 31.00000   3.00000    900101                znucl, zion, pspdat
    5    3    2    2       267   0.00000      pspcod,pspxc,lmax,lloc,mmax,r2well
    3.225807E-04    4.879035E-02              r1 and al (Hamman grid)
    0   0.000   0.000    1   1.2712000        l,e99.0,e99.9,nproj,rcpsp
   0.00000000   0.00000000   0.00000000   0.00000000     rms, ekb1, ekb2, epsatm
    1   0.000   0.000    1   1.4316000        l,e99.0,e99.9,nproj,rcpsp
   0.00000000   0.00000000   0.00000000   0.00000000     rms, ekb1, ekb2, epsatm
    2   0.000   0.000    0   1.4889000        l,e99.0,e99.9,nproj,rcpsp
   0.00000000   0.00000000   0.00000000   0.00000000     rms, ekb1, ekb2, epsatm
    0.00000000000000    0.00000000000000    0.00000000000000   rchrg,fchrg,qchrg
 pspatm: epsatm=   19.73612150
         --- l  ekb(1:nproj) -->
             0    9.397339
             1   -0.525725
 pspatm: atomic psp has been read  and splines computed

- pspini: atom type   2  psp file is /home/buildbot/ABINIT/cronos_gcc46_paral/trunk_7.10.4-training/tests/Psps_for_tests/33as.SGS_mod
- pspatm: opening atomic psp file    /home/buildbot/ABINIT/cronos_gcc46_paral/trunk_7.10.4-training/tests/Psps_for_tests/33as.SGS_mod
-   pspot from prpsa - Bachelet or Stumpf table ( !! OLD, for testing purposes only )
- 33.00000   5.00000    900101                znucl, zion, pspdat
    5    3    2    2       269   0.00000      pspcod,pspxc,lmax,lloc,mmax,r2well
    3.030304E-04    4.879035E-02              r1 and al (Hamman grid)
    0   0.000   0.000    1   1.0000000        l,e99.0,e99.9,nproj,rcpsp
   0.00000000   0.00000000   0.00000000   0.00000000     rms, ekb1, ekb2, epsatm
    1   0.000   0.000    1   1.0000000        l,e99.0,e99.9,nproj,rcpsp
   0.00000000   0.00000000   0.00000000   0.00000000     rms, ekb1, ekb2, epsatm
    2   0.000   0.000    0   1.0000000        l,e99.0,e99.9,nproj,rcpsp
   0.00000000   0.00000000   0.00000000   0.00000000     rms, ekb1, ekb2, epsatm
    0.00000000000000    0.00000000000000    0.00000000000000   rchrg,fchrg,qchrg
 pspatm: epsatm=   26.05495600
         --- l  ekb(1:nproj) -->
             0    9.019459
             1   -0.908274
 pspatm: atomic psp has been read  and splines computed

   3.66328620E+02                                ecore*ucvol(ha*bohr**3)
--------------------------------------------------------------------------------

P newkpt: treating      4 bands with npw=      15 for ikpt=   1 by node    0
P newkpt: treating      4 bands with npw=      15 for ikpt=   2 by node    1

_setup2: Arith. and geom. avg. npw (full set) are      15.000      15.000

================================================================================

     iter   Etot(hartree)      deltaE(h)  residm     vres2    diffor    maxfor
 ETOT  1  -8.0021645254243    -8.002E+00 2.266E-05 2.146E+00 0.000E+00 0.000E+00
 ETOT  2  -8.0194145723651    -1.725E-02 2.094E-09 1.552E-01 0.000E+00 0.000E+00
 ETOT  3  -8.0206309429873    -1.216E-03 1.606E-05 1.781E-03 0.000E+00 0.000E+00
 ETOT  4  -8.0206396545258    -8.712E-06 1.927E-08 1.296E-04 0.000E+00 0.000E+00
 ETOT  5  -8.0206403434230    -6.889E-07 3.067E-09 9.070E-07 2.837E-30 2.837E-30
 ETOT  6  -8.0206403499335    -6.511E-09 7.174E-11 7.232E-08 2.424E-30 5.262E-30
 ETOT  7  -8.0206403503733    -4.398E-10 5.639E-12 2.734E-09 5.138E-30 1.240E-31
 ETOT  8  -8.0206403503875    -1.419E-11 2.079E-14 1.911E-10 5.209E-31 3.969E-31
 ETOT  9  -8.0206403503888    -1.245E-12 4.517E-15 1.900E-12 3.969E-31 0.000E+00
 ETOT 10  -8.0206403503888     1.776E-15 8.430E-17 2.073E-13 0.000E+00 0.000E+00
 ETOT 11  -8.0206403503888    -1.243E-14 5.786E-18 1.065E-14 0.000E+00 0.000E+00
 ETOT 12  -8.0206403503888     8.882E-15 4.991E-20 6.562E-16 0.000E+00 0.000E+00
 ETOT 13  -8.0206403503888    -1.776E-15 1.532E-20 1.553E-17 0.000E+00 0.000E+00
 ETOT 14  -8.0206403503888    -1.243E-14 3.457E-22 1.872E-18 0.000E+00 0.000E+00
 ETOT 15  -8.0206403503888     1.066E-14 9.662E-23 8.955E-20 0.000E+00 0.000E+00

 At SCF step   15   max residual=  9.66E-23 < tolwfr=  1.00E-22 =>converged.

 Cartesian components of stress tensor (hartree/bohr^3)
  sigma(1 1)=  1.14843208E-03  sigma(3 2)=  0.00000000E+00
  sigma(2 2)=  1.14843208E-03  sigma(3 1)=  0.00000000E+00
  sigma(3 3)=  1.14843208E-03  sigma(2 1)=  0.00000000E+00

================================================================================

 ----iterations are completed or convergence reached----

 Mean square residual over all n,k,spin=   3.4107E-23; max=  9.6623E-23
  -0.2500  0.5000  0.0000    1  9.66230E-23 kpt; spin; max resid(k); each band:
  1.31E-23 3.14E-23 9.66E-23 1.35E-23
  -0.2500  0.0000  0.0000    1  6.50993E-23 kpt; spin; max resid(k); each band:
  2.00E-23 2.22E-23 1.09E-23 6.51E-23
 reduced coordinates (array xred) for    2 atoms
       0.000000000000      0.000000000000      0.000000000000
       0.250000000000      0.250000000000      0.250000000000
 rms dE/dt=  0.0000E+00; max dE/dt=  0.0000E+00; dE/dt below (all hartree)
    1       0.000000000000      0.000000000000      0.000000000000
    2       0.000000000000      0.000000000000      0.000000000000

 cartesian coordinates (angstrom) at end:
    1      0.00000000000000     0.00000000000000     0.00000000000000
    2      1.40231960276350     1.40231960276350     1.40231960276350

 cartesian forces (hartree/bohr) at end:
    1     -0.00000000000000    -0.00000000000000    -0.00000000000000
    2     -0.00000000000000    -0.00000000000000    -0.00000000000000
 frms,max,avg= 0.0000000E+00 0.0000000E+00   0.000E+00  0.000E+00  0.000E+00 h/b

 cartesian forces (eV/Angstrom) at end:
    1     -0.00000000000000    -0.00000000000000    -0.00000000000000
    2     -0.00000000000000    -0.00000000000000    -0.00000000000000
 frms,max,avg= 0.0000000E+00 0.0000000E+00   0.000E+00  0.000E+00  0.000E+00 e/A
 length scales= 10.600000000000 10.600000000000 10.600000000000 bohr
              =  5.609278411054  5.609278411054  5.609278411054 angstroms
 prteigrs : about to open file t54_MPI10o_DS1_EIG
 Fermi (or HOMO) energy (hartree) =   0.01542   Average Vxc (hartree)=  -0.33197
 Eigenvalues (hartree) for nkpt=   2  k points:
 kpt#   1, nband=  4, wtk=  0.75000, kpt= -0.2500  0.5000  0.0000 (reduced coord)
  -0.32023  -0.16274  -0.06400  -0.03685
 kpt#   2, nband=  4, wtk=  0.25000, kpt= -0.2500  0.0000  0.0000 (reduced coord)
  -0.38141  -0.08005   0.01542   0.01542
 Total charge density [el/Bohr^3]
,     Maximum=    6.1441E-02  at reduced coord.    0.1250    0.1250    0.6250
,Next maximum=    6.1441E-02  at reduced coord.    0.1250    0.6250    0.1250
,     Minimum=    1.7788E-03  at reduced coord.    0.7500    0.7500    0.7500
,Next minimum=    2.2312E-03  at reduced coord.    0.5000    0.5000    0.5000
,  Integrated=    8.0000E+00

--------------------------------------------------------------------------------
 Components of total free energy (in Hartree) :

    Kinetic energy  =  2.65974436477449E+00
    Hartree energy  =  3.57196304948596E-01
    XC energy       = -2.25852868691551E+00
    Ewald energy    = -8.48789573682593E+00
    PspCore energy  =  1.23030629308494E+00
    Loc. psp. energy= -1.63273884096924E+00
    NL   psp  energy=  1.11275951513903E-01
    >>>>>>>>> Etotal= -8.02064035038877E+00

 Other information on the energy :
    Total energy(eV)= -2.18252723377434E+02 ; Band energy (Ha)=  -1.0910407616E+00
--------------------------------------------------------------------------------

 Cartesian components of stress tensor (hartree/bohr^3)
  sigma(1 1)=  1.14843208E-03  sigma(3 2)=  0.00000000E+00
  sigma(2 2)=  1.14843208E-03  sigma(3 1)=  0.00000000E+00
  sigma(3 3)=  1.14843208E-03  sigma(2 1)=  0.00000000E+00

-Cartesian components of stress tensor (GPa)         [Pressure= -3.3788E+01 GPa]
- sigma(1 1)=  3.37880326E+01  sigma(3 2)=  0.00000000E+00
- sigma(2 2)=  3.37880326E+01  sigma(3 1)=  0.00000000E+00
- sigma(3 3)=  3.37880326E+01  sigma(2 1)=  0.00000000E+00

================================================================================
== DATASET  2 ==================================================================
-   nproc =   10   -> not optimal: autoparal keyword recommended in input file

 mkfilename : getwfk/=0, take file _WFK from output of DATASET   1.

 mkfilename : getden/=0, take file _DEN from output of DATASET   1.

 Exchange-correlation functional for the present dataset will be:
  LDA: old Teter (4/91) fit to Ceperley-Alder data - ixc=3

 Real(R)+Recip(G) space primitive vectors, cartesian coordinates (Bohr,Bohr^-1):
 R(1)=  0.0000000  5.3000000  5.3000000  G(1)= -0.0943396  0.0943396  0.0943396
 R(2)=  5.3000000  0.0000000  5.3000000  G(2)=  0.0943396 -0.0943396  0.0943396
 R(3)=  5.3000000  5.3000000  0.0000000  G(3)=  0.0943396  0.0943396 -0.0943396
 Unit cell volume ucvol=  2.9775400E+02 bohr^3
 Angles (23,13,12)=  6.00000000E+01  6.00000000E+01  6.00000000E+01 degrees

 getcut: wavevector=  0.0000  0.0000  0.0000  ngfft=   8   8   8
         ecut(hartree)=      1.000   => boxcut(ratio)=   2.37101

 getcut : COMMENT -
  Note that boxcut > 2.2 ; recall that boxcut=Gcut(box)/Gcut(sphere) = 2
  is sufficient for exact treatment of convolution.
  Such a large boxcut is a waste : you could raise ecut
  e.g. ecut=    1.405426 Hartrees makes boxcut=2

--------------------------------------------------------------------------------

-inwffil : will read wavefunctions from disk file t54_MPI10o_DS1_WFK
- newkpt: read input wf with ikpt,npw=   1      15, make ikpt,npw=   1      15
- newkpt: read input wf with ikpt,npw=   1      15, make ikpt,npw=   2      15


================================================================================
 prteigrs : about to open file t54_MPI10o_DS2_EIG
 Non-SCF case, kpt    1 ( -0.25000  0.50000  0.00000), residuals and eigenvalues=
  4.97E-23  3.84E-23  9.28E-23  1.69E-23
 -3.2023E-01 -1.6274E-01 -6.3996E-02 -3.6853E-02
 Non-SCF case, kpt    2 (  0.50000 -0.25000  0.00000), residuals and eigenvalues=
  6.05E-23  5.13E-23  3.39E-23  3.05E-23
 -3.2023E-01 -1.6274E-01 -6.3996E-02 -3.6853E-02
 Non-SCF case, kpt    3 ( -0.25000 -0.25000  0.25000), residuals and eigenvalues=
  5.83E-23  3.79E-23  3.44E-23  2.46E-23
 -3.2023E-01 -1.6274E-01 -6.3996E-02 -3.6853E-02
 Non-SCF case, kpt    4 ( -0.25000  0.00000  0.00000), residuals and eigenvalues=
  9.18E-23  4.00E-23  1.81E-23  5.68E-23
 -3.8141E-01 -8.0049E-02  1.5417E-02  1.5417E-02
 Non-SCF case, kpt    5 ( -0.25000  0.25000  0.25000), residuals and eigenvalues=
  5.99E-23  6.89E-23  3.73E-23  2.08E-23
 -3.2023E-01 -1.6274E-01 -6.3996E-02 -3.6853E-02
 Non-SCF case, kpt    6 (  0.50000  0.50000  0.25000), residuals and eigenvalues=
  6.68E-23  4.93E-23  4.01E-23  3.62E-23
 -3.2023E-01 -1.6274E-01 -6.3996E-02 -3.6853E-02
 Non-SCF case, kpt    7 ( -0.25000  0.50000  0.50000), residuals and eigenvalues=
  5.17E-23  5.76E-23  9.69E-23  3.04E-23
 -3.2023E-01 -1.6274E-01 -6.3996E-02 -3.6853E-02
 Non-SCF case, kpt    8 (  0.00000 -0.25000  0.00000), residuals and eigenvalues=
  9.96E-23  4.03E-23  3.88E-23  8.37E-23
 -3.8141E-01 -8.0049E-02  1.5417E-02  1.5417E-02
 Non-SCF case, kpt    9 (  0.25000 -0.25000  0.25000), residuals and eigenvalues=
  6.01E-23  5.25E-23  3.80E-23  6.69E-23
 -3.2023E-01 -1.6274E-01 -6.3996E-02 -3.6853E-02
 Non-SCF case, kpt   10 (  0.50000 -0.25000  0.50000), residuals and eigenvalues=
  5.54E-23  5.11E-23  3.05E-23  3.45E-23
 -3.2023E-01 -1.6274E-01 -6.3996E-02 -3.6853E-02
 Non-SCF case, kpt   11 ( -0.25000 -0.25000 -0.25000), residuals and eigenvalues=
  9.96E-23  4.03E-23  3.67E-23  6.73E-23
 -3.8141E-01 -8.0049E-02  1.5417E-02  1.5417E-02
 Non-SCF case, kpt   12 (  0.50000  0.00000  0.25000), residuals and eigenvalues=
  6.71E-23  6.28E-23  4.20E-23  4.36E-23
 -3.2023E-01 -1.6274E-01 -6.3996E-02 -3.6853E-02
 Non-SCF case, kpt   13 ( -0.25000  0.00000  0.50000), residuals and eigenvalues=
  5.04E-23  4.02E-23  9.55E-23  4.16E-23
 -3.2023E-01 -1.6274E-01 -6.3996E-02 -3.6853E-02
 Non-SCF case, kpt   14 (  0.00000  0.50000  0.25000), residuals and eigenvalues=
  6.66E-23  6.11E-23  3.73E-23  2.55E-23
 -3.2023E-01 -1.6274E-01 -6.3996E-02 -3.6853E-02
 Non-SCF case, kpt   15 (  0.00000 -0.25000  0.50000), residuals and eigenvalues=
  6.07E-23  5.13E-23  2.98E-23  3.71E-23
 -3.2023E-01 -1.6274E-01 -6.3996E-02 -3.6853E-02
 Non-SCF case, kpt   16 (  0.00000  0.00000  0.25000), residuals and eigenvalues=
  1.30E-23  5.16E-23  6.02E-23  6.80E-23
 -3.8141E-01 -8.0049E-02  1.5417E-02  1.5417E-02
================================================================================

 ----iterations are completed or convergence reached----

 Mean square residual over all n,k,spin=   5.0822E-23; max=  9.9572E-23
  -0.2500  0.5000  0.0000    1  9.28177E-23 kpt; spin; max resid(k); each band:
  4.97E-23 3.84E-23 9.28E-23 1.69E-23
   0.5000 -0.2500  0.0000    1  6.04812E-23 kpt; spin; max resid(k); each band:
  6.05E-23 5.13E-23 3.39E-23 3.05E-23
  -0.2500 -0.2500  0.2500    1  5.82758E-23 kpt; spin; max resid(k); each band:
  5.83E-23 3.79E-23 3.44E-23 2.46E-23
  -0.2500  0.0000  0.0000    1  9.18342E-23 kpt; spin; max resid(k); each band:
  9.18E-23 4.00E-23 1.81E-23 5.68E-23
  -0.2500  0.2500  0.2500    1  6.88706E-23 kpt; spin; max resid(k); each band:
  5.99E-23 6.89E-23 3.73E-23 2.08E-23
   0.5000  0.5000  0.2500    1  6.67550E-23 kpt; spin; max resid(k); each band:
  6.68E-23 4.93E-23 4.01E-23 3.62E-23
  -0.2500  0.5000  0.5000    1  9.68993E-23 kpt; spin; max resid(k); each band:
  5.17E-23 5.76E-23 9.69E-23 3.04E-23
   0.0000 -0.2500  0.0000    1  9.95711E-23 kpt; spin; max resid(k); each band:
  9.96E-23 4.03E-23 3.88E-23 8.37E-23
   0.2500 -0.2500  0.2500    1  6.68688E-23 kpt; spin; max resid(k); each band:
  6.01E-23 5.25E-23 3.80E-23 6.69E-23
   0.5000 -0.2500  0.5000    1  5.54318E-23 kpt; spin; max resid(k); each band:
  5.54E-23 5.11E-23 3.05E-23 3.45E-23
  -0.2500 -0.2500 -0.2500    1  9.95717E-23 kpt; spin; max resid(k); each band:
  9.96E-23 4.03E-23 3.67E-23 6.73E-23
   0.5000  0.0000  0.2500    1  6.70848E-23 kpt; spin; max resid(k); each band:
  6.71E-23 6.28E-23 4.20E-23 4.36E-23
  -0.2500  0.0000  0.5000    1  9.55211E-23 kpt; spin; max resid(k); each band:
  5.04E-23 4.02E-23 9.55E-23 4.16E-23
   0.0000  0.5000  0.2500    1  6.65672E-23 kpt; spin; max resid(k); each band:
  6.66E-23 6.11E-23 3.73E-23 2.55E-23
   0.0000 -0.2500  0.5000    1  6.06804E-23 kpt; spin; max resid(k); each band:
  6.07E-23 5.13E-23 2.98E-23 3.71E-23
   0.0000  0.0000  0.2500    1  6.79580E-23 kpt; spin; max resid(k); each band:
  1.30E-23 5.16E-23 6.02E-23 6.80E-23
 reduced coordinates (array xred) for    2 atoms
       0.000000000000      0.000000000000      0.000000000000
       0.250000000000      0.250000000000      0.250000000000

 cartesian coordinates (angstrom) at end:
    1      0.00000000000000     0.00000000000000     0.00000000000000
    2      1.40231960276350     1.40231960276350     1.40231960276350
 length scales= 10.600000000000 10.600000000000 10.600000000000 bohr
              =  5.609278411054  5.609278411054  5.609278411054 angstroms
 prteigrs : about to open file t54_MPI10o_DS2_EIG
 Eigenvalues (hartree) for nkpt=  16  k points:
 kpt#   1, nband=  4, wtk=  0.06250, kpt= -0.2500  0.5000  0.0000 (reduced coord)
  -0.32023  -0.16274  -0.06400  -0.03685
 kpt#   2, nband=  4, wtk=  0.06250, kpt=  0.5000 -0.2500  0.0000 (reduced coord)
  -0.32023  -0.16274  -0.06400  -0.03685
 kpt#   3, nband=  4, wtk=  0.06250, kpt= -0.2500 -0.2500  0.2500 (reduced coord)
  -0.32023  -0.16274  -0.06400  -0.03685
 kpt#   4, nband=  4, wtk=  0.06250, kpt= -0.2500  0.0000  0.0000 (reduced coord)
  -0.38141  -0.08005   0.01542   0.01542
 kpt#   5, nband=  4, wtk=  0.06250, kpt= -0.2500  0.2500  0.2500 (reduced coord)
  -0.32023  -0.16274  -0.06400  -0.03685
 kpt#   6, nband=  4, wtk=  0.06250, kpt=  0.5000  0.5000  0.2500 (reduced coord)
  -0.32023  -0.16274  -0.06400  -0.03685
 kpt#   7, nband=  4, wtk=  0.06250, kpt= -0.2500  0.5000  0.5000 (reduced coord)
  -0.32023  -0.16274  -0.06400  -0.03685
 kpt#   8, nband=  4, wtk=  0.06250, kpt=  0.0000 -0.2500  0.0000 (reduced coord)
  -0.38141  -0.08005   0.01542   0.01542
 kpt#   9, nband=  4, wtk=  0.06250, kpt=  0.2500 -0.2500  0.2500 (reduced coord)
  -0.32023  -0.16274  -0.06400  -0.03685
 kpt#  10, nband=  4, wtk=  0.06250, kpt=  0.5000 -0.2500  0.5000 (reduced coord)
  -0.32023  -0.16274  -0.06400  -0.03685
 kpt#  11, nband=  4, wtk=  0.06250, kpt= -0.2500 -0.2500 -0.2500 (reduced coord)
  -0.38141  -0.08005   0.01542   0.01542
 kpt#  12, nband=  4, wtk=  0.06250, kpt=  0.5000  0.0000  0.2500 (reduced coord)
  -0.32023  -0.16274  -0.06400  -0.03685
 kpt#  13, nband=  4, wtk=  0.06250, kpt= -0.2500  0.0000  0.5000 (reduced coord)
  -0.32023  -0.16274  -0.06400  -0.03685
 kpt#  14, nband=  4, wtk=  0.06250, kpt=  0.0000  0.5000  0.2500 (reduced coord)
  -0.32023  -0.16274  -0.06400  -0.03685
 kpt#  15, nband=  4, wtk=  0.06250, kpt=  0.0000 -0.2500  0.5000 (reduced coord)
  -0.32023  -0.16274  -0.06400  -0.03685
 kpt#  16, nband=  4, wtk=  0.06250, kpt=  0.0000  0.0000  0.2500 (reduced coord)
  -0.38141  -0.08005   0.01542   0.01542
 Total charge density [el/Bohr^3]
,     Maximum=    6.1441E-02  at reduced coord.    0.1250    0.1250    0.6250
,Next maximum=    6.1441E-02  at reduced coord.    0.1250    0.6250    0.1250
,     Minimum=    1.7788E-03  at reduced coord.    0.7500    0.7500    0.7500
,Next minimum=    2.2312E-03  at reduced coord.    0.5000    0.5000    0.5000
,  Integrated=    8.0000E+00

================================================================================
== DATASET  3 ==================================================================
-   nproc =   10

 mkfilename : getwfk/=0, take file _WFK from output of DATASET   2.

 Exchange-correlation functional for the present dataset will be:
  LDA: old Teter (4/91) fit to Ceperley-Alder data - ixc=3

 Real(R)+Recip(G) space primitive vectors, cartesian coordinates (Bohr,Bohr^-1):
 R(1)=  0.0000000  5.3000000  5.3000000  G(1)= -0.0943396  0.0943396  0.0943396
 R(2)=  5.3000000  0.0000000  5.3000000  G(2)=  0.0943396 -0.0943396  0.0943396
 R(3)=  5.3000000  5.3000000  0.0000000  G(3)=  0.0943396  0.0943396 -0.0943396
 Unit cell volume ucvol=  2.9775400E+02 bohr^3
 Angles (23,13,12)=  6.00000000E+01  6.00000000E+01  6.00000000E+01 degrees
 setup1 : take into account q-point for computing boxcut.

 getcut: wavevector=  0.0000  0.0000  0.0000  ngfft=   8   8   8
         ecut(hartree)=      1.000   => boxcut(ratio)=   2.37101

 getcut : COMMENT -
  Note that boxcut > 2.2 ; recall that boxcut=Gcut(box)/Gcut(sphere) = 2
  is sufficient for exact treatment of convolution.
  Such a large boxcut is a waste : you could raise ecut
  e.g. ecut=    1.405426 Hartrees makes boxcut=2

--------------------------------------------------------------------------------

-inwffil : will read wavefunctions from disk file t54_MPI10o_DS2_WFK
P newkpt: treating      4 bands with npw=      15 for ikpt=   1 by node    0
P newkpt: treating      4 bands with npw=      15 for ikpt=   2 by node    0
P newkpt: treating      4 bands with npw=      15 for ikpt=   3 by node    1
P newkpt: treating      4 bands with npw=      15 for ikpt=   4 by node    1
P newkpt: treating      4 bands with npw=      15 for ikpt=   5 by node    2
P newkpt: treating      4 bands with npw=      15 for ikpt=   6 by node    2
P newkpt: treating      4 bands with npw=      15 for ikpt=   7 by node    3
P newkpt: treating      4 bands with npw=      15 for ikpt=   8 by node    3
P newkpt: treating      4 bands with npw=      15 for ikpt=   9 by node    4
P newkpt: treating      4 bands with npw=      15 for ikpt=  10 by node    4
P newkpt: treating      4 bands with npw=      15 for ikpt=  11 by node    5
P newkpt: treating      4 bands with npw=      15 for ikpt=  12 by node    5
P newkpt: treating      4 bands with npw=      15 for ikpt=  13 by node    6
P newkpt: treating      4 bands with npw=      15 for ikpt=  14 by node    6
P newkpt: treating      4 bands with npw=      15 for ikpt=  15 by node    7
P newkpt: treating      4 bands with npw=      15 for ikpt=  16 by node    7


 ==>  initialize data related to q vector <== 

 The list of irreducible perturbations for this q vector is:
    1)    idir= 1    ipert=   3
    2)    idir= 2    ipert=   3
    3)    idir= 3    ipert=   3

================================================================================

--------------------------------------------------------------------------------
 Perturbation wavevector (in red.coord.)   0.000000  0.000000  0.000000
 Perturbation : derivative vs k along direction   1
 The set of symmetries contains only one element for this perturbation.
 symkpt : not enough symmetry to change the number of k points.

--------------------------------------------------------------------------------

-inwffil : will read wavefunctions from disk file t54_MPI10o_DS2_WFK
P newkpt: treating      4 bands with npw=      15 for ikpt=   1 by node    0
P newkpt: treating      4 bands with npw=      15 for ikpt=   2 by node    0
P newkpt: treating      4 bands with npw=      15 for ikpt=   3 by node    1
P newkpt: treating      4 bands with npw=      15 for ikpt=   4 by node    1
P newkpt: treating      4 bands with npw=      15 for ikpt=   5 by node    2
P newkpt: treating      4 bands with npw=      15 for ikpt=   6 by node    2
P newkpt: treating      4 bands with npw=      15 for ikpt=   7 by node    3
P newkpt: treating      4 bands with npw=      15 for ikpt=   8 by node    3
P newkpt: treating      4 bands with npw=      15 for ikpt=   9 by node    4
P newkpt: treating      4 bands with npw=      15 for ikpt=  10 by node    4
P newkpt: treating      4 bands with npw=      15 for ikpt=  11 by node    5
P newkpt: treating      4 bands with npw=      15 for ikpt=  12 by node    5
P newkpt: treating      4 bands with npw=      15 for ikpt=  13 by node    6
P newkpt: treating      4 bands with npw=      15 for ikpt=  14 by node    6
P newkpt: treating      4 bands with npw=      15 for ikpt=  15 by node    7
P newkpt: treating      4 bands with npw=      15 for ikpt=  16 by node    7

--------------------------------------------------------------------------------

-inwffil : will read wavefunctions from disk file t54_MPI10o_DS2_WFK
P newkpt: treating      4 bands with npw=      15 for ikpt=   1 by node    0
P newkpt: treating      4 bands with npw=      15 for ikpt=   2 by node    0
P newkpt: treating      4 bands with npw=      15 for ikpt=   3 by node    1
P newkpt: treating      4 bands with npw=      15 for ikpt=   4 by node    1
P newkpt: treating      4 bands with npw=      15 for ikpt=   5 by node    2
P newkpt: treating      4 bands with npw=      15 for ikpt=   6 by node    2
P newkpt: treating      4 bands with npw=      15 for ikpt=   7 by node    3
P newkpt: treating      4 bands with npw=      15 for ikpt=   8 by node    3
P newkpt: treating      4 bands with npw=      15 for ikpt=   9 by node    4
P newkpt: treating      4 bands with npw=      15 for ikpt=  10 by node    4
P newkpt: treating      4 bands with npw=      15 for ikpt=  11 by node    5
P newkpt: treating      4 bands with npw=      15 for ikpt=  12 by node    5
P newkpt: treating      4 bands with npw=      15 for ikpt=  13 by node    6
P newkpt: treating      4 bands with npw=      15 for ikpt=  14 by node    6
P newkpt: treating      4 bands with npw=      15 for ikpt=  15 by node    7
P newkpt: treating      4 bands with npw=      15 for ikpt=  16 by node    7

 Initialisation of the first-order wave-functions :
  ireadwf=   0
P newkpt: treating      4 bands with npw=      15 for ikpt=   1 by node    0
P newkpt: treating      4 bands with npw=      15 for ikpt=   2 by node    0
P newkpt: treating      4 bands with npw=      15 for ikpt=   3 by node    1
P newkpt: treating      4 bands with npw=      15 for ikpt=   4 by node    1
P newkpt: treating      4 bands with npw=      15 for ikpt=   5 by node    2
P newkpt: treating      4 bands with npw=      15 for ikpt=   6 by node    2
P newkpt: treating      4 bands with npw=      15 for ikpt=   7 by node    3
P newkpt: treating      4 bands with npw=      15 for ikpt=   8 by node    3
P newkpt: treating      4 bands with npw=      15 for ikpt=   9 by node    4
P newkpt: treating      4 bands with npw=      15 for ikpt=  10 by node    4
P newkpt: treating      4 bands with npw=      15 for ikpt=  11 by node    5
P newkpt: treating      4 bands with npw=      15 for ikpt=  12 by node    5
P newkpt: treating      4 bands with npw=      15 for ikpt=  13 by node    6
P newkpt: treating      4 bands with npw=      15 for ikpt=  14 by node    6
P newkpt: treating      4 bands with npw=      15 for ikpt=  15 by node    7
P newkpt: treating      4 bands with npw=      15 for ikpt=  16 by node    7


     iter   2DEtotal(Ha)        deltaE(Ha) residm    vres2
-ETOT  1  -10.008223145475     -1.001E+01 1.227E-03 0.000E+00
 ETOT  2  -10.008769926698     -5.468E-04 7.191E-07 0.000E+00
 ETOT  3  -10.008770074701     -1.480E-07 9.903E-11 0.000E+00
 ETOT  4  -10.008770074728     -2.721E-11 3.263E-14 0.000E+00
 ETOT  5  -10.008770074728     -8.882E-15 1.341E-17 0.000E+00
 ETOT  6  -10.008770074728      0.000E+00 1.022E-20 0.000E+00
 ETOT  7  -10.008770074728     -1.776E-15 9.929E-23 0.000E+00

 At SCF step    7   max residual=  9.93E-23 < tolwfr=  1.00E-22 =>converged.
================================================================================

 ----iterations are completed or convergence reached----

 Mean square residual over all n,k,spin=   3.4380E-23; max=  9.9286E-23
  -0.2500  0.5000  0.0000    1  3.73457E-23 kpt; spin; max resid(k); each band:
  2.10E-23 3.73E-23 2.05E-23 4.35E-24
   0.5000 -0.2500  0.0000    1  7.46468E-23 kpt; spin; max resid(k); each band:
  2.13E-23 1.63E-23 5.02E-24 7.46E-23
  -0.2500 -0.2500  0.2500    1  7.02816E-23 kpt; spin; max resid(k); each band:
  5.71E-23 7.03E-23 1.39E-23 3.32E-23
  -0.2500  0.0000  0.0000    1  2.91818E-23 kpt; spin; max resid(k); each band:
  2.92E-23 2.20E-23 1.18E-26 2.94E-26
  -0.2500  0.2500  0.2500    1  7.41363E-23 kpt; spin; max resid(k); each band:
  2.13E-23 1.63E-23 5.02E-24 7.41E-23
   0.5000  0.5000  0.2500    1  7.02820E-23 kpt; spin; max resid(k); each band:
  5.71E-23 7.03E-23 1.39E-23 3.32E-23
  -0.2500  0.5000  0.5000    1  3.73457E-23 kpt; spin; max resid(k); each band:
  2.10E-23 3.73E-23 2.05E-23 1.58E-24
   0.0000 -0.2500  0.0000    1  9.92820E-23 kpt; spin; max resid(k); each band:
  2.85E-23 5.38E-23 2.15E-23 9.93E-23
   0.2500 -0.2500  0.2500    1  7.02817E-23 kpt; spin; max resid(k); each band:
  5.71E-23 7.03E-23 1.39E-23 3.32E-23
   0.5000 -0.2500  0.5000    1  7.02818E-23 kpt; spin; max resid(k); each band:
  5.71E-23 7.03E-23 1.39E-23 3.32E-23
  -0.2500 -0.2500 -0.2500    1  9.92863E-23 kpt; spin; max resid(k); each band:
  2.85E-23 5.38E-23 2.16E-23 9.93E-23
   0.5000  0.0000  0.2500    1  7.41376E-23 kpt; spin; max resid(k); each band:
  2.13E-23 1.63E-23 5.02E-24 7.41E-23
  -0.2500  0.0000  0.5000    1  3.73457E-23 kpt; spin; max resid(k); each band:
  2.10E-23 3.73E-23 2.05E-23 4.35E-24
   0.0000  0.5000  0.2500    1  7.02817E-23 kpt; spin; max resid(k); each band:
  5.71E-23 7.03E-23 1.39E-23 3.32E-23
   0.0000 -0.2500  0.5000    1  7.02815E-23 kpt; spin; max resid(k); each band:
  5.71E-23 7.03E-23 1.39E-23 3.32E-23
   0.0000  0.0000  0.2500    1  5.38367E-23 kpt; spin; max resid(k); each band:
  2.85E-23 5.38E-23 1.29E-23 3.08E-24
 loper3 : ek2=    1.6865112540E+01
          f-sum rule ratio=    9.8215015844E-01
 prteigrs : about to open file t54_MPI10_1WF1_EIG
 Expectation of eigenvalue derivatives (hartree) for nkpt=  16  k points:
  (in case of degenerate eigenvalues, averaged derivative)
 kpt#   1, nband=  4, wtk=  0.06250, kpt= -0.2500  0.5000  0.0000 (reduced coord)
  -0.09829  -0.12076   0.27833   0.14589
 kpt#   2, nband=  4, wtk=  0.06250, kpt=  0.5000 -0.2500  0.0000 (reduced coord)
  -0.16250   0.25598   0.16370  -0.05046
 kpt#   3, nband=  4, wtk=  0.06250, kpt= -0.2500 -0.2500  0.2500 (reduced coord)
  -0.13039   0.06761   0.22101   0.04772
 kpt#   4, nband=  4, wtk=  0.06250, kpt= -0.2500  0.0000  0.0000 (reduced coord)
  -0.21000   0.58964   0.08370   0.08370
 kpt#   5, nband=  4, wtk=  0.06250, kpt= -0.2500  0.2500  0.2500 (reduced coord)
  -0.16250   0.25598   0.16370  -0.05046
 kpt#   6, nband=  4, wtk=  0.06250, kpt=  0.5000  0.5000  0.2500 (reduced coord)
   0.13039  -0.06761  -0.22101  -0.04772
 kpt#   7, nband=  4, wtk=  0.06250, kpt= -0.2500  0.5000  0.5000 (reduced coord)
   0.09829   0.12076  -0.27833  -0.14589
 kpt#   8, nband=  4, wtk=  0.06250, kpt=  0.0000 -0.2500  0.0000 (reduced coord)
   0.07000  -0.19655  -0.02790  -0.02790
 kpt#   9, nband=  4, wtk=  0.06250, kpt=  0.2500 -0.2500  0.2500 (reduced coord)
   0.13039  -0.06761  -0.22101  -0.04772
 kpt#  10, nband=  4, wtk=  0.06250, kpt=  0.5000 -0.2500  0.5000 (reduced coord)
  -0.13039   0.06761   0.22101   0.04772
 kpt#  11, nband=  4, wtk=  0.06250, kpt= -0.2500 -0.2500 -0.2500 (reduced coord)
  -0.07000   0.19655   0.02790   0.02790
 kpt#  12, nband=  4, wtk=  0.06250, kpt=  0.5000  0.0000  0.2500 (reduced coord)
   0.16250  -0.25598  -0.16370   0.05046
 kpt#  13, nband=  4, wtk=  0.06250, kpt= -0.2500  0.0000  0.5000 (reduced coord)
  -0.09829  -0.12076   0.27833   0.14589
 kpt#  14, nband=  4, wtk=  0.06250, kpt=  0.0000  0.5000  0.2500 (reduced coord)
  -0.13039   0.06761   0.22101   0.04772
 kpt#  15, nband=  4, wtk=  0.06250, kpt=  0.0000 -0.2500  0.5000 (reduced coord)
   0.13039  -0.06761  -0.22101  -0.04772
 kpt#  16, nband=  4, wtk=  0.06250, kpt=  0.0000  0.0000  0.2500 (reduced coord)
  -0.07000   0.19655   0.02790   0.02790

 Eight components of 2nd-order total energy (hartree) are
 1,2,3: 0th-order hamiltonian combined with 1st-order wavefunctions
     kin0=   1.64327196E+01 eigvalue=   8.17308248E-01  local=  -1.05635998E+01
 4,5,6: 1st-order hamiltonian combined with 1st and 0th-order wfs
     kin1=  -1.65640730E+01  Hartree=   0.00000000E+00     xc=   0.00000000E+00
 7,8,9: eventually, occupation + non-local contributions
    edocc=   0.00000000E+00     enl0=   3.32234199E+00   enl1=  -3.45346720E+00
 1-9 gives the relaxation energy (to be shifted if some occ is /=2.0)
   erelax=  -1.00087701E+01
  No Ewald or frozen-wf contrib.: the relaxation energy is the total one
 2DEtotal=   -0.1000877007E+02 Ha. Also 2DEtotal=   -0.272352484470E+03 eV
    (  non-var. 2DEtotal :   -1.0008770075E+01 Ha)

--------------------------------------------------------------------------------
 Perturbation wavevector (in red.coord.)   0.000000  0.000000  0.000000
 Perturbation : derivative vs k along direction   2
 The set of symmetries contains only one element for this perturbation.
 symkpt : not enough symmetry to change the number of k points.

--------------------------------------------------------------------------------

-inwffil : will read wavefunctions from disk file t54_MPI10o_DS2_WFK
P newkpt: treating      4 bands with npw=      15 for ikpt=   1 by node    0
P newkpt: treating      4 bands with npw=      15 for ikpt=   2 by node    0
P newkpt: treating      4 bands with npw=      15 for ikpt=   3 by node    1
P newkpt: treating      4 bands with npw=      15 for ikpt=   4 by node    1
P newkpt: treating      4 bands with npw=      15 for ikpt=   5 by node    2
P newkpt: treating      4 bands with npw=      15 for ikpt=   6 by node    2
P newkpt: treating      4 bands with npw=      15 for ikpt=   7 by node    3
P newkpt: treating      4 bands with npw=      15 for ikpt=   8 by node    3
P newkpt: treating      4 bands with npw=      15 for ikpt=   9 by node    4
P newkpt: treating      4 bands with npw=      15 for ikpt=  10 by node    4
P newkpt: treating      4 bands with npw=      15 for ikpt=  11 by node    5
P newkpt: treating      4 bands with npw=      15 for ikpt=  12 by node    5
P newkpt: treating      4 bands with npw=      15 for ikpt=  13 by node    6
P newkpt: treating      4 bands with npw=      15 for ikpt=  14 by node    6
P newkpt: treating      4 bands with npw=      15 for ikpt=  15 by node    7
P newkpt: treating      4 bands with npw=      15 for ikpt=  16 by node    7

--------------------------------------------------------------------------------

-inwffil : will read wavefunctions from disk file t54_MPI10o_DS2_WFK
P newkpt: treating      4 bands with npw=      15 for ikpt=   1 by node    0
P newkpt: treating      4 bands with npw=      15 for ikpt=   2 by node    0
P newkpt: treating      4 bands with npw=      15 for ikpt=   3 by node    1
P newkpt: treating      4 bands with npw=      15 for ikpt=   4 by node    1
P newkpt: treating      4 bands with npw=      15 for ikpt=   5 by node    2
P newkpt: treating      4 bands with npw=      15 for ikpt=   6 by node    2
P newkpt: treating      4 bands with npw=      15 for ikpt=   7 by node    3
P newkpt: treating      4 bands with npw=      15 for ikpt=   8 by node    3
P newkpt: treating      4 bands with npw=      15 for ikpt=   9 by node    4
P newkpt: treating      4 bands with npw=      15 for ikpt=  10 by node    4
P newkpt: treating      4 bands with npw=      15 for ikpt=  11 by node    5
P newkpt: treating      4 bands with npw=      15 for ikpt=  12 by node    5
P newkpt: treating      4 bands with npw=      15 for ikpt=  13 by node    6
P newkpt: treating      4 bands with npw=      15 for ikpt=  14 by node    6
P newkpt: treating      4 bands with npw=      15 for ikpt=  15 by node    7
P newkpt: treating      4 bands with npw=      15 for ikpt=  16 by node    7

 Initialisation of the first-order wave-functions :
  ireadwf=   0
P newkpt: treating      4 bands with npw=      15 for ikpt=   1 by node    0
P newkpt: treating      4 bands with npw=      15 for ikpt=   2 by node    0
P newkpt: treating      4 bands with npw=      15 for ikpt=   3 by node    1
P newkpt: treating      4 bands with npw=      15 for ikpt=   4 by node    1
P newkpt: treating      4 bands with npw=      15 for ikpt=   5 by node    2
P newkpt: treating      4 bands with npw=      15 for ikpt=   6 by node    2
P newkpt: treating      4 bands with npw=      15 for ikpt=   7 by node    3
P newkpt: treating      4 bands with npw=      15 for ikpt=   8 by node    3
P newkpt: treating      4 bands with npw=      15 for ikpt=   9 by node    4
P newkpt: treating      4 bands with npw=      15 for ikpt=  10 by node    4
P newkpt: treating      4 bands with npw=      15 for ikpt=  11 by node    5
P newkpt: treating      4 bands with npw=      15 for ikpt=  12 by node    5
P newkpt: treating      4 bands with npw=      15 for ikpt=  13 by node    6
P newkpt: treating      4 bands with npw=      15 for ikpt=  14 by node    6
P newkpt: treating      4 bands with npw=      15 for ikpt=  15 by node    7
P newkpt: treating      4 bands with npw=      15 for ikpt=  16 by node    7


     iter   2DEtotal(Ha)        deltaE(Ha) residm    vres2
-ETOT  1  -10.008233164156     -1.001E+01 1.227E-03 0.000E+00
 ETOT  2  -10.008769927961     -5.368E-04 7.309E-07 0.000E+00
 ETOT  3  -10.008770074591     -1.466E-07 9.903E-11 0.000E+00
 ETOT  4  -10.008770074618     -2.745E-11 3.263E-14 0.000E+00
 ETOT  5  -10.008770074618     -8.882E-15 1.341E-17 0.000E+00
 ETOT  6  -10.008770074618     -3.553E-15 1.022E-20 0.000E+00
 ETOT  7  -10.008770074618      5.329E-15 9.790E-23 0.000E+00

 At SCF step    7   max residual=  9.79E-23 < tolwfr=  1.00E-22 =>converged.
================================================================================

 ----iterations are completed or convergence reached----

 Mean square residual over all n,k,spin=   3.4718E-23; max=  9.7896E-23
  -0.2500  0.5000  0.0000    1  7.41358E-23 kpt; spin; max resid(k); each band:
  2.13E-23 1.63E-23 5.02E-24 7.41E-23
   0.5000 -0.2500  0.0000    1  3.73455E-23 kpt; spin; max resid(k); each band:
  2.10E-23 3.73E-23 2.05E-23 1.57E-24
  -0.2500 -0.2500  0.2500    1  7.02815E-23 kpt; spin; max resid(k); each band:
  5.71E-23 7.03E-23 1.39E-23 3.32E-23
  -0.2500  0.0000  0.0000    1  9.78958E-23 kpt; spin; max resid(k); each band:
  2.85E-23 5.38E-23 2.89E-23 9.79E-23
  -0.2500  0.2500  0.2500    1  7.02815E-23 kpt; spin; max resid(k); each band:
  5.71E-23 7.03E-23 1.39E-23 3.32E-23
   0.5000  0.5000  0.2500    1  7.02813E-23 kpt; spin; max resid(k); each band:
  5.71E-23 7.03E-23 1.39E-23 3.32E-23
  -0.2500  0.5000  0.5000    1  7.02818E-23 kpt; spin; max resid(k); each band:
  5.71E-23 7.03E-23 1.39E-23 3.32E-23
   0.0000 -0.2500  0.0000    1  2.91816E-23 kpt; spin; max resid(k); each band:
  2.92E-23 2.20E-23 8.10E-27 1.96E-26
   0.2500 -0.2500  0.2500    1  7.31107E-23 kpt; spin; max resid(k); each band:
  2.13E-23 1.63E-23 5.02E-24 7.31E-23
   0.5000 -0.2500  0.5000    1  3.73457E-23 kpt; spin; max resid(k); each band:
  2.10E-23 3.73E-23 2.05E-23 1.35E-24
  -0.2500 -0.2500 -0.2500    1  5.38366E-23 kpt; spin; max resid(k); each band:
  2.85E-23 5.38E-23 1.67E-23 1.67E-23
   0.5000  0.0000  0.2500    1  7.02816E-23 kpt; spin; max resid(k); each band:
  5.71E-23 7.03E-23 1.39E-23 3.32E-23
  -0.2500  0.0000  0.5000    1  7.02816E-23 kpt; spin; max resid(k); each band:
  5.71E-23 7.03E-23 1.39E-23 3.32E-23
   0.0000  0.5000  0.2500    1  7.41365E-23 kpt; spin; max resid(k); each band:
  2.13E-23 1.63E-23 5.02E-24 7.41E-23
   0.0000 -0.2500  0.5000    1  3.73458E-23 kpt; spin; max resid(k); each band:
  2.10E-23 3.73E-23 2.05E-23 1.56E-24
   0.0000  0.0000  0.2500    1  9.78915E-23 kpt; spin; max resid(k); each band:
  2.85E-23 5.38E-23 9.79E-23 2.86E-23
 loper3 : ek2=    1.6865112540E+01
          f-sum rule ratio=    9.8215015842E-01
 prteigrs : about to open file t54_MPI10_1WF1_EIG
 Expectation of eigenvalue derivatives (hartree) for nkpt=  16  k points:
  (in case of degenerate eigenvalues, averaged derivative)
 kpt#   1, nband=  4, wtk=  0.06250, kpt= -0.2500  0.5000  0.0000 (reduced coord)
  -0.16250   0.25598   0.16370  -0.05046
 kpt#   2, nband=  4, wtk=  0.06250, kpt=  0.5000 -0.2500  0.0000 (reduced coord)
  -0.09829  -0.12076   0.27833   0.14589
 kpt#   3, nband=  4, wtk=  0.06250, kpt= -0.2500 -0.2500  0.2500 (reduced coord)
  -0.13039   0.06761   0.22101   0.04772
 kpt#   4, nband=  4, wtk=  0.06250, kpt= -0.2500  0.0000  0.0000 (reduced coord)
   0.07000  -0.19655  -0.02790  -0.02790
 kpt#   5, nband=  4, wtk=  0.06250, kpt= -0.2500  0.2500  0.2500 (reduced coord)
   0.13039  -0.06761  -0.22101  -0.04772
 kpt#   6, nband=  4, wtk=  0.06250, kpt=  0.5000  0.5000  0.2500 (reduced coord)
   0.13039  -0.06761  -0.22101  -0.04772
 kpt#   7, nband=  4, wtk=  0.06250, kpt= -0.2500  0.5000  0.5000 (reduced coord)
  -0.13039   0.06761   0.22101   0.04772
 kpt#   8, nband=  4, wtk=  0.06250, kpt=  0.0000 -0.2500  0.0000 (reduced coord)
  -0.21000   0.58964   0.08370   0.08370
 kpt#   9, nband=  4, wtk=  0.06250, kpt=  0.2500 -0.2500  0.2500 (reduced coord)
  -0.16250   0.25598   0.16370  -0.05046
 kpt#  10, nband=  4, wtk=  0.06250, kpt=  0.5000 -0.2500  0.5000 (reduced coord)
   0.09829   0.12076  -0.27833  -0.14589
 kpt#  11, nband=  4, wtk=  0.06250, kpt= -0.2500 -0.2500 -0.2500 (reduced coord)
  -0.07000   0.19655   0.02790   0.02790
 kpt#  12, nband=  4, wtk=  0.06250, kpt=  0.5000  0.0000  0.2500 (reduced coord)
  -0.13039   0.06761   0.22101   0.04772
 kpt#  13, nband=  4, wtk=  0.06250, kpt= -0.2500  0.0000  0.5000 (reduced coord)
   0.13039  -0.06761  -0.22101  -0.04772
 kpt#  14, nband=  4, wtk=  0.06250, kpt=  0.0000  0.5000  0.2500 (reduced coord)
   0.16250  -0.25598  -0.16370   0.05046
 kpt#  15, nband=  4, wtk=  0.06250, kpt=  0.0000 -0.2500  0.5000 (reduced coord)
  -0.09829  -0.12076   0.27833   0.14589
 kpt#  16, nband=  4, wtk=  0.06250, kpt=  0.0000  0.0000  0.2500 (reduced coord)
  -0.07000   0.19655   0.02790   0.02790

 Eight components of 2nd-order total energy (hartree) are
 1,2,3: 0th-order hamiltonian combined with 1st-order wavefunctions
     kin0=   1.64327196E+01 eigvalue=   8.17308248E-01  local=  -1.05635998E+01
 4,5,6: 1st-order hamiltonian combined with 1st and 0th-order wfs
     kin1=  -1.65640730E+01  Hartree=   0.00000000E+00     xc=   0.00000000E+00
 7,8,9: eventually, occupation + non-local contributions
    edocc=   0.00000000E+00     enl0=   3.32234199E+00   enl1=  -3.45346720E+00
 1-9 gives the relaxation energy (to be shifted if some occ is /=2.0)
   erelax=  -1.00087701E+01
  No Ewald or frozen-wf contrib.: the relaxation energy is the total one
 2DEtotal=   -0.1000877007E+02 Ha. Also 2DEtotal=   -0.272352484467E+03 eV
    (  non-var. 2DEtotal :   -1.0008770075E+01 Ha)

--------------------------------------------------------------------------------
 Perturbation wavevector (in red.coord.)   0.000000  0.000000  0.000000
 Perturbation : derivative vs k along direction   3
 The set of symmetries contains only one element for this perturbation.
 symkpt : not enough symmetry to change the number of k points.

--------------------------------------------------------------------------------

-inwffil : will read wavefunctions from disk file t54_MPI10o_DS2_WFK
P newkpt: treating      4 bands with npw=      15 for ikpt=   1 by node    0
P newkpt: treating      4 bands with npw=      15 for ikpt=   2 by node    0
P newkpt: treating      4 bands with npw=      15 for ikpt=   3 by node    1
P newkpt: treating      4 bands with npw=      15 for ikpt=   4 by node    1
P newkpt: treating      4 bands with npw=      15 for ikpt=   5 by node    2
P newkpt: treating      4 bands with npw=      15 for ikpt=   6 by node    2
P newkpt: treating      4 bands with npw=      15 for ikpt=   7 by node    3
P newkpt: treating      4 bands with npw=      15 for ikpt=   8 by node    3
P newkpt: treating      4 bands with npw=      15 for ikpt=   9 by node    4
P newkpt: treating      4 bands with npw=      15 for ikpt=  10 by node    4
P newkpt: treating      4 bands with npw=      15 for ikpt=  11 by node    5
P newkpt: treating      4 bands with npw=      15 for ikpt=  12 by node    5
P newkpt: treating      4 bands with npw=      15 for ikpt=  13 by node    6
P newkpt: treating      4 bands with npw=      15 for ikpt=  14 by node    6
P newkpt: treating      4 bands with npw=      15 for ikpt=  15 by node    7
P newkpt: treating      4 bands with npw=      15 for ikpt=  16 by node    7

--------------------------------------------------------------------------------

-inwffil : will read wavefunctions from disk file t54_MPI10o_DS2_WFK
P newkpt: treating      4 bands with npw=      15 for ikpt=   1 by node    0
P newkpt: treating      4 bands with npw=      15 for ikpt=   2 by node    0
P newkpt: treating      4 bands with npw=      15 for ikpt=   3 by node    1
P newkpt: treating      4 bands with npw=      15 for ikpt=   4 by node    1
P newkpt: treating      4 bands with npw=      15 for ikpt=   5 by node    2
P newkpt: treating      4 bands with npw=      15 for ikpt=   6 by node    2
P newkpt: treating      4 bands with npw=      15 for ikpt=   7 by node    3
P newkpt: treating      4 bands with npw=      15 for ikpt=   8 by node    3
P newkpt: treating      4 bands with npw=      15 for ikpt=   9 by node    4
P newkpt: treating      4 bands with npw=      15 for ikpt=  10 by node    4
P newkpt: treating      4 bands with npw=      15 for ikpt=  11 by node    5
P newkpt: treating      4 bands with npw=      15 for ikpt=  12 by node    5
P newkpt: treating      4 bands with npw=      15 for ikpt=  13 by node    6
P newkpt: treating      4 bands with npw=      15 for ikpt=  14 by node    6
P newkpt: treating      4 bands with npw=      15 for ikpt=  15 by node    7
P newkpt: treating      4 bands with npw=      15 for ikpt=  16 by node    7

 Initialisation of the first-order wave-functions :
  ireadwf=   0
P newkpt: treating      4 bands with npw=      15 for ikpt=   1 by node    0
P newkpt: treating      4 bands with npw=      15 for ikpt=   2 by node    0
P newkpt: treating      4 bands with npw=      15 for ikpt=   3 by node    1
P newkpt: treating      4 bands with npw=      15 for ikpt=   4 by node    1
P newkpt: treating      4 bands with npw=      15 for ikpt=   5 by node    2
P newkpt: treating      4 bands with npw=      15 for ikpt=   6 by node    2
P newkpt: treating      4 bands with npw=      15 for ikpt=   7 by node    3
P newkpt: treating      4 bands with npw=      15 for ikpt=   8 by node    3
P newkpt: treating      4 bands with npw=      15 for ikpt=   9 by node    4
P newkpt: treating      4 bands with npw=      15 for ikpt=  10 by node    4
P newkpt: treating      4 bands with npw=      15 for ikpt=  11 by node    5
P newkpt: treating      4 bands with npw=      15 for ikpt=  12 by node    5
P newkpt: treating      4 bands with npw=      15 for ikpt=  13 by node    6
P newkpt: treating      4 bands with npw=      15 for ikpt=  14 by node    6
P newkpt: treating      4 bands with npw=      15 for ikpt=  15 by node    7
P newkpt: treating      4 bands with npw=      15 for ikpt=  16 by node    7


     iter   2DEtotal(Ha)        deltaE(Ha) residm    vres2
-ETOT  1  -10.008223178233     -1.001E+01 1.227E-03 0.000E+00
 ETOT  2  -10.008769926484     -5.467E-04 7.191E-07 0.000E+00
 ETOT  3  -10.008770074469     -1.480E-07 9.903E-11 0.000E+00
 ETOT  4  -10.008770074496     -2.721E-11 3.263E-14 0.000E+00
 ETOT  5  -10.008770074496     -2.309E-14 1.341E-17 0.000E+00
 ETOT  6  -10.008770074496      1.243E-14 1.022E-20 0.000E+00
 ETOT  7  -10.008770074496     -7.105E-15 9.928E-23 0.000E+00

 At SCF step    7   max residual=  9.93E-23 < tolwfr=  1.00E-22 =>converged.
================================================================================

 ----iterations are completed or convergence reached----

 Mean square residual over all n,k,spin=   3.4374E-23; max=  9.9281E-23
  -0.2500  0.5000  0.0000    1  7.02816E-23 kpt; spin; max resid(k); each band:
  5.71E-23 7.03E-23 1.39E-23 3.32E-23
   0.5000 -0.2500  0.0000    1  7.02817E-23 kpt; spin; max resid(k); each band:
  5.71E-23 7.03E-23 1.39E-23 3.32E-23
  -0.2500 -0.2500  0.2500    1  7.41369E-23 kpt; spin; max resid(k); each band:
  2.13E-23 1.63E-23 5.02E-24 7.41E-23
  -0.2500  0.0000  0.0000    1  5.38371E-23 kpt; spin; max resid(k); each band:
  2.85E-23 5.38E-23 3.08E-24 1.29E-23
  -0.2500  0.2500  0.2500    1  7.02816E-23 kpt; spin; max resid(k); each band:
  5.71E-23 7.03E-23 1.39E-23 3.32E-23
   0.5000  0.5000  0.2500    1  3.73457E-23 kpt; spin; max resid(k); each band:
  2.10E-23 3.73E-23 2.05E-23 1.57E-24
  -0.2500  0.5000  0.5000    1  7.02817E-23 kpt; spin; max resid(k); each band:
  5.71E-23 7.03E-23 1.39E-23 3.32E-23
   0.0000 -0.2500  0.0000    1  9.92805E-23 kpt; spin; max resid(k); each band:
  2.85E-23 5.38E-23 9.93E-23 2.15E-23
   0.2500 -0.2500  0.2500    1  7.02816E-23 kpt; spin; max resid(k); each band:
  5.71E-23 7.03E-23 1.39E-23 3.32E-23
   0.5000 -0.2500  0.5000    1  7.02815E-23 kpt; spin; max resid(k); each band:
  5.71E-23 7.03E-23 1.39E-23 3.32E-23
  -0.2500 -0.2500 -0.2500    1  9.92721E-23 kpt; spin; max resid(k); each band:
  2.85E-23 5.38E-23 9.93E-23 2.14E-23
   0.5000  0.0000  0.2500    1  3.73456E-23 kpt; spin; max resid(k); each band:
  2.10E-23 3.73E-23 2.05E-23 4.35E-24
  -0.2500  0.0000  0.5000    1  7.41375E-23 kpt; spin; max resid(k); each band:
  2.13E-23 1.63E-23 5.02E-24 7.41E-23
   0.0000  0.5000  0.2500    1  3.73455E-23 kpt; spin; max resid(k); each band:
  2.10E-23 3.73E-23 2.05E-23 4.35E-24
   0.0000 -0.2500  0.5000    1  7.46476E-23 kpt; spin; max resid(k); each band:
  2.13E-23 1.63E-23 5.02E-24 7.46E-23
   0.0000  0.0000  0.2500    1  2.91816E-23 kpt; spin; max resid(k); each band:
  2.92E-23 2.20E-23 1.48E-26 3.68E-26
 loper3 : ek2=    1.6865112540E+01
          f-sum rule ratio=    9.8215015841E-01
 prteigrs : about to open file t54_MPI10_1WF1_EIG
 Expectation of eigenvalue derivatives (hartree) for nkpt=  16  k points:
  (in case of degenerate eigenvalues, averaged derivative)
 kpt#   1, nband=  4, wtk=  0.06250, kpt= -0.2500  0.5000  0.0000 (reduced coord)
   0.13039  -0.06761  -0.22101  -0.04772
 kpt#   2, nband=  4, wtk=  0.06250, kpt=  0.5000 -0.2500  0.0000 (reduced coord)
   0.13039  -0.06761  -0.22101  -0.04772
 kpt#   3, nband=  4, wtk=  0.06250, kpt= -0.2500 -0.2500  0.2500 (reduced coord)
   0.16250  -0.25598  -0.16370   0.05046
 kpt#   4, nband=  4, wtk=  0.06250, kpt= -0.2500  0.0000  0.0000 (reduced coord)
   0.07000  -0.19655  -0.02790  -0.02790
 kpt#   5, nband=  4, wtk=  0.06250, kpt= -0.2500  0.2500  0.2500 (reduced coord)
   0.13039  -0.06761  -0.22101  -0.04772
 kpt#   6, nband=  4, wtk=  0.06250, kpt=  0.5000  0.5000  0.2500 (reduced coord)
  -0.09829  -0.12076   0.27833   0.14589
 kpt#   7, nband=  4, wtk=  0.06250, kpt= -0.2500  0.5000  0.5000 (reduced coord)
  -0.13039   0.06761   0.22101   0.04772
 kpt#   8, nband=  4, wtk=  0.06250, kpt=  0.0000 -0.2500  0.0000 (reduced coord)
   0.07000  -0.19655  -0.02790  -0.02790
 kpt#   9, nband=  4, wtk=  0.06250, kpt=  0.2500 -0.2500  0.2500 (reduced coord)
   0.13039  -0.06761  -0.22101  -0.04772
 kpt#  10, nband=  4, wtk=  0.06250, kpt=  0.5000 -0.2500  0.5000 (reduced coord)
  -0.13039   0.06761   0.22101   0.04772
 kpt#  11, nband=  4, wtk=  0.06250, kpt= -0.2500 -0.2500 -0.2500 (reduced coord)
  -0.07000   0.19655   0.02790   0.02790
 kpt#  12, nband=  4, wtk=  0.06250, kpt=  0.5000  0.0000  0.2500 (reduced coord)
   0.09829   0.12076  -0.27833  -0.14589
 kpt#  13, nband=  4, wtk=  0.06250, kpt= -0.2500  0.0000  0.5000 (reduced coord)
  -0.16250   0.25598   0.16370  -0.05046
 kpt#  14, nband=  4, wtk=  0.06250, kpt=  0.0000  0.5000  0.2500 (reduced coord)
   0.09829   0.12076  -0.27833  -0.14589
 kpt#  15, nband=  4, wtk=  0.06250, kpt=  0.0000 -0.2500  0.5000 (reduced coord)
  -0.16250   0.25598   0.16370  -0.05046
 kpt#  16, nband=  4, wtk=  0.06250, kpt=  0.0000  0.0000  0.2500 (reduced coord)
   0.21000  -0.58964  -0.08370  -0.08370

 Eight components of 2nd-order total energy (hartree) are
 1,2,3: 0th-order hamiltonian combined with 1st-order wavefunctions
     kin0=   1.64327196E+01 eigvalue=   8.17308248E-01  local=  -1.05635998E+01
 4,5,6: 1st-order hamiltonian combined with 1st and 0th-order wfs
     kin1=  -1.65640730E+01  Hartree=   0.00000000E+00     xc=   0.00000000E+00
 7,8,9: eventually, occupation + non-local contributions
    edocc=   0.00000000E+00     enl0=   3.32234199E+00   enl1=  -3.45346720E+00
 1-9 gives the relaxation energy (to be shifted if some occ is /=2.0)
   erelax=  -1.00087701E+01
  No Ewald or frozen-wf contrib.: the relaxation energy is the total one
 2DEtotal=   -0.1000877007E+02 Ha. Also 2DEtotal=   -0.272352484464E+03 eV
    (  non-var. 2DEtotal :   -1.0008770074E+01 Ha)
================================================================================

 ---- first-order wavefunction calculations are completed ----


 Total localisation tensor (bohr^2) in cartesian coordinates
  WARNING : still subject to testing - especially symmetries.
      direction              matrix element
   alpha     beta       real part   imaginary part
     1        1       2.9608729229    0.0000000000
     1        2       1.4804364615    0.0000000000
     1        3       1.4804364615    0.0000000000
     2        1       1.4804364615    0.0000000000
     2        2       2.9608729230    0.0000000000
     2        3       1.4804364615    0.0000000000
     3        1       1.4804364615    0.0000000000
     3        2       1.4804364615    0.0000000000
     3        3       2.9608729230    0.0000000000

 respfn : d/dk was computed, but no 2DTE, so no DDB output.

================================================================================
== DATASET  4 ==================================================================
-   nproc =   10

 mkfilename : getwfk/=0, take file _WFK from output of DATASET   2.

 mkfilename : getddk/=0, take file _1WF from output of DATASET   3.

 Exchange-correlation functional for the present dataset will be:
  LDA: old Teter (4/91) fit to Ceperley-Alder data - ixc=3

 Real(R)+Recip(G) space primitive vectors, cartesian coordinates (Bohr,Bohr^-1):
 R(1)=  0.0000000  5.3000000  5.3000000  G(1)= -0.0943396  0.0943396  0.0943396
 R(2)=  5.3000000  0.0000000  5.3000000  G(2)=  0.0943396 -0.0943396  0.0943396
 R(3)=  5.3000000  5.3000000  0.0000000  G(3)=  0.0943396  0.0943396 -0.0943396
 Unit cell volume ucvol=  2.9775400E+02 bohr^3
 Angles (23,13,12)=  6.00000000E+01  6.00000000E+01  6.00000000E+01 degrees
 setup1 : take into account q-point for computing boxcut.

 getcut: wavevector=  0.0000  0.0000  0.0000  ngfft=   8   8   8
         ecut(hartree)=      1.000   => boxcut(ratio)=   2.37101

 getcut : COMMENT -
  Note that boxcut > 2.2 ; recall that boxcut=Gcut(box)/Gcut(sphere) = 2
  is sufficient for exact treatment of convolution.
  Such a large boxcut is a waste : you could raise ecut
  e.g. ecut=    1.405426 Hartrees makes boxcut=2

--------------------------------------------------------------------------------

-inwffil : will read wavefunctions from disk file t54_MPI10o_DS2_WFK
P newkpt: treating      4 bands with npw=      15 for ikpt=   1 by node    0
P newkpt: treating      4 bands with npw=      15 for ikpt=   2 by node    0
P newkpt: treating      4 bands with npw=      15 for ikpt=   3 by node    1
P newkpt: treating      4 bands with npw=      15 for ikpt=   4 by node    1
P newkpt: treating      4 bands with npw=      15 for ikpt=   5 by node    2
P newkpt: treating      4 bands with npw=      15 for ikpt=   6 by node    2
P newkpt: treating      4 bands with npw=      15 for ikpt=   7 by node    3
P newkpt: treating      4 bands with npw=      15 for ikpt=   8 by node    3
P newkpt: treating      4 bands with npw=      15 for ikpt=   9 by node    4
P newkpt: treating      4 bands with npw=      15 for ikpt=  10 by node    4
P newkpt: treating      4 bands with npw=      15 for ikpt=  11 by node    5
P newkpt: treating      4 bands with npw=      15 for ikpt=  12 by node    5
P newkpt: treating      4 bands with npw=      15 for ikpt=  13 by node    6
P newkpt: treating      4 bands with npw=      15 for ikpt=  14 by node    6
P newkpt: treating      4 bands with npw=      15 for ikpt=  15 by node    7
P newkpt: treating      4 bands with npw=      15 for ikpt=  16 by node    7


 ==>  initialize data related to q vector <== 

 The list of irreducible perturbations for this q vector is:
    1)    idir= 1    ipert=   1
    2)    idir= 1    ipert=   2
    3)    idir= 1    ipert=   4

================================================================================

 The perturbation idir=   2  ipert=   1 is
 symmetric of a previously calculated perturbation.
 So, its SCF calculation is not needed.


 The perturbation idir=   3  ipert=   1 is
 symmetric of a previously calculated perturbation.
 So, its SCF calculation is not needed.


 The perturbation idir=   2  ipert=   2 is
 symmetric of a previously calculated perturbation.
 So, its SCF calculation is not needed.


 The perturbation idir=   3  ipert=   2 is
 symmetric of a previously calculated perturbation.
 So, its SCF calculation is not needed.


--------------------------------------------------------------------------------
 Perturbation wavevector (in red.coord.)   0.000000  0.000000  0.000000
 Perturbation : displacement of atom   1   along direction   1
 symkpt : not enough symmetry to change the number of k points.

--------------------------------------------------------------------------------

-inwffil : will read wavefunctions from disk file t54_MPI10o_DS2_WFK
P newkpt: treating      4 bands with npw=      15 for ikpt=   1 by node    0
P newkpt: treating      4 bands with npw=      15 for ikpt=   2 by node    0
P newkpt: treating      4 bands with npw=      15 for ikpt=   3 by node    1
P newkpt: treating      4 bands with npw=      15 for ikpt=   4 by node    1
P newkpt: treating      4 bands with npw=      15 for ikpt=   5 by node    2
P newkpt: treating      4 bands with npw=      15 for ikpt=   6 by node    2
P newkpt: treating      4 bands with npw=      15 for ikpt=   7 by node    3
P newkpt: treating      4 bands with npw=      15 for ikpt=   8 by node    3
P newkpt: treating      4 bands with npw=      15 for ikpt=   9 by node    4
P newkpt: treating      4 bands with npw=      15 for ikpt=  10 by node    4
P newkpt: treating      4 bands with npw=      15 for ikpt=  11 by node    5
P newkpt: treating      4 bands with npw=      15 for ikpt=  12 by node    5
P newkpt: treating      4 bands with npw=      15 for ikpt=  13 by node    6
P newkpt: treating      4 bands with npw=      15 for ikpt=  14 by node    6
P newkpt: treating      4 bands with npw=      15 for ikpt=  15 by node    7
P newkpt: treating      4 bands with npw=      15 for ikpt=  16 by node    7

--------------------------------------------------------------------------------

-inwffil : will read wavefunctions from disk file t54_MPI10o_DS2_WFK
P newkpt: treating      4 bands with npw=      15 for ikpt=   1 by node    0
P newkpt: treating      4 bands with npw=      15 for ikpt=   2 by node    0
P newkpt: treating      4 bands with npw=      15 for ikpt=   3 by node    1
P newkpt: treating      4 bands with npw=      15 for ikpt=   4 by node    1
P newkpt: treating      4 bands with npw=      15 for ikpt=   5 by node    2
P newkpt: treating      4 bands with npw=      15 for ikpt=   6 by node    2
P newkpt: treating      4 bands with npw=      15 for ikpt=   7 by node    3
[...]
-          fftalg         312
           getddk1          0
           getddk2          0
           getddk3          0
           getddk4          3
           getddk5          0
           getden1          0
           getden2          1
           getden3          0
           getden4          0
           getden5          1
           getwfk1          0
           getwfk2          1
           getwfk3          2
           getwfk4          2
           getwfk5          2
          get1den1          0
          get1den2          0
          get1den3          0
          get1den4          0
          get1den5          4
           get1wf1          0
           get1wf2          0
           get1wf3          0
           get1wf4          0
           get1wf5          4
             iscf1          3
             iscf2         -2
             iscf3         -3
             iscf4          3
             iscf5          3
              ixc           3
           jdtset        1    2    3    4    5
              kpt1    -2.50000000E-01  5.00000000E-01  0.00000000E+00
                      -2.50000000E-01  0.00000000E+00  0.00000000E+00
              kpt2    -2.50000000E-01  5.00000000E-01  0.00000000E+00
                       5.00000000E-01 -2.50000000E-01  0.00000000E+00
                      -2.50000000E-01 -2.50000000E-01  2.50000000E-01
                      -2.50000000E-01  0.00000000E+00  0.00000000E+00
                      -2.50000000E-01  2.50000000E-01  2.50000000E-01
                       5.00000000E-01  5.00000000E-01  2.50000000E-01
                      -2.50000000E-01  5.00000000E-01  5.00000000E-01
                       0.00000000E+00 -2.50000000E-01  0.00000000E+00
                       2.50000000E-01 -2.50000000E-01  2.50000000E-01
                       5.00000000E-01 -2.50000000E-01  5.00000000E-01
                      -2.50000000E-01 -2.50000000E-01 -2.50000000E-01
                       5.00000000E-01  0.00000000E+00  2.50000000E-01
                      -2.50000000E-01  0.00000000E+00  5.00000000E-01
                       0.00000000E+00  5.00000000E-01  2.50000000E-01
                       0.00000000E+00 -2.50000000E-01  5.00000000E-01
                       0.00000000E+00  0.00000000E+00  2.50000000E-01
              kpt3    -2.50000000E-01  5.00000000E-01  0.00000000E+00
                       5.00000000E-01 -2.50000000E-01  0.00000000E+00
                      -2.50000000E-01 -2.50000000E-01  2.50000000E-01
                      -2.50000000E-01  0.00000000E+00  0.00000000E+00
                      -2.50000000E-01  2.50000000E-01  2.50000000E-01
                       5.00000000E-01  5.00000000E-01  2.50000000E-01
                      -2.50000000E-01  5.00000000E-01  5.00000000E-01
                       0.00000000E+00 -2.50000000E-01  0.00000000E+00
                       2.50000000E-01 -2.50000000E-01  2.50000000E-01
                       5.00000000E-01 -2.50000000E-01  5.00000000E-01
                      -2.50000000E-01 -2.50000000E-01 -2.50000000E-01
                       5.00000000E-01  0.00000000E+00  2.50000000E-01
                      -2.50000000E-01  0.00000000E+00  5.00000000E-01
                       0.00000000E+00  5.00000000E-01  2.50000000E-01
                       0.00000000E+00 -2.50000000E-01  5.00000000E-01
                       0.00000000E+00  0.00000000E+00  2.50000000E-01
              kpt4    -2.50000000E-01  5.00000000E-01  0.00000000E+00
                       5.00000000E-01 -2.50000000E-01  0.00000000E+00
                      -2.50000000E-01 -2.50000000E-01  2.50000000E-01
                      -2.50000000E-01  0.00000000E+00  0.00000000E+00
                      -2.50000000E-01  2.50000000E-01  2.50000000E-01
                       5.00000000E-01  5.00000000E-01  2.50000000E-01
                      -2.50000000E-01  5.00000000E-01  5.00000000E-01
                       0.00000000E+00 -2.50000000E-01  0.00000000E+00
                       2.50000000E-01 -2.50000000E-01  2.50000000E-01
                       5.00000000E-01 -2.50000000E-01  5.00000000E-01
                      -2.50000000E-01 -2.50000000E-01 -2.50000000E-01
                       5.00000000E-01  0.00000000E+00  2.50000000E-01
                      -2.50000000E-01  0.00000000E+00  5.00000000E-01
                       0.00000000E+00  5.00000000E-01  2.50000000E-01
                       0.00000000E+00 -2.50000000E-01  5.00000000E-01
                       0.00000000E+00  0.00000000E+00  2.50000000E-01
              kpt5    -2.50000000E-01  5.00000000E-01  0.00000000E+00
                       5.00000000E-01 -2.50000000E-01  0.00000000E+00
                      -2.50000000E-01 -2.50000000E-01  2.50000000E-01
                      -2.50000000E-01  0.00000000E+00  0.00000000E+00
                      -2.50000000E-01  2.50000000E-01  2.50000000E-01
                       5.00000000E-01  5.00000000E-01  2.50000000E-01
                      -2.50000000E-01  5.00000000E-01  5.00000000E-01
                       0.00000000E+00 -2.50000000E-01  0.00000000E+00
                       2.50000000E-01 -2.50000000E-01  2.50000000E-01
                       5.00000000E-01 -2.50000000E-01  5.00000000E-01
                      -2.50000000E-01 -2.50000000E-01 -2.50000000E-01
                       5.00000000E-01  0.00000000E+00  2.50000000E-01
                      -2.50000000E-01  0.00000000E+00  5.00000000E-01
                       0.00000000E+00  5.00000000E-01  2.50000000E-01
                       0.00000000E+00 -2.50000000E-01  5.00000000E-01
                       0.00000000E+00  0.00000000E+00  2.50000000E-01
           kptopt1          1
           kptopt2          2
           kptopt3          2
           kptopt4          2
           kptopt5          2
         kptrlatt        2   -2    2     -2    2    2     -2   -2    2
          kptrlen      2.12000000E+01
P           mkmem1          1
P           mkmem2          2
P           mkmem3          2
P           mkmem4          2
P           mkmem5          2
P          mkqmem1          1
P          mkqmem2          2
P          mkqmem3          2
P          mkqmem4          2
P          mkqmem5          2
P          mk1mem1          1
P          mk1mem2          2
P          mk1mem3          2
P          mk1mem4          2
P          mk1mem5          2
            natom           2
            nband1          4
            nband2          4
            nband3          4
            nband4          4
            nband5          4
           ndtset           5
            ngfft           8       8       8
             nkpt1          2
             nkpt2         16
             nkpt3         16
             nkpt4         16
             nkpt5         16
             nqpt1          0
             nqpt2          0
             nqpt3          1
             nqpt4          1
             nqpt5          0
            nstep          40
             nsym          24
           ntypat           2
              occ1     2.000000  2.000000  2.000000  2.000000
              occ3     2.000000  2.000000  2.000000  2.000000
              occ4     2.000000  2.000000  2.000000  2.000000
              occ5     2.000000  2.000000  2.000000  2.000000
        optdriver1          0
        optdriver2          0
        optdriver3          1
        optdriver4          1
        optdriver5          5
        optforces           1
          prepanl1          0
          prepanl2          0
          prepanl3          0
          prepanl4          1
          prepanl5          0
          rfatpol1          1       1
          rfatpol2          1       1
          rfatpol3          1       1
          rfatpol4          1       2
          rfatpol5          1       1
            rfdir1          0       0       0
            rfdir2          0       0       0
            rfdir3          1       1       1
            rfdir4          1       1       1
            rfdir5          0       0       0
           rfelfd1          0
           rfelfd2          0
           rfelfd3          2
           rfelfd4          3
           rfelfd5          0
           rfphon1          0
           rfphon2          0
           rfphon3          0
           rfphon4          1
           rfphon5          0
         rf1atpol1          1       1
         rf1atpol2          1       1
         rf1atpol3          1       1
         rf1atpol4          1       1
         rf1atpol5          1       2
           rf1dir1          0       0       0
           rf1dir2          0       0       0
           rf1dir3          0       0       0
           rf1dir4          0       0       0
           rf1dir5          1       1       1
          rf1elfd1          0
          rf1elfd2          0
          rf1elfd3          0
          rf1elfd4          0
          rf1elfd5          1
          rf1phon1          0
          rf1phon2          0
          rf1phon3          0
          rf1phon4          0
          rf1phon5          1
           rf2dir1          0       0       0
           rf2dir2          0       0       0
           rf2dir3          0       0       0
           rf2dir4          0       0       0
           rf2dir5          1       1       1
          rf2elfd1          0
          rf2elfd2          0
          rf2elfd3          0
          rf2elfd4          0
          rf2elfd5          1
           rf3dir1          0       0       0
           rf3dir2          0       0       0
           rf3dir3          0       0       0
           rf3dir4          0       0       0
           rf3dir5          1       1       1
          rf3elfd1          0
          rf3elfd2          0
          rf3elfd3          0
          rf3elfd4          0
          rf3elfd5          1
            rprim      0.0000000000E+00  5.0000000000E-01  5.0000000000E-01
                       5.0000000000E-01  0.0000000000E+00  5.0000000000E-01
                       5.0000000000E-01  5.0000000000E-01  0.0000000000E+00
           shiftk      5.00000000E-01  5.00000000E-01  5.00000000E-01
          spgroup         216
           strten1     1.1484320795E-03  1.1484320795E-03  1.1484320795E-03
                       0.0000000000E+00  0.0000000000E+00  0.0000000000E+00
           strten4     0.0000000000E+00  0.0000000000E+00  0.0000000000E+00
                       0.0000000000E+00  0.0000000000E+00  0.0000000000E+00
           strten5     0.0000000000E+00  0.0000000000E+00  0.0000000000E+00
                       0.0000000000E+00  0.0000000000E+00  0.0000000000E+00
           symrel      1  0  0   0  1  0   0  0  1       0  1 -1   1  0 -1   0  0 -1
                       0 -1  1   0 -1  0   1 -1  0      -1  0  0  -1  0  1  -1  1  0
                       0  1  0   0  0  1   1  0  0       1  0 -1   0  0 -1   0  1 -1
                       0 -1  0   1 -1  0   0 -1  1      -1  0  1  -1  1  0  -1  0  0
                       0  0  1   1  0  0   0  1  0       0  0 -1   0  1 -1   1  0 -1
                       1 -1  0   0 -1  1   0 -1  0      -1  1  0  -1  0  0  -1  0  1
                       1  0 -1   0  1 -1   0  0 -1       0  1  0   1  0  0   0  0  1
                      -1  0  1  -1  0  0  -1  1  0       0 -1  0   0 -1  1   1 -1  0
                      -1  1  0  -1  0  1  -1  0  0       1 -1  0   0 -1  0   0 -1  1
                       0  0 -1   1  0 -1   0  1 -1       0  0  1   0  1  0   1  0  0
                       0 -1  1   1 -1  0   0 -1  0      -1  0  0  -1  1  0  -1  0  1
                       1  0  0   0  0  1   0  1  0       0  1 -1   0  0 -1   1  0 -1
           timopt           2
           tolwfr1     1.00000000E-22
           tolwfr2     1.00000000E-22
           tolwfr3     1.00000000E-22
           tolwfr4     1.00000000E-16
           tolwfr5     0.00000000E+00
            typat      1  2
              wtk1       0.75000    0.25000
              wtk2       0.06250    0.06250    0.06250    0.06250    0.06250    0.06250
                         0.06250    0.06250    0.06250    0.06250    0.06250    0.06250
                         0.06250    0.06250    0.06250    0.06250
              wtk3       0.06250    0.06250    0.06250    0.06250    0.06250    0.06250
                         0.06250    0.06250    0.06250    0.06250    0.06250    0.06250
                         0.06250    0.06250    0.06250    0.06250
              wtk4       0.06250    0.06250    0.06250    0.06250    0.06250    0.06250
                         0.06250    0.06250    0.06250    0.06250    0.06250    0.06250
                         0.06250    0.06250    0.06250    0.06250
              wtk5       0.06250    0.06250    0.06250    0.06250    0.06250    0.06250
                         0.06250    0.06250    0.06250    0.06250    0.06250    0.06250
                         0.06250    0.06250    0.06250    0.06250
           xangst      0.0000000000E+00  0.0000000000E+00  0.0000000000E+00
                       1.4023196028E+00  1.4023196028E+00  1.4023196028E+00
            xcart      0.0000000000E+00  0.0000000000E+00  0.0000000000E+00
                       2.6500000000E+00  2.6500000000E+00  2.6500000000E+00
             xred      0.0000000000E+00  0.0000000000E+00  0.0000000000E+00
                       2.5000000000E-01  2.5000000000E-01  2.5000000000E-01
            znucl       31.00000   33.00000

================================================================================

- Total cpu        time (s,m,h):         29.0        0.48      0.008
- Total wall clock time (s,m,h):         29.1        0.48      0.008
-
- For major independent code sections, cpu and wall times (sec),
-  as well as % of the time and number of calls for node 0-
-<BEGIN_TIMER mpi_nprocs = 10, omp_nthreads = 1, mpi_rank = 0>
- cpu_time =            2.9, wall_time =            2.9
-
- routine                        cpu     %       wall     %      number of calls  Gflops 
-                                                                  (-1=no count)
- invars2                        0.988   3.4      0.989   3.4              5      -1.00    
- pspini                         0.299   1.0      0.300   1.0              5      -1.00    
- abinit(2)                      0.236   0.8      0.237   0.8              1      -1.00    
- fourwf%(pot)                   0.149   0.5      0.160   0.6           2758      -1.00    
- others (101)                   0.523   1.8      0.512   1.8             -1      -1.00    
-<END_TIMER>
-
- subtotal                       2.195   7.6      2.198   7.6

- For major independent code sections, cpu and wall times (sec),
- as well as % of the total time and number of calls 

-<BEGIN_TIMER mpi_nprocs = 10, omp_nthreads = 1, mpi_rank = world>
- cpu_time =          29.0, wall_time =          29.1
-
- routine                         cpu     %       wall     %      number of calls Gflops 
-                                                                  (-1=no count)
- invars2                       10.501  36.2     10.508  36.2             50      -1.00    
- pspini                         3.533  12.2      3.537  12.2             50      -1.00    
- abinit(2)                      2.556   8.8      2.560   8.8             10      -1.00    
- fourwf%(pot)                   1.568   5.4      1.560   5.4          20569      -1.00    
- vtorho3:MPI                    1.328   4.6      1.265   4.4            690      -1.00    
- inwffil(excl. calls)           0.473   1.6      0.473   1.6            390      -1.00    
- newkpt(excl. rwwf   )          0.433   1.5      0.422   1.5            -10      -1.00    
- vtorho(MPI)                    0.367   1.3      0.368   1.3            160      -1.00    
- fourwf%(G->r)                  0.316   1.1      0.326   1.1           7488      -1.00    
- nonlop(apply)                  0.291   1.0      0.319   1.1          17497      -1.00    
- resp3dte                       0.281   1.0      0.288   1.0            150      -1.00    
- cgwf3-O(npw)                   0.173   0.6      0.187   0.6            -10      -1.00    
- others (93)                    1.194   4.1      1.164   4.0             -1      -1.00    
-<END_TIMER>

- subtotal                      23.013  79.3     22.975  79.1

================================================================================

 Suggested references for the acknowledgment of ABINIT usage.

 The users of ABINIT have little formal obligations with respect to the ABINIT group
 (those specified in the GNU General Public License, http://www.gnu.org/copyleft/gpl.txt).
 However, it is common practice in the scientific literature,
 to acknowledge the efforts of people that have made the research possible.
 In this spirit, please find below suggested citations of work written by ABINIT developers,
 corresponding to implementations inside of ABINIT that you have used in the present run.
 Note also that it will be of great value to readers of publications presenting these results,
 to read papers enabling them to understand the theoretical formalism and details
 of the ABINIT implementation.
 For information on why they are suggested, see also http://www.abinit.org/about/?text=acknowledgments.

 [1] Nonlinear optical susceptibilities, Raman efficiencies, and electrooptic tensors
 from first principles density functional theory.
 M. Veithen, X. Gonze, and Ph. Ghosez, Phys. Rev. B 71, 125107 (2005).
 Comment : to be cited for non-linear response calculations, with optdriver=5.

 [2] First-principles responses of solids to atomic displacements and homogeneous electric fields:,
 implementation of a conjugate-gradient algorithm. X. Gonze, Phys. Rev. B55, 10337 (1997).
 Comment : Non-vanishing rfphon and/or rfelfd, in the norm-conserving case.

 [3] Dynamical matrices, Born effective charges, dielectric permittivity tensors, and ,
 interatomic force constants from density-functional perturbation theory,
 X. Gonze and C. Lee, Phys. Rev. B55, 10355 (1997).
 Comment : Non-vanishing rfphon and/or rfelfd, in the norm-conserving case.

 [4] ABINIT : First-principles approach of materials and nanosystem properties.
 X. Gonze, B. Amadon, P.-M. Anglade, J.-M. Beuken, F. Bottin, P. Boulanger, F. Bruneval,
 D. Caliste, R. Caracas, M. Cote, T. Deutsch, L. Genovese, Ph. Ghosez, M. Giantomassi
 S. Goedecker, D.R. Hamann, P. Hermet, F. Jollet, G. Jomard, S. Leroux, M. Mancini, S. Mazevet,
 M.J.T. Oliveira, G. Onida, Y. Pouillon, T. Rangel, G.-M. Rignanese, D. Sangalli, R. Shaltaf,
 M. Torrent, M.J. Verstraete, G. Zerah, J.W. Zwanziger
 Computer Phys. Comm. 180, 2582-2615 (2009).
 Comment : the third generic paper describing the ABINIT project.
 Note that a version of this paper, that is not formatted for Computer Phys. Comm. 
 is available at http://www.abinit.org/about/ABINIT_CPC_v10.pdf .
 The licence allows the authors to put it on the Web.

 [5] A brief introduction to the ABINIT software package.
 X. Gonze, G.-M. Rignanese, M. Verstraete, J.-M. Beuken, Y. Pouillon, R. Caracas, F. Jollet,
 M. Torrent, G. Zerah, M. Mikami, Ph. Ghosez, M. Veithen, J.-Y. Raty, V. Olevano, F. Bruneval,
 L. Reining, R. Godby, G. Onida, D.R. Hamann, and D.C. Allan.
 Z. Kristallogr. 220, 558-562 (2005).
 Comment : the second generic paper describing the ABINIT project. Note that this paper
 should be cited especially if you are using the GW part of ABINIT, as several authors
 of this part are not in the list of authors of the first or third paper.
 The .pdf of the latter paper is available at http://www.abinit.org/about/zfk_0505-06_558-562.pdf.
 Note that it should not redistributed (Copyright by Oldenburg Wissenshaftverlag,
 the licence allows the authors to put it on the Web).
-
- Proc.   0 individual time (sec): cpu=          2.9  wall=          2.9

================================================================================

 Calculation completed.
.Delivered    1 WARNINGs and  18 COMMENTs to log file.
+Overall time at end (sec) : cpu=         29.4  wall=         29.5
