
.Version 7.9.3 of ABINIT 
.(MPI version, prepared for a x86_64_linux_gnu4.7 computer) 

.Copyright (C) 1998-2014 ABINIT group . 
 ABINIT comes with ABSOLUTELY NO WARRANTY.
 It is free software, and you are welcome to redistribute it
 under certain conditions (GNU General Public License,
 see ~abinit/COPYING or http://www.gnu.org/copyleft/gpl.txt).

 ABINIT is a project of the Universite Catholique de Louvain,
 Corning Inc. and other collaborators, see ~abinit/doc/developers/contributors.txt .
 Please read ~abinit/doc/users/acknowledgments.html for suggested
 acknowledgments of the ABINIT effort.
 For more information, see http://www.abinit.org .

.Starting date : Sat 30 Aug 2014.
- ( at 10h11 )
  
- input  file    -> t57.in
- output file    -> t57_MPI4.out
- root for input  files -> t57_MPI4i
- root for output files -> t57_MPI4o


 DATASET    1 : space group F-4 3 m (#216); Bravais cF (face-center cubic)
================================================================================
 Values of the parameters that define the memory need for DATASET  1.
   intxc =         0  ionmov =         0    iscf =         3 xclevel =         1
  lmnmax =         2   lnmax =         2   mband =         4  mffmem =         1
P  mgfft =         8   mkmem =         1 mpssoang=         3     mpw =        15
  mqgrid =      3001   natom =         2    nfft =       512    nkpt =         2
  nloalg =         4  nspden =         1 nspinor =         1  nsppol =         1
    nsym =        24  n1xccc =         0  ntypat =         2  occopt =         1
================================================================================
P This job should need less than                       0.708 Mbytes of memory.
  Rough estimation (10% accuracy) of disk space for files :
_ WF disk file :      0.004 Mbytes ; DEN or POT disk file :      0.006 Mbytes.
================================================================================


 DATASET    2 : space group F-4 3 m (#216); Bravais cF (face-center cubic)
================================================================================
 Values of the parameters that define the memory need for DATASET  2.
   intxc =         0  ionmov =         0    iscf =        -2 xclevel =         1
  lmnmax =         2   lnmax =         2   mband =         4  mffmem =         1
P  mgfft =         8   mkmem =         4 mpssoang=         3     mpw =        15
  mqgrid =      3001   natom =         2    nfft =       512    nkpt =        16
  nloalg =         4  nspden =         1 nspinor =         1  nsppol =         1
    nsym =        24  n1xccc =         0  ntypat =         2  occopt =         1
================================================================================
P This job should need less than                       0.704 Mbytes of memory.
  Rough estimation (10% accuracy) of disk space for files :
_ WF disk file :      0.017 Mbytes ; DEN or POT disk file :      0.006 Mbytes.
================================================================================


 DATASET    3 : space group F-4 3 m (#216); Bravais cF (face-center cubic)
================================================================================
 Values of the parameters that define the memory need for DATASET  3 (RF).
   intxc =         0    iscf =        -3 xclevel =         1  lmnmax =         2
   lnmax =         2   mband =         4  mffmem =         1   mgfft =         8
P  mkmem =         4  mkqmem =         4  mk1mem =         4 mpssoang=         3
     mpw =        15  mqgrid =      3001   natom =         2    nfft =       512
    nkpt =        16  nloalg =         4  nspden =         1 nspinor =         1
  nsppol =         1    nsym =        24  n1xccc =         0  ntypat =         2
  occopt =         1
================================================================================
P This job should need less than                       0.719 Mbytes of memory.
  Rough estimation (10% accuracy) of disk space for files :
_ WF disk file :      0.017 Mbytes ; DEN or POT disk file :      0.006 Mbytes.
================================================================================


 DATASET    4 : space group F-4 3 m (#216); Bravais cF (face-center cubic)
================================================================================
 Values of the parameters that define the memory need for DATASET  4 (RF).
   intxc =         0    iscf =         3 xclevel =         1  lmnmax =         2
   lnmax =         2   mband =         4  mffmem =         1   mgfft =         8
P  mkmem =         4  mkqmem =         4  mk1mem =         4 mpssoang=         3
     mpw =        15  mqgrid =      3001   natom =         2    nfft =       512
    nkpt =        16  nloalg =         4  nspden =         1 nspinor =         1
  nsppol =         1    nsym =        24  n1xccc =         0  ntypat =         2
  occopt =         1
================================================================================
P This job should need less than                       0.734 Mbytes of memory.
  Rough estimation (10% accuracy) of disk space for files :
_ WF disk file :      0.017 Mbytes ; DEN or POT disk file :      0.006 Mbytes.
================================================================================

--------------------------------------------------------------------------------
------------- Echo of variables that govern the present computation ------------
--------------------------------------------------------------------------------
-
- outvars: echo of selected default values                                      
-   accesswff0 =  0 , fftalg0 =112 , wfoptalg0 =  0
-
- outvars: echo of global parameters not present in the input file              
-  max_nthreads =    0
-
 -outvars: echo values of preprocessed input variables --------
            acell      1.0600000000E+01  1.0600000000E+01  1.0600000000E+01 Bohr
              amu      6.97200000E+01  7.49216000E+01
           diemac1     1.00000000E+06
           diemac2     1.00000000E+06
           diemac3     1.00000000E+06
           diemac4     1.00000000E+00
           diemix1     1.00000000E+00
           diemix2     1.00000000E+00
           diemix3     1.00000000E+00
           diemix4     7.00000000E-01
             ecut      1.00000000E+00 Hartree
-          fftalg         112
           getddk1          0
           getddk2          0
           getddk3          0
           getddk4          3
           getden1          0
           getden2          1
           getden3          0
           getden4          0
           getwfk1          0
           getwfk2          1
           getwfk3          2
           getwfk4          2
             iscf1          3
             iscf2         -2
             iscf3         -3
             iscf4          3
              ixc           3
           jdtset        1    2    3    4
              kpt1    -2.50000000E-01  5.00000000E-01  0.00000000E+00
                      -2.50000000E-01  0.00000000E+00  0.00000000E+00
              kpt2    -2.50000000E-01  5.00000000E-01  0.00000000E+00
                       5.00000000E-01 -2.50000000E-01  0.00000000E+00
                      -2.50000000E-01 -2.50000000E-01  2.50000000E-01
                      -2.50000000E-01  0.00000000E+00  0.00000000E+00
                      -2.50000000E-01  2.50000000E-01  2.50000000E-01
                       5.00000000E-01  5.00000000E-01  2.50000000E-01
                      -2.50000000E-01  5.00000000E-01  5.00000000E-01
                       0.00000000E+00 -2.50000000E-01  0.00000000E+00
                       2.50000000E-01 -2.50000000E-01  2.50000000E-01
                       5.00000000E-01 -2.50000000E-01  5.00000000E-01
                      -2.50000000E-01 -2.50000000E-01 -2.50000000E-01
                       5.00000000E-01  0.00000000E+00  2.50000000E-01
                      -2.50000000E-01  0.00000000E+00  5.00000000E-01
                       0.00000000E+00  5.00000000E-01  2.50000000E-01
                       0.00000000E+00 -2.50000000E-01  5.00000000E-01
                       0.00000000E+00  0.00000000E+00  2.50000000E-01
              kpt3    -2.50000000E-01  5.00000000E-01  0.00000000E+00
                       5.00000000E-01 -2.50000000E-01  0.00000000E+00
                      -2.50000000E-01 -2.50000000E-01  2.50000000E-01
                      -2.50000000E-01  0.00000000E+00  0.00000000E+00
                      -2.50000000E-01  2.50000000E-01  2.50000000E-01
                       5.00000000E-01  5.00000000E-01  2.50000000E-01
                      -2.50000000E-01  5.00000000E-01  5.00000000E-01
                       0.00000000E+00 -2.50000000E-01  0.00000000E+00
                       2.50000000E-01 -2.50000000E-01  2.50000000E-01
                       5.00000000E-01 -2.50000000E-01  5.00000000E-01
                      -2.50000000E-01 -2.50000000E-01 -2.50000000E-01
                       5.00000000E-01  0.00000000E+00  2.50000000E-01
                      -2.50000000E-01  0.00000000E+00  5.00000000E-01
                       0.00000000E+00  5.00000000E-01  2.50000000E-01
                       0.00000000E+00 -2.50000000E-01  5.00000000E-01
                       0.00000000E+00  0.00000000E+00  2.50000000E-01
              kpt4    -2.50000000E-01  5.00000000E-01  0.00000000E+00
                       5.00000000E-01 -2.50000000E-01  0.00000000E+00
                      -2.50000000E-01 -2.50000000E-01  2.50000000E-01
                      -2.50000000E-01  0.00000000E+00  0.00000000E+00
                      -2.50000000E-01  2.50000000E-01  2.50000000E-01
                       5.00000000E-01  5.00000000E-01  2.50000000E-01
                      -2.50000000E-01  5.00000000E-01  5.00000000E-01
                       0.00000000E+00 -2.50000000E-01  0.00000000E+00
                       2.50000000E-01 -2.50000000E-01  2.50000000E-01
                       5.00000000E-01 -2.50000000E-01  5.00000000E-01
                      -2.50000000E-01 -2.50000000E-01 -2.50000000E-01
                       5.00000000E-01  0.00000000E+00  2.50000000E-01
                      -2.50000000E-01  0.00000000E+00  5.00000000E-01
                       0.00000000E+00  5.00000000E-01  2.50000000E-01
                       0.00000000E+00 -2.50000000E-01  5.00000000E-01
                       0.00000000E+00  0.00000000E+00  2.50000000E-01
           kptopt1          1
           kptopt2          2
           kptopt3          2
           kptopt4          2
         kptrlatt        2   -2    2     -2    2    2     -2   -2    2
          kptrlen      2.12000000E+01
P           mkmem1          1
P           mkmem2          4
P           mkmem3          4
P           mkmem4          4
P          mkqmem1          1
P          mkqmem2          4
P          mkqmem3          4
P          mkqmem4          4
P          mk1mem1          1
P          mk1mem2          4
P          mk1mem3          4
P          mk1mem4          4
            natom           2
            nband1          4
            nband2          4
            nband3          4
            nband4          4
           ndtset           4
            ngfft           8       8       8
             nkpt1          2
             nkpt2         16
             nkpt3         16
             nkpt4         16
             nqpt1          0
             nqpt2          0
             nqpt3          1
             nqpt4          1
            nstep          40
             nsym          24
           ntypat           2
              occ1     2.000000  2.000000  2.000000  2.000000
              occ3     2.000000  2.000000  2.000000  2.000000
              occ4     2.000000  2.000000  2.000000  2.000000
        optdriver1          0
        optdriver2          0
        optdriver3          1
        optdriver4          1
        optforces           1
          rfatpol1          1       1
          rfatpol2          1       1
          rfatpol3          1       1
          rfatpol4          1       2
            rfdir1          0       0       0
            rfdir2          0       0       0
            rfdir3          1       0       0
            rfdir4          1       1       1
           rfelfd1          0
           rfelfd2          0
           rfelfd3          2
           rfelfd4          3
           rfphon1          0
           rfphon2          0
           rfphon3          0
           rfphon4          1
            rprim      0.0000000000E+00  5.0000000000E-01  5.0000000000E-01
                       5.0000000000E-01  0.0000000000E+00  5.0000000000E-01
                       5.0000000000E-01  5.0000000000E-01  0.0000000000E+00
           shiftk      5.00000000E-01  5.00000000E-01  5.00000000E-01
          spgroup         216
           symrel      1  0  0   0  1  0   0  0  1       0  1 -1   1  0 -1   0  0 -1
                       0 -1  1   0 -1  0   1 -1  0      -1  0  0  -1  0  1  -1  1  0
                       0  1  0   0  0  1   1  0  0       1  0 -1   0  0 -1   0  1 -1
                       0 -1  0   1 -1  0   0 -1  1      -1  0  1  -1  1  0  -1  0  0
                       0  0  1   1  0  0   0  1  0       0  0 -1   0  1 -1   1  0 -1
                       1 -1  0   0 -1  1   0 -1  0      -1  1  0  -1  0  0  -1  0  1
                       1  0 -1   0  1 -1   0  0 -1       0  1  0   1  0  0   0  0  1
                      -1  0  1  -1  0  0  -1  1  0       0 -1  0   0 -1  1   1 -1  0
                      -1  1  0  -1  0  1  -1  0  0       1 -1  0   0 -1  0   0 -1  1
                       0  0 -1   1  0 -1   0  1 -1       0  0  1   0  1  0   1  0  0
                       0 -1  1   1 -1  0   0 -1  0      -1  0  0  -1  1  0  -1  0  1
                       1  0  0   0  0  1   0  1  0       0  1 -1   0  0 -1   1  0 -1
           timopt           2
           tolwfr1     1.00000000E-22
           tolwfr2     1.00000000E-22
           tolwfr3     1.00000000E-22
           tolwfr4     1.00000000E-16
            typat      1  2
              wtk1       0.75000    0.25000
              wtk2       0.06250    0.06250    0.06250    0.06250    0.06250    0.06250
                         0.06250    0.06250    0.06250    0.06250    0.06250    0.06250
                         0.06250    0.06250    0.06250    0.06250
              wtk3       0.06250    0.06250    0.06250    0.06250    0.06250    0.06250
                         0.06250    0.06250    0.06250    0.06250    0.06250    0.06250
                         0.06250    0.06250    0.06250    0.06250
              wtk4       0.06250    0.06250    0.06250    0.06250    0.06250    0.06250
                         0.06250    0.06250    0.06250    0.06250    0.06250    0.06250
                         0.06250    0.06250    0.06250    0.06250
           xangst      0.0000000000E+00  0.0000000000E+00  0.0000000000E+00
                       1.4023196028E+00  1.4023196028E+00  1.4023196028E+00
            xcart      0.0000000000E+00  0.0000000000E+00  0.0000000000E+00
                       2.6500000000E+00  2.6500000000E+00  2.6500000000E+00
             xred      0.0000000000E+00  0.0000000000E+00  0.0000000000E+00
                       2.5000000000E-01  2.5000000000E-01  2.5000000000E-01
            znucl       31.00000   33.00000

================================================================================

 chkinp: Checking input parameters for consistency, jdtset=   1.

 chkinp: Checking input parameters for consistency, jdtset=   2.

 chkinp: Checking input parameters for consistency, jdtset=   3.

 chkinp: Checking input parameters for consistency, jdtset=   4.

================================================================================
== DATASET  1 ==================================================================
-   nproc =    4   -> not optimal: autoparal keyword recommended in input file

 Exchange-correlation functional for the present dataset will be:
  LDA: old Teter (4/91) fit to Ceperley-Alder data - ixc=3

 Real(R)+Recip(G) space primitive vectors, cartesian coordinates (Bohr,Bohr^-1):
 R(1)=  0.0000000  5.3000000  5.3000000  G(1)= -0.0943396  0.0943396  0.0943396
 R(2)=  5.3000000  0.0000000  5.3000000  G(2)=  0.0943396 -0.0943396  0.0943396
 R(3)=  5.3000000  5.3000000  0.0000000  G(3)=  0.0943396  0.0943396 -0.0943396
 Unit cell volume ucvol=  2.9775400E+02 bohr^3
 Angles (23,13,12)=  6.00000000E+01  6.00000000E+01  6.00000000E+01 degrees

 getcut: wavevector=  0.0000  0.0000  0.0000  ngfft=   8   8   8
         ecut(hartree)=      1.000   => boxcut(ratio)=   2.37101

 getcut : COMMENT -
  Note that boxcut > 2.2 ; recall that boxcut=Gcut(box)/Gcut(sphere) = 2
  is sufficient for exact treatment of convolution.
  Such a large boxcut is a waste : you could raise ecut
  e.g. ecut=    1.405426 Hartrees makes boxcut=2


--- Pseudopotential description ------------------------------------------------
- pspini: atom type   1  psp file is /data/ABINIT/testf_gcc47/trunk_7.9.3-private/tests/Psps_for_tests/31ga.SGS_mod
- pspatm: opening atomic psp file    /data/ABINIT/testf_gcc47/trunk_7.9.3-private/tests/Psps_for_tests/31ga.SGS_mod
-   pspot from prpsa - Bachelet or Stumpf table ( !! OLD, only for tests )
- 31.00000   3.00000    900101                znucl, zion, pspdat
    5    3    2    2       267   0.00000      pspcod,pspxc,lmax,lloc,mmax,r2well
    3.225807E-04    4.879035E-02              r1 and al (Hamman grid)
    0   0.000   0.000    1   1.2712000        l,e99.0,e99.9,nproj,rcpsp
   0.00000000   0.00000000   0.00000000   0.00000000     rms, ekb1, ekb2, epsatm
    1   0.000   0.000    1   1.4316000        l,e99.0,e99.9,nproj,rcpsp
   0.00000000   0.00000000   0.00000000   0.00000000     rms, ekb1, ekb2, epsatm
    2   0.000   0.000    0   1.4889000        l,e99.0,e99.9,nproj,rcpsp
   0.00000000   0.00000000   0.00000000   0.00000000     rms, ekb1, ekb2, epsatm
    0.00000000000000    0.00000000000000    0.00000000000000   rchrg,fchrg,qchrg
 pspatm: epsatm=   19.73612150
         --- l  ekb(1:nproj) -->
             0    9.397339
             1   -0.525725
 pspatm: atomic psp has been read  and splines computed

- pspini: atom type   2  psp file is /data/ABINIT/testf_gcc47/trunk_7.9.3-private/tests/Psps_for_tests/33as.SGS_mod
- pspatm: opening atomic psp file    /data/ABINIT/testf_gcc47/trunk_7.9.3-private/tests/Psps_for_tests/33as.SGS_mod
-   pspot from prpsa - Bachelet or Stumpf table ( !! OLD, for testing purposes only )
- 33.00000   5.00000    900101                znucl, zion, pspdat
    5    3    2    2       269   0.00000      pspcod,pspxc,lmax,lloc,mmax,r2well
    3.030304E-04    4.879035E-02              r1 and al (Hamman grid)
    0   0.000   0.000    1   1.0000000        l,e99.0,e99.9,nproj,rcpsp
   0.00000000   0.00000000   0.00000000   0.00000000     rms, ekb1, ekb2, epsatm
    1   0.000   0.000    1   1.0000000        l,e99.0,e99.9,nproj,rcpsp
   0.00000000   0.00000000   0.00000000   0.00000000     rms, ekb1, ekb2, epsatm
    2   0.000   0.000    0   1.0000000        l,e99.0,e99.9,nproj,rcpsp
   0.00000000   0.00000000   0.00000000   0.00000000     rms, ekb1, ekb2, epsatm
    0.00000000000000    0.00000000000000    0.00000000000000   rchrg,fchrg,qchrg
 pspatm: epsatm=   26.05495600
         --- l  ekb(1:nproj) -->
             0    9.019459
             1   -0.908274
 pspatm: atomic psp has been read  and splines computed

   3.66328620E+02                                ecore*ucvol(ha*bohr**3)
--------------------------------------------------------------------------------

P newkpt: treating      4 bands with npw=      15 for ikpt=   1 by node    0
P newkpt: treating      4 bands with npw=      15 for ikpt=   2 by node    1

_setup2: Arith. and geom. avg. npw (full set) are      15.000      15.000

================================================================================

     iter   Etot(hartree)      deltaE(h)  residm     vres2    diffor    maxfor
 ETOT  1  -8.0021645254245    -8.002E+00 2.266E-05 2.146E+00 0.000E+00 0.000E+00
 ETOT  2  -8.0194145723653    -1.725E-02 2.094E-09 1.552E-01 0.000E+00 0.000E+00
 ETOT  3  -8.0206309429706    -1.216E-03 1.606E-05 1.781E-03 0.000E+00 0.000E+00
 ETOT  4  -8.0206396545243    -8.712E-06 1.927E-08 1.296E-04 0.000E+00 0.000E+00
 ETOT  5  -8.0206403434231    -6.889E-07 3.067E-09 9.070E-07 0.000E+00 0.000E+00
 ETOT  6  -8.0206403499336    -6.511E-09 7.174E-11 7.232E-08 2.058E-31 2.058E-31
 ETOT  7  -8.0206403503735    -4.398E-10 5.639E-12 2.734E-09 2.687E-30 2.481E-30
 ETOT  8  -8.0206403503877    -1.420E-11 2.079E-14 1.911E-10 2.481E-30 2.580E-30
 ETOT  9  -8.0206403503889    -1.235E-12 4.517E-15 1.900E-12 2.642E-30 2.605E-31
 ETOT 10  -8.0206403503889    -1.776E-15 8.429E-17 2.073E-13 2.605E-31 0.000E+00
 ETOT 11  -8.0206403503889    -1.243E-14 5.786E-18 1.065E-14 0.000E+00 0.000E+00
 ETOT 12  -8.0206403503889     0.000E+00 4.990E-20 6.561E-16 0.000E+00 0.000E+00
 ETOT 13  -8.0206403503889     1.243E-14 1.532E-20 1.552E-17 0.000E+00 0.000E+00
 ETOT 14  -8.0206403503889    -1.421E-14 3.457E-22 1.871E-18 0.000E+00 0.000E+00
 ETOT 15  -8.0206403503889     1.066E-14 9.663E-23 8.962E-20 0.000E+00 0.000E+00

 At SCF step   15   max residual=  9.66E-23 < tolwfr=  1.00E-22 =>converged.

 Cartesian components of stress tensor (hartree/bohr^3)
  sigma(1 1)=  1.14843208E-03  sigma(3 2)=  0.00000000E+00
  sigma(2 2)=  1.14843208E-03  sigma(3 1)=  0.00000000E+00
  sigma(3 3)=  1.14843208E-03  sigma(2 1)=  0.00000000E+00

================================================================================

 ----iterations are completed or convergence reached----

 Mean square residual over all n,k,spin=   3.5541E-23; max=  9.6630E-23
  -0.2500  0.5000  0.0000    1  9.66304E-23 kpt; spin; max resid(k); each band:
  1.31E-23 3.14E-23 9.66E-23 1.35E-23
  -0.2500  0.0000  0.0000    1  7.46029E-23 kpt; spin; max resid(k); each band:
  2.00E-23 2.22E-23 1.28E-23 7.46E-23
 reduced coordinates (array xred) for    2 atoms
       0.000000000000      0.000000000000      0.000000000000
       0.250000000000      0.250000000000      0.250000000000
 rms dE/dt=  0.0000E+00; max dE/dt=  0.0000E+00; dE/dt below (all hartree)
    1       0.000000000000      0.000000000000      0.000000000000
    2       0.000000000000      0.000000000000      0.000000000000

 cartesian coordinates (angstrom) at end:
    1      0.00000000000000     0.00000000000000     0.00000000000000
    2      1.40231960276350     1.40231960276350     1.40231960276350

 cartesian forces (hartree/bohr) at end:
    1     -0.00000000000000    -0.00000000000000    -0.00000000000000
    2     -0.00000000000000    -0.00000000000000    -0.00000000000000
 frms,max,avg= 0.0000000E+00 0.0000000E+00   0.000E+00  0.000E+00  0.000E+00 h/b

 cartesian forces (eV/Angstrom) at end:
    1     -0.00000000000000    -0.00000000000000    -0.00000000000000
    2     -0.00000000000000    -0.00000000000000    -0.00000000000000
 frms,max,avg= 0.0000000E+00 0.0000000E+00   0.000E+00  0.000E+00  0.000E+00 e/A
 length scales= 10.600000000000 10.600000000000 10.600000000000 bohr
              =  5.609278411054  5.609278411054  5.609278411054 angstroms
 prteigrs : about to open file t57_MPI4o_DS1_EIG
 Fermi (or HOMO) energy (hartree) =   0.01542   Average Vxc (hartree)=  -0.33197
 Eigenvalues (hartree) for nkpt=   2  k points:
 kpt#   1, nband=  4, wtk=  0.75000, kpt= -0.2500  0.5000  0.0000 (reduced coord)
  -0.32023  -0.16274  -0.06400  -0.03685
 kpt#   2, nband=  4, wtk=  0.25000, kpt= -0.2500  0.0000  0.0000 (reduced coord)
  -0.38141  -0.08005   0.01542   0.01542
 Total charge density [el/Bohr^3]
,     Maximum=    6.1441E-02  at reduced coord.    0.1250    0.1250    0.6250
,Next maximum=    6.1441E-02  at reduced coord.    0.1250    0.6250    0.1250
,     Minimum=    1.7788E-03  at reduced coord.    0.7500    0.7500    0.7500
,Next minimum=    2.2312E-03  at reduced coord.    0.5000    0.5000    0.5000
,  Integrated=    8.0000E+00

--------------------------------------------------------------------------------
 Components of total free energy (in Hartree) :

    Kinetic energy  =  2.65974436477443E+00
    Hartree energy  =  3.57196304948575E-01
    XC energy       = -2.25852868691551E+00
    Ewald energy    = -8.48789573682593E+00
    PspCore energy  =  1.23030629308481E+00
    Loc. psp. energy= -1.63273884096917E+00
    NL   psp  energy=  1.11275951513904E-01
    >>>>>>>>> Etotal= -8.02064035038890E+00

 Other information on the energy :
    Total energy(eV)= -2.18252723377437E+02 ; Band energy (Ha)=  -1.0910407616E+00
--------------------------------------------------------------------------------

 Cartesian components of stress tensor (hartree/bohr^3)
  sigma(1 1)=  1.14843208E-03  sigma(3 2)=  0.00000000E+00
  sigma(2 2)=  1.14843208E-03  sigma(3 1)=  0.00000000E+00
  sigma(3 3)=  1.14843208E-03  sigma(2 1)=  0.00000000E+00

-Cartesian components of stress tensor (GPa)         [Pressure= -3.3788E+01 GPa]
- sigma(1 1)=  3.37880326E+01  sigma(3 2)=  0.00000000E+00
- sigma(2 2)=  3.37880326E+01  sigma(3 1)=  0.00000000E+00
- sigma(3 3)=  3.37880326E+01  sigma(2 1)=  0.00000000E+00

================================================================================
== DATASET  2 ==================================================================
-   nproc =    4

 mkfilename : getwfk/=0, take file _WFK from output of DATASET   1.

 mkfilename : getden/=0, take file _DEN from output of DATASET   1.

 Exchange-correlation functional for the present dataset will be:
  LDA: old Teter (4/91) fit to Ceperley-Alder data - ixc=3

 Real(R)+Recip(G) space primitive vectors, cartesian coordinates (Bohr,Bohr^-1):
 R(1)=  0.0000000  5.3000000  5.3000000  G(1)= -0.0943396  0.0943396  0.0943396
 R(2)=  5.3000000  0.0000000  5.3000000  G(2)=  0.0943396 -0.0943396  0.0943396
 R(3)=  5.3000000  5.3000000  0.0000000  G(3)=  0.0943396  0.0943396 -0.0943396
 Unit cell volume ucvol=  2.9775400E+02 bohr^3
 Angles (23,13,12)=  6.00000000E+01  6.00000000E+01  6.00000000E+01 degrees

 getcut: wavevector=  0.0000  0.0000  0.0000  ngfft=   8   8   8
         ecut(hartree)=      1.000   => boxcut(ratio)=   2.37101

 getcut : COMMENT -
  Note that boxcut > 2.2 ; recall that boxcut=Gcut(box)/Gcut(sphere) = 2
  is sufficient for exact treatment of convolution.
  Such a large boxcut is a waste : you could raise ecut
  e.g. ecut=    1.405426 Hartrees makes boxcut=2

--------------------------------------------------------------------------------

-inwffil : will read wavefunctions from disk file t57_MPI4o_DS1_WFK
- newkpt: read input wf with ikpt,npw=   1      15, make ikpt,npw=   1      15
- newkpt: read input wf with ikpt,npw=   1      15, make ikpt,npw=   2      15
- newkpt: read input wf with ikpt,npw=   1      15, make ikpt,npw=   3      15
- newkpt: read input wf with ikpt,npw=   2      15, make ikpt,npw=   4      15


================================================================================
 prteigrs : about to open file t57_MPI4o_DS2_EIG
 Non-SCF case, kpt    1 ( -0.25000  0.50000  0.00000), residuals and eigenvalues=
  4.97E-23  3.84E-23  9.29E-23  1.69E-23
 -3.2023E-01 -1.6274E-01 -6.3996E-02 -3.6853E-02
 Non-SCF case, kpt    2 (  0.50000 -0.25000  0.00000), residuals and eigenvalues=
  6.05E-23  5.13E-23  3.39E-23  3.05E-23
 -3.2023E-01 -1.6274E-01 -6.3996E-02 -3.6853E-02
 Non-SCF case, kpt    3 ( -0.25000 -0.25000  0.25000), residuals and eigenvalues=
  5.83E-23  3.80E-23  3.44E-23  2.47E-23
 -3.2023E-01 -1.6274E-01 -6.3996E-02 -3.6853E-02
 Non-SCF case, kpt    4 ( -0.25000  0.00000  0.00000), residuals and eigenvalues=
  9.19E-23  4.00E-23  2.00E-23  6.78E-23
 -3.8141E-01 -8.0049E-02  1.5417E-02  1.5417E-02
 Non-SCF case, kpt    5 ( -0.25000  0.25000  0.25000), residuals and eigenvalues=
  6.00E-23  6.89E-23  3.73E-23  2.08E-23
 -3.2023E-01 -1.6274E-01 -6.3996E-02 -3.6853E-02
 Non-SCF case, kpt    6 (  0.50000  0.50000  0.25000), residuals and eigenvalues=
  6.68E-23  4.94E-23  4.01E-23  3.62E-23
 -3.2023E-01 -1.6274E-01 -6.3996E-02 -3.6853E-02
 Non-SCF case, kpt    7 ( -0.25000  0.50000  0.50000), residuals and eigenvalues=
  5.18E-23  5.77E-23  9.69E-23  3.04E-23
 -3.2023E-01 -1.6274E-01 -6.3996E-02 -3.6853E-02
 Non-SCF case, kpt    8 (  0.00000 -0.25000  0.00000), residuals and eigenvalues=
  9.96E-23  4.03E-23  4.45E-23  7.53E-23
 -3.8141E-01 -8.0049E-02  1.5417E-02  1.5417E-02
 Non-SCF case, kpt    9 (  0.25000 -0.25000  0.25000), residuals and eigenvalues=
  6.01E-23  5.25E-23  3.80E-23  6.69E-23
 -3.2023E-01 -1.6274E-01 -6.3996E-02 -3.6853E-02
 Non-SCF case, kpt   10 (  0.50000 -0.25000  0.50000), residuals and eigenvalues=
  5.55E-23  5.12E-23  3.05E-23  3.45E-23
 -3.2023E-01 -1.6274E-01 -6.3996E-02 -3.6853E-02
 Non-SCF case, kpt   11 ( -0.25000 -0.25000 -0.25000), residuals and eigenvalues=
  9.96E-23  4.03E-23  3.89E-23  1.35E-23
 -3.8141E-01 -8.0049E-02  1.5417E-02  1.5417E-02
 Non-SCF case, kpt   12 (  0.50000  0.00000  0.25000), residuals and eigenvalues=
  6.71E-23  6.29E-23  4.21E-23  4.36E-23
 -3.2023E-01 -1.6274E-01 -6.3996E-02 -3.6853E-02
 Non-SCF case, kpt   13 ( -0.25000  0.00000  0.50000), residuals and eigenvalues=
  5.04E-23  4.02E-23  9.56E-23  4.16E-23
 -3.2023E-01 -1.6274E-01 -6.3996E-02 -3.6853E-02
 Non-SCF case, kpt   14 (  0.00000  0.50000  0.25000), residuals and eigenvalues=
  6.66E-23  6.11E-23  3.73E-23  2.56E-23
 -3.2023E-01 -1.6274E-01 -6.3996E-02 -3.6853E-02
 Non-SCF case, kpt   15 (  0.00000 -0.25000  0.50000), residuals and eigenvalues=
  6.07E-23  5.14E-23  2.99E-23  3.71E-23
 -3.2023E-01 -1.6274E-01 -6.3996E-02 -3.6853E-02
 Non-SCF case, kpt   16 (  0.00000  0.00000  0.25000), residuals and eigenvalues=
  1.30E-23  5.16E-23  6.63E-23  9.52E-23
 -3.8141E-01 -8.0049E-02  1.5417E-02  1.5417E-02
================================================================================

 ----iterations are completed or convergence reached----

 Mean square residual over all n,k,spin=   5.0722E-23; max=  9.9597E-23
  -0.2500  0.5000  0.0000    1  9.28521E-23 kpt; spin; max resid(k); each band:
  4.97E-23 3.84E-23 9.29E-23 1.69E-23
   0.5000 -0.2500  0.0000    1  6.05487E-23 kpt; spin; max resid(k); each band:
  6.05E-23 5.13E-23 3.39E-23 3.05E-23
  -0.2500 -0.2500  0.2500    1  5.83289E-23 kpt; spin; max resid(k); each band:
  5.83E-23 3.80E-23 3.44E-23 2.47E-23
  -0.2500  0.0000  0.0000    1  9.18638E-23 kpt; spin; max resid(k); each band:
  9.19E-23 4.00E-23 2.00E-23 6.78E-23
  -0.2500  0.2500  0.2500    1  6.89107E-23 kpt; spin; max resid(k); each band:
  6.00E-23 6.89E-23 3.73E-23 2.08E-23
   0.5000  0.5000  0.2500    1  6.68165E-23 kpt; spin; max resid(k); each band:
  6.68E-23 4.94E-23 4.01E-23 3.62E-23
  -0.2500  0.5000  0.5000    1  9.69282E-23 kpt; spin; max resid(k); each band:
  5.18E-23 5.77E-23 9.69E-23 3.04E-23
   0.0000 -0.2500  0.0000    1  9.95960E-23 kpt; spin; max resid(k); each band:
  9.96E-23 4.03E-23 4.45E-23 7.53E-23
   0.2500 -0.2500  0.2500    1  6.68681E-23 kpt; spin; max resid(k); each band:
  6.01E-23 5.25E-23 3.80E-23 6.69E-23
   0.5000 -0.2500  0.5000    1  5.54882E-23 kpt; spin; max resid(k); each band:
  5.55E-23 5.12E-23 3.05E-23 3.45E-23
  -0.2500 -0.2500 -0.2500    1  9.95972E-23 kpt; spin; max resid(k); each band:
  9.96E-23 4.03E-23 3.89E-23 1.35E-23
   0.5000  0.0000  0.2500    1  6.71495E-23 kpt; spin; max resid(k); each band:
  6.71E-23 6.29E-23 4.21E-23 4.36E-23
  -0.2500  0.0000  0.5000    1  9.55506E-23 kpt; spin; max resid(k); each band:
  5.04E-23 4.02E-23 9.56E-23 4.16E-23
   0.0000  0.5000  0.2500    1  6.66207E-23 kpt; spin; max resid(k); each band:
  6.66E-23 6.11E-23 3.73E-23 2.56E-23
   0.0000 -0.2500  0.5000    1  6.07252E-23 kpt; spin; max resid(k); each band:
  6.07E-23 5.14E-23 2.99E-23 3.71E-23
   0.0000  0.0000  0.2500    1  9.52379E-23 kpt; spin; max resid(k); each band:
  1.30E-23 5.16E-23 6.63E-23 9.52E-23
 reduced coordinates (array xred) for    2 atoms
       0.000000000000      0.000000000000      0.000000000000
       0.250000000000      0.250000000000      0.250000000000

 cartesian coordinates (angstrom) at end:
    1      0.00000000000000     0.00000000000000     0.00000000000000
    2      1.40231960276350     1.40231960276350     1.40231960276350
 length scales= 10.600000000000 10.600000000000 10.600000000000 bohr
              =  5.609278411054  5.609278411054  5.609278411054 angstroms
 prteigrs : about to open file t57_MPI4o_DS2_EIG
 Eigenvalues (hartree) for nkpt=  16  k points:
 kpt#   1, nband=  4, wtk=  0.06250, kpt= -0.2500  0.5000  0.0000 (reduced coord)
  -0.32023  -0.16274  -0.06400  -0.03685
 kpt#   2, nband=  4, wtk=  0.06250, kpt=  0.5000 -0.2500  0.0000 (reduced coord)
  -0.32023  -0.16274  -0.06400  -0.03685
 kpt#   3, nband=  4, wtk=  0.06250, kpt= -0.2500 -0.2500  0.2500 (reduced coord)
  -0.32023  -0.16274  -0.06400  -0.03685
 kpt#   4, nband=  4, wtk=  0.06250, kpt= -0.2500  0.0000  0.0000 (reduced coord)
  -0.38141  -0.08005   0.01542   0.01542
 kpt#   5, nband=  4, wtk=  0.06250, kpt= -0.2500  0.2500  0.2500 (reduced coord)
  -0.32023  -0.16274  -0.06400  -0.03685
 kpt#   6, nband=  4, wtk=  0.06250, kpt=  0.5000  0.5000  0.2500 (reduced coord)
  -0.32023  -0.16274  -0.06400  -0.03685
 kpt#   7, nband=  4, wtk=  0.06250, kpt= -0.2500  0.5000  0.5000 (reduced coord)
  -0.32023  -0.16274  -0.06400  -0.03685
 kpt#   8, nband=  4, wtk=  0.06250, kpt=  0.0000 -0.2500  0.0000 (reduced coord)
  -0.38141  -0.08005   0.01542   0.01542
 kpt#   9, nband=  4, wtk=  0.06250, kpt=  0.2500 -0.2500  0.2500 (reduced coord)
  -0.32023  -0.16274  -0.06400  -0.03685
 kpt#  10, nband=  4, wtk=  0.06250, kpt=  0.5000 -0.2500  0.5000 (reduced coord)
  -0.32023  -0.16274  -0.06400  -0.03685
 kpt#  11, nband=  4, wtk=  0.06250, kpt= -0.2500 -0.2500 -0.2500 (reduced coord)
  -0.38141  -0.08005   0.01542   0.01542
 kpt#  12, nband=  4, wtk=  0.06250, kpt=  0.5000  0.0000  0.2500 (reduced coord)
  -0.32023  -0.16274  -0.06400  -0.03685
 kpt#  13, nband=  4, wtk=  0.06250, kpt= -0.2500  0.0000  0.5000 (reduced coord)
  -0.32023  -0.16274  -0.06400  -0.03685
 kpt#  14, nband=  4, wtk=  0.06250, kpt=  0.0000  0.5000  0.2500 (reduced coord)
  -0.32023  -0.16274  -0.06400  -0.03685
 kpt#  15, nband=  4, wtk=  0.06250, kpt=  0.0000 -0.2500  0.5000 (reduced coord)
  -0.32023  -0.16274  -0.06400  -0.03685
 kpt#  16, nband=  4, wtk=  0.06250, kpt=  0.0000  0.0000  0.2500 (reduced coord)
  -0.38141  -0.08005   0.01542   0.01542
 Total charge density [el/Bohr^3]
,     Maximum=    6.1441E-02  at reduced coord.    0.1250    0.1250    0.6250
,Next maximum=    6.1441E-02  at reduced coord.    0.1250    0.6250    0.1250
,     Minimum=    1.7788E-03  at reduced coord.    0.7500    0.7500    0.7500
,Next minimum=    2.2312E-03  at reduced coord.    0.5000    0.5000    0.5000
,  Integrated=    8.0000E+00

================================================================================
== DATASET  3 ==================================================================
-   nproc =    4

 mkfilename : getwfk/=0, take file _WFK from output of DATASET   2.

 Exchange-correlation functional for the present dataset will be:
  LDA: old Teter (4/91) fit to Ceperley-Alder data - ixc=3

 Real(R)+Recip(G) space primitive vectors, cartesian coordinates (Bohr,Bohr^-1):
 R(1)=  0.0000000  5.3000000  5.3000000  G(1)= -0.0943396  0.0943396  0.0943396
 R(2)=  5.3000000  0.0000000  5.3000000  G(2)=  0.0943396 -0.0943396  0.0943396
 R(3)=  5.3000000  5.3000000  0.0000000  G(3)=  0.0943396  0.0943396 -0.0943396
 Unit cell volume ucvol=  2.9775400E+02 bohr^3
 Angles (23,13,12)=  6.00000000E+01  6.00000000E+01  6.00000000E+01 degrees
 setup1 : take into account q-point for computing boxcut.

 getcut: wavevector=  0.0000  0.0000  0.0000  ngfft=   8   8   8
         ecut(hartree)=      1.000   => boxcut(ratio)=   2.37101

 getcut : COMMENT -
  Note that boxcut > 2.2 ; recall that boxcut=Gcut(box)/Gcut(sphere) = 2
  is sufficient for exact treatment of convolution.
  Such a large boxcut is a waste : you could raise ecut
  e.g. ecut=    1.405426 Hartrees makes boxcut=2

--------------------------------------------------------------------------------

-inwffil : will read wavefunctions from disk file t57_MPI4o_DS2_WFK
P newkpt: treating      4 bands with npw=      15 for ikpt=   1 by node    0
P newkpt: treating      4 bands with npw=      15 for ikpt=   2 by node    0
P newkpt: treating      4 bands with npw=      15 for ikpt=   3 by node    0
P newkpt: treating      4 bands with npw=      15 for ikpt=   4 by node    0
P newkpt: treating      4 bands with npw=      15 for ikpt=   5 by node    1
P newkpt: treating      4 bands with npw=      15 for ikpt=   6 by node    1
P newkpt: treating      4 bands with npw=      15 for ikpt=   7 by node    1
P newkpt: treating      4 bands with npw=      15 for ikpt=   8 by node    1
P newkpt: treating      4 bands with npw=      15 for ikpt=   9 by node    2
P newkpt: treating      4 bands with npw=      15 for ikpt=  10 by node    2
P newkpt: treating      4 bands with npw=      15 for ikpt=  11 by node    2
P newkpt: treating      4 bands with npw=      15 for ikpt=  12 by node    2
P newkpt: treating      4 bands with npw=      15 for ikpt=  13 by node    3
P newkpt: treating      4 bands with npw=      15 for ikpt=  14 by node    3
P newkpt: treating      4 bands with npw=      15 for ikpt=  15 by node    3
P newkpt: treating      4 bands with npw=      15 for ikpt=  16 by node    3


 ==>  initialize data related to q vector <== 

 The list of irreducible perturbations for this q vector is:
    1)    idir= 1    ipert=   3

================================================================================

--------------------------------------------------------------------------------
 Perturbation wavevector (in red.coord.)   0.000000  0.000000  0.000000
 Perturbation : derivative vs k along direction   1
 The set of symmetries contains only one element for this perturbation.
 symkpt : not enough symmetry to change the number of k points.

--------------------------------------------------------------------------------

-inwffil : will read wavefunctions from disk file t57_MPI4o_DS2_WFK
P newkpt: treating      4 bands with npw=      15 for ikpt=   1 by node    0
P newkpt: treating      4 bands with npw=      15 for ikpt=   2 by node    0
P newkpt: treating      4 bands with npw=      15 for ikpt=   3 by node    0
P newkpt: treating      4 bands with npw=      15 for ikpt=   4 by node    0
P newkpt: treating      4 bands with npw=      15 for ikpt=   5 by node    1
P newkpt: treating      4 bands with npw=      15 for ikpt=   6 by node    1
P newkpt: treating      4 bands with npw=      15 for ikpt=   7 by node    1
P newkpt: treating      4 bands with npw=      15 for ikpt=   8 by node    1
P newkpt: treating      4 bands with npw=      15 for ikpt=   9 by node    2
P newkpt: treating      4 bands with npw=      15 for ikpt=  10 by node    2
P newkpt: treating      4 bands with npw=      15 for ikpt=  11 by node    2
P newkpt: treating      4 bands with npw=      15 for ikpt=  12 by node    2
P newkpt: treating      4 bands with npw=      15 for ikpt=  13 by node    3
P newkpt: treating      4 bands with npw=      15 for ikpt=  14 by node    3
P newkpt: treating      4 bands with npw=      15 for ikpt=  15 by node    3
P newkpt: treating      4 bands with npw=      15 for ikpt=  16 by node    3

--------------------------------------------------------------------------------

-inwffil : will read wavefunctions from disk file t57_MPI4o_DS2_WFK
P newkpt: treating      4 bands with npw=      15 for ikpt=   1 by node    0
P newkpt: treating      4 bands with npw=      15 for ikpt=   2 by node    0
P newkpt: treating      4 bands with npw=      15 for ikpt=   3 by node    0
P newkpt: treating      4 bands with npw=      15 for ikpt=   4 by node    0
P newkpt: treating      4 bands with npw=      15 for ikpt=   5 by node    1
P newkpt: treating      4 bands with npw=      15 for ikpt=   6 by node    1
P newkpt: treating      4 bands with npw=      15 for ikpt=   7 by node    1
P newkpt: treating      4 bands with npw=      15 for ikpt=   8 by node    1
P newkpt: treating      4 bands with npw=      15 for ikpt=   9 by node    2
P newkpt: treating      4 bands with npw=      15 for ikpt=  10 by node    2
P newkpt: treating      4 bands with npw=      15 for ikpt=  11 by node    2
P newkpt: treating      4 bands with npw=      15 for ikpt=  12 by node    2
P newkpt: treating      4 bands with npw=      15 for ikpt=  13 by node    3
P newkpt: treating      4 bands with npw=      15 for ikpt=  14 by node    3
P newkpt: treating      4 bands with npw=      15 for ikpt=  15 by node    3
P newkpt: treating      4 bands with npw=      15 for ikpt=  16 by node    3

 Initialisation of the first-order wave-functions :
  ireadwf=   0
P newkpt: treating      4 bands with npw=      15 for ikpt=   1 by node    0
P newkpt: treating      4 bands with npw=      15 for ikpt=   2 by node    0
P newkpt: treating      4 bands with npw=      15 for ikpt=   3 by node    0
P newkpt: treating      4 bands with npw=      15 for ikpt=   4 by node    0
P newkpt: treating      4 bands with npw=      15 for ikpt=   5 by node    1
P newkpt: treating      4 bands with npw=      15 for ikpt=   6 by node    1
P newkpt: treating      4 bands with npw=      15 for ikpt=   7 by node    1
P newkpt: treating      4 bands with npw=      15 for ikpt=   8 by node    1
P newkpt: treating      4 bands with npw=      15 for ikpt=   9 by node    2
P newkpt: treating      4 bands with npw=      15 for ikpt=  10 by node    2
P newkpt: treating      4 bands with npw=      15 for ikpt=  11 by node    2
P newkpt: treating      4 bands with npw=      15 for ikpt=  12 by node    2
P newkpt: treating      4 bands with npw=      15 for ikpt=  13 by node    3
P newkpt: treating      4 bands with npw=      15 for ikpt=  14 by node    3
P newkpt: treating      4 bands with npw=      15 for ikpt=  15 by node    3
P newkpt: treating      4 bands with npw=      15 for ikpt=  16 by node    3


     iter   2DEtotal(Ha)        deltaE(Ha) residm    vres2
-ETOT  1  -10.008223145742     -1.001E+01 1.227E-03 0.000E+00
 ETOT  2  -10.008769926694     -5.468E-04 7.191E-07 0.000E+00
 ETOT  3  -10.008770074697     -1.480E-07 9.903E-11 0.000E+00
 ETOT  4  -10.008770074724     -2.721E-11 3.263E-14 0.000E+00
 ETOT  5  -10.008770074724     -1.421E-14 1.341E-17 0.000E+00
 ETOT  6  -10.008770074724      0.000E+00 1.022E-20 0.000E+00
 ETOT  7  -10.008770074724      0.000E+00 9.929E-23 0.000E+00

 At SCF step    7   max residual=  9.93E-23 < tolwfr=  1.00E-22 =>converged.
================================================================================

 ----iterations are completed or convergence reached----

 Mean square residual over all n,k,spin=   3.4380E-23; max=  9.9292E-23
  -0.2500  0.5000  0.0000    1  3.73456E-23 kpt; spin; max resid(k); each band:
  2.10E-23 3.73E-23 2.05E-23 4.35E-24
   0.5000 -0.2500  0.0000    1  7.46461E-23 kpt; spin; max resid(k); each band:
  2.13E-23 1.63E-23 5.02E-24 7.46E-23
  -0.2500 -0.2500  0.2500    1  7.02814E-23 kpt; spin; max resid(k); each band:
  5.71E-23 7.03E-23 1.39E-23 3.32E-23
  -0.2500  0.0000  0.0000    1  2.91816E-23 kpt; spin; max resid(k); each band:
  2.92E-23 2.20E-23 1.63E-26 2.53E-26
  -0.2500  0.2500  0.2500    1  7.41367E-23 kpt; spin; max resid(k); each band:
  2.13E-23 1.63E-23 5.02E-24 7.41E-23
   0.5000  0.5000  0.2500    1  7.02814E-23 kpt; spin; max resid(k); each band:
  5.71E-23 7.03E-23 1.39E-23 3.32E-23
  -0.2500  0.5000  0.5000    1  3.73456E-23 kpt; spin; max resid(k); each band:
  2.10E-23 3.73E-23 2.05E-23 1.58E-24
   0.0000 -0.2500  0.0000    1  9.92863E-23 kpt; spin; max resid(k); each band:
  2.85E-23 5.38E-23 2.15E-23 9.93E-23
   0.2500 -0.2500  0.2500    1  7.02818E-23 kpt; spin; max resid(k); each band:
  5.71E-23 7.03E-23 1.39E-23 3.32E-23
   0.5000 -0.2500  0.5000    1  7.02815E-23 kpt; spin; max resid(k); each band:
  5.71E-23 7.03E-23 1.39E-23 3.32E-23
  -0.2500 -0.2500 -0.2500    1  9.92916E-23 kpt; spin; max resid(k); each band:
  2.85E-23 5.38E-23 2.16E-23 9.93E-23
   0.5000  0.0000  0.2500    1  7.41376E-23 kpt; spin; max resid(k); each band:
  2.13E-23 1.63E-23 5.02E-24 7.41E-23
  -0.2500  0.0000  0.5000    1  3.73458E-23 kpt; spin; max resid(k); each band:
  2.10E-23 3.73E-23 2.05E-23 4.35E-24
   0.0000  0.5000  0.2500    1  7.02818E-23 kpt; spin; max resid(k); each band:
  5.71E-23 7.03E-23 1.39E-23 3.32E-23
   0.0000 -0.2500  0.5000    1  7.02816E-23 kpt; spin; max resid(k); each band:
  5.71E-23 7.03E-23 1.39E-23 3.32E-23
   0.0000  0.0000  0.2500    1  5.38368E-23 kpt; spin; max resid(k); each band:
  2.85E-23 5.38E-23 1.29E-23 3.08E-24
 loper3 : ek2=    1.6865112540E+01
          f-sum rule ratio=    9.8215015844E-01
 prteigrs : about to open file t57_MPI4_1WF1_EIG
 Expectation of eigenvalue derivatives (hartree) for nkpt=  16  k points:
  (in case of degenerate eigenvalues, averaged derivative)
 kpt#   1, nband=  4, wtk=  0.06250, kpt= -0.2500  0.5000  0.0000 (reduced coord)
  -0.09829  -0.12076   0.27833   0.14589
 kpt#   2, nband=  4, wtk=  0.06250, kpt=  0.5000 -0.2500  0.0000 (reduced coord)
  -0.16250   0.25598   0.16370  -0.05046
 kpt#   3, nband=  4, wtk=  0.06250, kpt= -0.2500 -0.2500  0.2500 (reduced coord)
  -0.13039   0.06761   0.22101   0.04772
 kpt#   4, nband=  4, wtk=  0.06250, kpt= -0.2500  0.0000  0.0000 (reduced coord)
  -0.21000   0.58964   0.08370   0.08370
 kpt#   5, nband=  4, wtk=  0.06250, kpt= -0.2500  0.2500  0.2500 (reduced coord)
  -0.16250   0.25598   0.16370  -0.05046
 kpt#   6, nband=  4, wtk=  0.06250, kpt=  0.5000  0.5000  0.2500 (reduced coord)
   0.13039  -0.06761  -0.22101  -0.04772
 kpt#   7, nband=  4, wtk=  0.06250, kpt= -0.2500  0.5000  0.5000 (reduced coord)
   0.09829   0.12076  -0.27833  -0.14589
 kpt#   8, nband=  4, wtk=  0.06250, kpt=  0.0000 -0.2500  0.0000 (reduced coord)
   0.07000  -0.19655  -0.02790  -0.02790
 kpt#   9, nband=  4, wtk=  0.06250, kpt=  0.2500 -0.2500  0.2500 (reduced coord)
   0.13039  -0.06761  -0.22101  -0.04772
 kpt#  10, nband=  4, wtk=  0.06250, kpt=  0.5000 -0.2500  0.5000 (reduced coord)
  -0.13039   0.06761   0.22101   0.04772
 kpt#  11, nband=  4, wtk=  0.06250, kpt= -0.2500 -0.2500 -0.2500 (reduced coord)
  -0.07000   0.19655   0.02790   0.02790
 kpt#  12, nband=  4, wtk=  0.06250, kpt=  0.5000  0.0000  0.2500 (reduced coord)
   0.16250  -0.25598  -0.16370   0.05046
 kpt#  13, nband=  4, wtk=  0.06250, kpt= -0.2500  0.0000  0.5000 (reduced coord)
  -0.09829  -0.12076   0.27833   0.14589
 kpt#  14, nband=  4, wtk=  0.06250, kpt=  0.0000  0.5000  0.2500 (reduced coord)
  -0.13039   0.06761   0.22101   0.04772
 kpt#  15, nband=  4, wtk=  0.06250, kpt=  0.0000 -0.2500  0.5000 (reduced coord)
   0.13039  -0.06761  -0.22101  -0.04772
 kpt#  16, nband=  4, wtk=  0.06250, kpt=  0.0000  0.0000  0.2500 (reduced coord)
  -0.07000   0.19655   0.02790   0.02790

 Eight components of 2nd-order total energy (hartree) are
 1,2,3: 0th-order hamiltonian combined with 1st-order wavefunctions
     kin0=   1.64327196E+01 eigvalue=   8.17308248E-01  local=  -1.05635998E+01
 4,5,6: 1st-order hamiltonian combined with 1st and 0th-order wfs
     kin1=  -1.65640730E+01  Hartree=   0.00000000E+00     xc=   0.00000000E+00
 7,8,9: eventually, occupation + non-local contributions
    edocc=   0.00000000E+00     enl0=   3.32234199E+00   enl1=  -3.45346720E+00
 1-9 gives the relaxation energy (to be shifted if some occ is /=2.0)
   erelax=  -1.00087701E+01
  No Ewald or frozen-wf contrib.: the relaxation energy is the total one
 2DEtotal=   -0.1000877007E+02 Ha. Also 2DEtotal=   -0.272352484470E+03 eV
    (  non-var. 2DEtotal :   -1.0008770075E+01 Ha)
================================================================================

 ---- first-order wavefunction calculations are completed ----


 Total localisation tensor (bohr^2) in cartesian coordinates
  WARNING : still subject to testing - especially symmetries.
      direction              matrix element
   alpha     beta       real part   imaginary part
     1        1       0.0000000000    0.0000000000
     1        2       0.0000000000    0.0000000000
     1        3       0.0000000000    0.0000000000
     2        1       0.0000000000    0.0000000000
     2        2       1.4804364615    0.0000000000
     2        3       1.4804364615    0.0000000000
     3        1       0.0000000000    0.0000000000
     3        2       1.4804364615    0.0000000000
     3        3       1.4804364615    0.0000000000

 WARNING : Localization tensor calculation (this does not apply to other properties).
  Not all d/dk perturbations were computed. So the localization tensor in reciprocal space is incomplete,
  and transformation to cartesian coordinates may be wrong.

 respfn : d/dk was computed, but no 2DTE, so no DDB output.

================================================================================
== DATASET  4 ==================================================================
-   nproc =    4

 mkfilename : getwfk/=0, take file _WFK from output of DATASET   2.

 mkfilename : getddk/=0, take file _1WF from output of DATASET   3.

 Exchange-correlation functional for the present dataset will be:
  LDA: old Teter (4/91) fit to Ceperley-Alder data - ixc=3

 Real(R)+Recip(G) space primitive vectors, cartesian coordinates (Bohr,Bohr^-1):
 R(1)=  0.0000000  5.3000000  5.3000000  G(1)= -0.0943396  0.0943396  0.0943396
 R(2)=  5.3000000  0.0000000  5.3000000  G(2)=  0.0943396 -0.0943396  0.0943396
 R(3)=  5.3000000  5.3000000  0.0000000  G(3)=  0.0943396  0.0943396 -0.0943396
 Unit cell volume ucvol=  2.9775400E+02 bohr^3
 Angles (23,13,12)=  6.00000000E+01  6.00000000E+01  6.00000000E+01 degrees
 setup1 : take into account q-point for computing boxcut.

 getcut: wavevector=  0.0000  0.0000  0.0000  ngfft=   8   8   8
         ecut(hartree)=      1.000   => boxcut(ratio)=   2.37101

 getcut : COMMENT -
  Note that boxcut > 2.2 ; recall that boxcut=Gcut(box)/Gcut(sphere) = 2
  is sufficient for exact treatment of convolution.
  Such a large boxcut is a waste : you could raise ecut
  e.g. ecut=    1.405426 Hartrees makes boxcut=2

--------------------------------------------------------------------------------

-inwffil : will read wavefunctions from disk file t57_MPI4o_DS2_WFK
P newkpt: treating      4 bands with npw=      15 for ikpt=   1 by node    0
P newkpt: treating      4 bands with npw=      15 for ikpt=   2 by node    0
P newkpt: treating      4 bands with npw=      15 for ikpt=   3 by node    0
P newkpt: treating      4 bands with npw=      15 for ikpt=   4 by node    0
P newkpt: treating      4 bands with npw=      15 for ikpt=   5 by node    1
P newkpt: treating      4 bands with npw=      15 for ikpt=   6 by node    1
P newkpt: treating      4 bands with npw=      15 for ikpt=   7 by node    1
P newkpt: treating      4 bands with npw=      15 for ikpt=   8 by node    1
P newkpt: treating      4 bands with npw=      15 for ikpt=   9 by node    2
P newkpt: treating      4 bands with npw=      15 for ikpt=  10 by node    2
P newkpt: treating      4 bands with npw=      15 for ikpt=  11 by node    2
P newkpt: treating      4 bands with npw=      15 for ikpt=  12 by node    2
P newkpt: treating      4 bands with npw=      15 for ikpt=  13 by node    3
P newkpt: treating      4 bands with npw=      15 for ikpt=  14 by node    3
P newkpt: treating      4 bands with npw=      15 for ikpt=  15 by node    3
P newkpt: treating      4 bands with npw=      15 for ikpt=  16 by node    3


 ==>  initialize data related to q vector <== 

 The list of irreducible perturbations for this q vector is:
    1)    idir= 1    ipert=   1
    2)    idir= 1    ipert=   2
    3)    idir= 1    ipert=   4

================================================================================

 The perturbation idir=   2  ipert=   1 is
 symmetric of a previously calculated perturbation.
 So, its SCF calculation is not needed.


 The perturbation idir=   3  ipert=   1 is
 symmetric of a previously calculated perturbation.
 So, its SCF calculation is not needed.


 The perturbation idir=   2  ipert=   2 is
 symmetric of a previously calculated perturbation.
 So, its SCF calculation is not needed.


 The perturbation idir=   3  ipert=   2 is
 symmetric of a previously calculated perturbation.
 So, its SCF calculation is not needed.


 The perturbation idir=   2  ipert=   4 is
 symmetric of a previously calculated perturbation.
 So, its SCF calculation is not needed.


 The perturbation idir=   3  ipert=   4 is
 symmetric of a previously calculated perturbation.
 So, its SCF calculation is not needed.


--------------------------------------------------------------------------------
 Perturbation wavevector (in red.coord.)   0.000000  0.000000  0.000000
 Perturbation : displacement of atom   1   along direction   1
 Found     2 symmetries that leave the perturbation invariant.
 symkpt : the number of k-points, thanks to the symmetries,
 is reduced to    10 .

--------------------------------------------------------------------------------

-inwffil : will read wavefunctions from disk file t57_MPI4o_DS2_WFK
- newkpt: read input wf with ikpt,npw=   1      15, make ikpt,npw=   1      15
- newkpt: read input wf with ikpt,npw=   2      15, make ikpt,npw=   2      15
- newkpt: read input wf with ikpt,npw=   3      15, make ikpt,npw=   3      15

--------------------------------------------------------------------------------

-inwffil : will read wavefunctions from disk file t57_MPI4o_DS2_WFK
- newkpt: read input wf with ikpt,npw=   1      15, make ikpt,npw=   1      15
- newkpt: read input wf with ikpt,npw=   2      15, make ikpt,npw=   2      15
- newkpt: read input wf with ikpt,npw=   3      15, make ikpt,npw=   3      15

 Initialisation of the first-order wave-functions :
  ireadwf=   0
P newkpt: treating      4 bands with npw=      15 for ikpt=   1 by node    0
P newkpt: treating      4 bands with npw=      15 for ikpt=   2 by node    0
P newkpt: treating      4 bands with npw=      15 for ikpt=   3 by node    0
P newkpt: treating      4 bands with npw=      15 for ikpt=   4 by node    1
P newkpt: treating      4 bands with npw=      15 for ikpt=   5 by node    1
P newkpt: treating      4 bands with npw=      15 for ikpt=   6 by node    1
P newkpt: treating      4 bands with npw=      15 for ikpt=   7 by node    2
P newkpt: treating      4 bands with npw=      15 for ikpt=   8 by node    2
P newkpt: treating      4 bands with npw=      15 for ikpt=   9 by node    2
P newkpt: treating      4 bands with npw=      15 for ikpt=  10 by node    3


     iter   2DEtotal(Ha)        deltaE(Ha) residm    vres2
-ETOT  1   17.056048960089     -1.844E+01 1.152E-02 1.448E+01
 ETOT  2   16.788562421683     -2.675E-01 7.700E-05 1.647E-01
 ETOT  3   16.786659730558     -1.903E-03 7.287E-07 2.599E-03
 ETOT  4   16.786640844000     -1.889E-05 8.591E-09 4.745E-05
 ETOT  5   16.786640712178     -1.318E-07 3.826E-11 2.212E-06
 ETOT  6   16.786640703293     -8.886E-09 2.988E-12 6.923E-09
 ETOT  7   16.786640703216     -7.697E-11 2.427E-14 2.413E-10
 ETOT  8   16.786640703214     -1.968E-12 8.298E-16 7.125E-12
 ETOT  9   16.786640703214     -2.842E-14 9.856E-17 4.071E-13

 At SCF step    9   max residual=  9.86E-17 < tolwfr=  1.00E-16 =>converged.
-open ddk wf file :t57_MPI4o_DS3_1WF7
================================================================================

 ----iterations are completed or convergence reached----

 Mean square residual over all n,k,spin=   4.5903E-17; max=  9.8563E-17
  -0.2500  0.5000  0.0000    1  7.79019E-17 kpt; spin; max resid(k); each band:
  5.05E-17 1.10E-17 7.09E-17 7.79E-17
   0.5000 -0.2500  0.0000    1  9.85630E-17 kpt; spin; max resid(k); each band:
  3.78E-17 4.37E-17 1.68E-17 9.86E-17
  -0.2500 -0.2500  0.2500    1  7.91725E-17 kpt; spin; max resid(k); each band:
  5.01E-17 1.16E-17 7.11E-17 7.92E-17
  -0.2500  0.0000  0.0000    1  7.00712E-17 kpt; spin; max resid(k); each band:
  2.69E-17 2.38E-17 3.18E-17 7.01E-17
  -0.2500  0.2500  0.2500    1  7.61587E-17 kpt; spin; max resid(k); each band:
  3.48E-17 4.51E-17 7.62E-17 6.55E-17
   0.5000  0.5000  0.2500    1  9.51795E-17 kpt; spin; max resid(k); each band:
  3.85E-17 4.20E-17 1.72E-17 9.52E-17
  -0.2500  0.5000  0.5000    1  7.81361E-17 kpt; spin; max resid(k); each band:
  3.50E-17 4.43E-17 7.81E-17 6.46E-17
   0.0000 -0.2500  0.0000    1  8.38709E-17 kpt; spin; max resid(k); each band:
  9.51E-18 1.51E-17 8.39E-17 5.79E-17
  -0.2500 -0.2500 -0.2500    1  3.32998E-17 kpt; spin; max resid(k); each band:
  2.69E-17 2.35E-17 1.36E-17 3.33E-17
   0.0000  0.5000  0.2500    1  5.84578E-17 kpt; spin; max resid(k); each band:
  2.10E-17 4.43E-17 4.05E-17 5.85E-17

 Thirteen components of 2nd-order total energy (hartree) are
 1,2,3: 0th-order hamiltonian combined with 1st-order wavefunctions
     kin0=   1.66631608E+01 eigvalue=   1.54675575E+00  local=  -9.55853412E+00
 4,5,6: 1st-order hamiltonian combined with 1st and 0th-order wfs
 loc psp =  -8.91444507E+00  Hartree=   1.41019725E+00     xc=  -7.73684547E-01
 note that "loc psp" includes a xc core correction that could be resolved
 7,8,9: eventually, occupation + non-local contributions
    edocc=   0.00000000E+00     enl0=   9.42488113E+00   enl1=  -2.85111075E+01
 1-9 gives the relaxation energy (to be shifted if some occ is /=2.0)
   erelax=  -1.87127763E+01
 10,11,12 Non-relaxation  contributions : frozen-wavefunctions and Ewald
 fr.local=   3.57618865E+00 fr.nonlo=   2.00681617E+01  Ewald=   1.18550666E+01
 13,14 Frozen wf xc core corrections (1) and (2)
 frxc 1  =   0.00000000E+00  frxc 2 =   0.00000000E+00
 Resulting in :
 2DEtotal=    0.1678664070E+02 Ha. Also 2DEtotal=    0.456787723895E+03 eV
    (2DErelax=   -1.8712776257E+01 Ha. 2DEnonrelax=    3.5499416961E+01 Ha)
    (  non-var. 2DEtotal :    1.6786640687E+01 Ha)


--------------------------------------------------------------------------------
 Perturbation wavevector (in red.coord.)   0.000000  0.000000  0.000000
 Perturbation : displacement of atom   2   along direction   1
 Found     2 symmetries that leave the perturbation invariant.
 symkpt : the number of k-points, thanks to the symmetries,
 is reduced to    10 .

--------------------------------------------------------------------------------

-inwffil : will read wavefunctions from disk file t57_MPI4o_DS2_WFK
- newkpt: read input wf with ikpt,npw=   1      15, make ikpt,npw=   1      15
- newkpt: read input wf with ikpt,npw=   2      15, make ikpt,npw=   2      15
- newkpt: read input wf with ikpt,npw=   3      15, make ikpt,npw=   3      15

--------------------------------------------------------------------------------

-inwffil : will read wavefunctions from disk file t57_MPI4o_DS2_WFK
- newkpt: read input wf with ikpt,npw=   1      15, make ikpt,npw=   1      15
- newkpt: read input wf with ikpt,npw=   2      15, make ikpt,npw=   2      15
- newkpt: read input wf with ikpt,npw=   3      15, make ikpt,npw=   3      15

 Initialisation of the first-order wave-functions :
  ireadwf=   0
P newkpt: treating      4 bands with npw=      15 for ikpt=   1 by node    0
P newkpt: treating      4 bands with npw=      15 for ikpt=   2 by node    0
P newkpt: treating      4 bands with npw=      15 for ikpt=   3 by node    0
P newkpt: treating      4 bands with npw=      15 for ikpt=   4 by node    1
P newkpt: treating      4 bands with npw=      15 for ikpt=   5 by node    1
P newkpt: treating      4 bands with npw=      15 for ikpt=   6 by node    1
P newkpt: treating      4 bands with npw=      15 for ikpt=   7 by node    2
P newkpt: treating      4 bands with npw=      15 for ikpt=   8 by node    2
P newkpt: treating      4 bands with npw=      15 for ikpt=   9 by node    2
P newkpt: treating      4 bands with npw=      15 for ikpt=  10 by node    3


     iter   2DEtotal(Ha)        deltaE(Ha) residm    vres2
-ETOT  1   19.986813804814     -3.558E+01 2.891E-02 1.592E+02
 ETOT  2   16.794241386933     -3.193E+00 9.055E-04 5.645E-01
 ETOT  3   16.786768629135     -7.473E-03 2.956E-06 1.088E-02
 ETOT  4   16.786671316639     -9.731E-05 4.768E-08 1.397E-04
 ETOT  5   16.786671067149     -2.495E-07 9.569E-11 6.667E-06
 ETOT  6   16.786671050385     -1.676E-08 3.119E-12 3.844E-08
 ETOT  7   16.786671049927     -4.579E-10 1.743E-13 8.131E-10
 ETOT  8   16.786671049917     -9.784E-12 5.250E-15 3.488E-11
 ETOT  9   16.786671049917     -4.974E-14 9.755E-17 2.270E-12

 At SCF step    9   max residual=  9.75E-17 < tolwfr=  1.00E-16 =>converged.
-open ddk wf file :t57_MPI4o_DS3_1WF7
================================================================================

 ----iterations are completed or convergence reached----

 Mean square residual over all n,k,spin=   3.2104E-17; max=  9.7549E-17
  -0.2500  0.5000  0.0000    1  5.43864E-17 kpt; spin; max resid(k); each band:
  7.89E-18 1.66E-17 2.29E-17 5.44E-17
   0.5000 -0.2500  0.0000    1  5.12493E-17 kpt; spin; max resid(k); each band:
  7.50E-18 5.12E-17 1.40E-17 4.96E-17
  -0.2500 -0.2500  0.2500    1  5.46601E-17 kpt; spin; max resid(k); each band:
  7.85E-18 1.69E-17 2.30E-17 5.47E-17
  -0.2500  0.0000  0.0000    1  6.54283E-17 kpt; spin; max resid(k); each band:
  1.55E-17 5.95E-17 6.54E-17 3.41E-17
  -0.2500  0.2500  0.2500    1  4.85462E-17 kpt; spin; max resid(k); each band:
  7.65E-18 4.85E-17 1.44E-17 3.38E-18
   0.5000  0.5000  0.2500    1  5.09117E-17 kpt; spin; max resid(k); each band:
  7.40E-18 5.09E-17 1.42E-17 4.93E-17
  -0.2500  0.5000  0.5000    1  9.75487E-17 kpt; spin; max resid(k); each band:
  7.57E-18 4.84E-17 1.43E-17 9.75E-17
   0.0000 -0.2500  0.0000    1  6.28524E-17 kpt; spin; max resid(k); each band:
  3.22E-17 6.29E-17 3.17E-17 1.42E-17
  -0.2500 -0.2500 -0.2500    1  8.58978E-17 kpt; spin; max resid(k); each band:
  1.53E-17 5.91E-17 1.81E-17 8.59E-17
   0.0000  0.5000  0.2500    1  6.86410E-17 kpt; spin; max resid(k); each band:
  6.86E-17 9.36E-18 1.72E-17 5.01E-18

 Thirteen components of 2nd-order total energy (hartree) are
 1,2,3: 0th-order hamiltonian combined with 1st-order wavefunctions
     kin0=   5.05077497E+01 eigvalue=   3.42813824E+00  local=  -2.74073363E+01
 4,5,6: 1st-order hamiltonian combined with 1st and 0th-order wfs
 loc psp =  -5.15882956E+01  Hartree=   1.07165133E+01     xc=  -4.49339584E+00
 note that "loc psp" includes a xc core correction that could be resolved
 7,8,9: eventually, occupation + non-local contributions
    edocc=   0.00000000E+00     enl0=   6.03322183E+00   enl1=  -2.59814865E+01
 1-9 gives the relaxation energy (to be shifted if some occ is /=2.0)
   erelax=  -3.87848912E+01
 10,11,12 Non-relaxation  contributions : frozen-wavefunctions and Ewald
 fr.local=   2.60560979E+01 fr.nonlo=   1.76603977E+01  Ewald=   1.18550666E+01
 13,14 Frozen wf xc core corrections (1) and (2)
 frxc 1  =   0.00000000E+00  frxc 2 =   0.00000000E+00
 Resulting in :
 2DEtotal=    0.1678667105E+02 Ha. Also 2DEtotal=    0.456788549671E+03 eV
    (2DErelax=   -3.8784891183E+01 Ha. 2DEnonrelax=    5.5571562233E+01 Ha)
    (  non-var. 2DEtotal :    1.6786671162E+01 Ha)


--------------------------------------------------------------------------------
 Perturbation wavevector (in red.coord.)   0.000000  0.000000  0.000000
 Perturbation : homogeneous electric field along direction   1
 The set of symmetries contains only one element for this perturbation.
 symkpt : not enough symmetry to change the number of k points.

--------------------------------------------------------------------------------

-inwffil : will read wavefunctions from disk file t57_MPI4o_DS2_WFK
P newkpt: treating      4 bands with npw=      15 for ikpt=   1 by node    0
P newkpt: treating      4 bands with npw=      15 for ikpt=   2 by node    0
P newkpt: treating      4 bands with npw=      15 for ikpt=   3 by node    0
P newkpt: treating      4 bands with npw=      15 for ikpt=   4 by node    0
P newkpt: treating      4 bands with npw=      15 for ikpt=   5 by node    1
P newkpt: treating      4 bands with npw=      15 for ikpt=   6 by node    1
P newkpt: treating      4 bands with npw=      15 for ikpt=   7 by node    1
P newkpt: treating      4 bands with npw=      15 for ikpt=   8 by node    1
P newkpt: treating      4 bands with npw=      15 for ikpt=   9 by node    2
P newkpt: treating      4 bands with npw=      15 for ikpt=  10 by node    2
P newkpt: treating      4 bands with npw=      15 for ikpt=  11 by node    2
P newkpt: treating      4 bands with npw=      15 for ikpt=  12 by node    2
P newkpt: treating      4 bands with npw=      15 for ikpt=  13 by node    3
P newkpt: treating      4 bands with npw=      15 for ikpt=  14 by node    3
P newkpt: treating      4 bands with npw=      15 for ikpt=  15 by node    3
P newkpt: treating      4 bands with npw=      15 for ikpt=  16 by node    3

--------------------------------------------------------------------------------

-inwffil : will read wavefunctions from disk file t57_MPI4o_DS2_WFK
P newkpt: treating      4 bands with npw=      15 for ikpt=   1 by node    0
P newkpt: treating      4 bands with npw=      15 for ikpt=   2 by node    0
P newkpt: treating      4 bands with npw=      15 for ikpt=   3 by node    0
P newkpt: treating      4 bands with npw=      15 for ikpt=   4 by node    0
P newkpt: treating      4 bands with npw=      15 for ikpt=   5 by node    1
P newkpt: treating      4 bands with npw=      15 for ikpt=   6 by node    1
P newkpt: treating      4 bands with npw=      15 for ikpt=   7 by node    1
P newkpt: treating      4 bands with npw=      15 for ikpt=   8 by node    1
P newkpt: treating      4 bands with npw=      15 for ikpt=   9 by node    2
P newkpt: treating      4 bands with npw=      15 for ikpt=  10 by node    2
P newkpt: treating      4 bands with npw=      15 for ikpt=  11 by node    2
P newkpt: treating      4 bands with npw=      15 for ikpt=  12 by node    2
P newkpt: treating      4 bands with npw=      15 for ikpt=  13 by node    3
P newkpt: treating      4 bands with npw=      15 for ikpt=  14 by node    3
P newkpt: treating      4 bands with npw=      15 for ikpt=  15 by node    3
P newkpt: treating      4 bands with npw=      15 for ikpt=  16 by node    3

 Initialisation of the first-order wave-functions :
  ireadwf=   0
P newkpt: treating      4 bands with npw=      15 for ikpt=   1 by node    0
P newkpt: treating      4 bands with npw=      15 for ikpt=   2 by node    0
P newkpt: treating      4 bands with npw=      15 for ikpt=   3 by node    0
P newkpt: treating      4 bands with npw=      15 for ikpt=   4 by node    0
P newkpt: treating      4 bands with npw=      15 for ikpt=   5 by node    1
P newkpt: treating      4 bands with npw=      15 for ikpt=   6 by node    1
P newkpt: treating      4 bands with npw=      15 for ikpt=   7 by node    1
P newkpt: treating      4 bands with npw=      15 for ikpt=   8 by node    1
P newkpt: treating      4 bands with npw=      15 for ikpt=   9 by node    2
P newkpt: treating      4 bands with npw=      15 for ikpt=  10 by node    2
P newkpt: treating      4 bands with npw=      15 for ikpt=  11 by node    2
P newkpt: treating      4 bands with npw=      15 for ikpt=  12 by node    2
P newkpt: treating      4 bands with npw=      15 for ikpt=  13 by node    3
P newkpt: treating      4 bands with npw=      15 for ikpt=  14 by node    3
P newkpt: treating      4 bands with npw=      15 for ikpt=  15 by node    3
P newkpt: treating      4 bands with npw=      15 for ikpt=  16 by node    3

-loper3 : read the ddk wavefunctions from file: t57_MPI4o_DS3_1WF7

     iter   2DEtotal(Ha)        deltaE(Ha) residm    vres2
-ETOT  1  -114.75106189020     -1.148E+02 2.182E-02 2.101E+02
 ETOT  2  -119.17879659879     -4.428E+00 1.927E-03 3.993E-01
 ETOT  3  -119.18321714753     -4.421E-03 1.554E-06 1.702E-02
 ETOT  4  -119.18327882666     -6.168E-05 2.993E-08 3.308E-04
 ETOT  5  -119.18327931125     -4.846E-07 1.269E-10 4.545E-06
 ETOT  6  -119.18327934002     -2.878E-08 1.278E-11 5.131E-08
 ETOT  7  -119.18327934071     -6.834E-10 3.207E-13 1.695E-09
 ETOT  8  -119.18327934072     -1.127E-11 4.967E-15 1.114E-10
 ETOT  9  -119.18327934072     -3.979E-13 1.140E-16 2.913E-12
 ETOT 10  -119.18327934072      1.137E-13 7.098E-17 5.140E-14

 At SCF step   10   max residual=  7.10E-17 < tolwfr=  1.00E-16 =>converged.
-open ddk wf file :t57_MPI4o_DS3_1WF7
================================================================================

 ----iterations are completed or convergence reached----

 Mean square residual over all n,k,spin=   2.8385E-17; max=  7.0984E-17
  -0.2500  0.5000  0.0000    1  5.47394E-17 kpt; spin; max resid(k); each band:
  5.47E-17 1.84E-17 2.92E-17 1.13E-17
   0.5000 -0.2500  0.0000    1  2.16147E-17 kpt; spin; max resid(k); each band:
  2.16E-17 1.31E-17 1.06E-17 2.13E-17
  -0.2500 -0.2500  0.2500    1  7.07107E-17 kpt; spin; max resid(k); each band:
  2.98E-17 1.11E-17 3.42E-17 7.07E-17
  -0.2500  0.0000  0.0000    1  6.76064E-17 kpt; spin; max resid(k); each band:
  4.52E-17 1.63E-17 6.76E-17 1.64E-17
  -0.2500  0.2500  0.2500    1  2.15363E-17 kpt; spin; max resid(k); each band:
  2.15E-17 1.31E-17 1.07E-17 4.57E-18
   0.5000  0.5000  0.2500    1  7.09839E-17 kpt; spin; max resid(k); each band:
  3.00E-17 1.12E-17 3.38E-17 7.10E-17
  -0.2500  0.5000  0.5000    1  5.45908E-17 kpt; spin; max resid(k); each band:
  5.46E-17 1.86E-17 2.94E-17 1.24E-17
   0.0000 -0.2500  0.0000    1  4.20346E-17 kpt; spin; max resid(k); each band:
  2.58E-17 2.11E-17 4.20E-17 8.97E-18
   0.2500 -0.2500  0.2500    1  7.06783E-17 kpt; spin; max resid(k); each band:
  3.00E-17 1.11E-17 3.43E-17 7.07E-17
   0.5000 -0.2500  0.5000    1  7.07863E-17 kpt; spin; max resid(k); each band:
  3.01E-17 1.11E-17 3.43E-17 7.08E-17
  -0.2500 -0.2500 -0.2500    1  4.24988E-17 kpt; spin; max resid(k); each band:
  2.57E-17 2.12E-17 4.25E-17 9.03E-18
   0.5000  0.0000  0.2500    1  2.15186E-17 kpt; spin; max resid(k); each band:
  2.15E-17 1.31E-17 1.06E-17 3.91E-18
  -0.2500  0.0000  0.5000    1  5.47495E-17 kpt; spin; max resid(k); each band:
  5.47E-17 1.81E-17 2.90E-17 1.27E-17
   0.0000  0.5000  0.2500    1  7.09653E-17 kpt; spin; max resid(k); each band:
  3.00E-17 1.11E-17 3.40E-17 7.10E-17
   0.0000 -0.2500  0.5000    1  7.07398E-17 kpt; spin; max resid(k); each band:
  2.98E-17 1.11E-17 3.42E-17 7.07E-17
   0.0000  0.0000  0.2500    1  3.47843E-17 kpt; spin; max resid(k); each band:
  2.66E-17 2.08E-17 3.48E-17 7.75E-18

 Seven components of 2nd-order total energy (hartree) are
 1,2,3: 0th-order hamiltonian combined with 1st-order wavefunctions
     kin0=   2.22272793E+02 eigvalue=   5.85769156E+00  local=  -1.39769848E+02
 4,5,6: 1st-order hamiltonian combined with 1st and 0th-order wfs
    dotwf=  -2.38366559E+02  Hartree=   1.65393340E+01     xc=  -8.33502126E+00
 7,8,9: eventually, occupation + non-local contributions
    edocc=   0.00000000E+00     enl0=   2.26183303E+01   enl1=   0.00000000E+00
 1-9 gives the relaxation energy (to be shifted if some occ is /=2.0)
   erelax=  -1.19183279E+02
  No Ewald or frozen-wf contrib.: the relaxation energy is the total one
 2DEtotal=   -0.1191832793E+03 Ha. Also 2DEtotal=   -0.324314196383E+04 eV
    (  non-var. 2DEtotal :   -1.1918327933E+02 Ha)
================================================================================

 ---- first-order wavefunction calculations are completed ----


 ==> Compute Derivative Database <==
  
  2nd-order matrix (non-cartesian coordinates, masses not included,
   asr not included )
     j1       j2             matrix element
  dir pert dir pert     real part     imaginary part
  
   1    1   1    1        16.7866406869         0.0000000000
   1    1   2    1         8.3933203381         0.0000000000
   1    1   3    1         8.3933203381         0.0000000000
   1    1   1    2       -16.7870061700        -0.0000000000
   1    1   2    2        -8.3935030821        -0.0000000000
   1    1   3    2        -8.3935030821        -0.0000000000
   1    1   1    4       -12.1951060688         0.0000000000
   1    1   2    4         0.0000000002         0.0000000000
   1    1   3    4        -0.0000000002         0.0000000000
  
   2    1   1    1         8.3933203381         0.0000000000
   2    1   2    1        16.7866406869         0.0000000000
   2    1   3    1         8.3933203488         0.0000000000
   2    1   1    2        -8.3935030845        -0.0000000000
   2    1   2    2       -16.7870061700         0.0000000000
   2    1   3    2        -8.3935030855         0.0000000000
   2    1   1    4         0.0000000012         0.0000000000
   2    1   2    4       -12.1951060698         0.0000000000
   2    1   3    4        -0.0000000012         0.0000000000
  
   3    1   1    1         8.3933203381         0.0000000000
   3    1   2    1         8.3933203488         0.0000000000
   3    1   3    1        16.7866406976         0.0000000000
   3    1   1    2        -8.3935030845        -0.0000000000
   3    1   2    2        -8.3935030879         0.0000000000
   3    1   3    2       -16.7870061734        -0.0000000000
   3    1   1    4         0.0000000010         0.0000000000
   3    1   2    4        -0.0000000010         0.0000000000
   3    1   3    4       -12.1951060701         0.0000000000
  
   1    2   1    1       -16.7870061640         0.0000000000
   1    2   2    1        -8.3935030845         0.0000000000
   1    2   3    1        -8.3935030845         0.0000000000
   1    2   1    2        16.7866711619         0.0000000000
   1    2   2    2         8.3933355831         0.0000000000
   1    2   3    2         8.3933355831         0.0000000000
   1    2   1    4       -37.1738833489         0.0000000000
   1    2   2    4        -0.0000000005         0.0000000000
   1    2   3    4         0.0000000005         0.0000000000
  
   2    2   1    1        -8.3935030821         0.0000000000
   2    2   2    1       -16.7870061640        -0.0000000000
   2    2   3    1        -8.3935030818        -0.0000000000
   2    2   1    2         8.3933355831         0.0000000000
   2    2   2    2        16.7866711619         0.0000000000
   2    2   3    2         8.3933355788         0.0000000000
   2    2   1    4        -0.0000000016         0.0000000000
   2    2   2    4       -37.1738833478         0.0000000000
   2    2   3    4         0.0000000016         0.0000000000
  
   3    2   1    1        -8.3935030821         0.0000000000
   3    2   2    1        -8.3935030795        -0.0000000000
   3    2   3    1       -16.7870061613         0.0000000000
   3    2   1    2         8.3933355831         0.0000000000
   3    2   2    2         8.3933355788         0.0000000000
   3    2   3    2        16.7866711577         0.0000000000
   3    2   1    4        -0.0000000011         0.0000000000
   3    2   2    4         0.0000000011         0.0000000000
   3    2   3    4       -37.1738833473         0.0000000000
  
   1    4   1    1       -12.1951057763         0.0000000000
   1    4   2    1         0.0000000012         0.0000000000
   1    4   3    1         0.0000000010         0.0000000000
   1    4   1    2       -37.1738829982         0.0000000000
   1    4   2    2        -0.0000000016         0.0000000000
   1    4   3    2        -0.0000000011         0.0000000000
   1    4   1    4      -119.1832793291         0.0000000000
   1    4   2    4        39.7277597764         0.0000000000
   1    4   3    4        39.7277597764         0.0000000000
  
   2    4   1    1         0.0000000002         0.0000000000
   2    4   2    1       -12.1951057773         0.0000000000
   2    4   3    1        -0.0000000010         0.0000000000
   2    4   1    2        -0.0000000005         0.0000000000
   2    4   2    2       -37.1738829971         0.0000000000
   2    4   3    2         0.0000000011         0.0000000000
   2    4   1    4        39.7277597764         0.0000000000
   2    4   2    4      -119.1832793291         0.0000000000
   2    4   3    4        39.7277597764         0.0000000000
  
   3    4   1    1        -0.0000000002         0.0000000000
   3    4   2    1        -0.0000000012         0.0000000000
   3    4   3    1       -12.1951057776         0.0000000000
   3    4   1    2         0.0000000005         0.0000000000
   3    4   2    2         0.0000000016         0.0000000000
   3    4   3    2       -37.1738829966         0.0000000000
   3    4   1    4        39.7277597764         0.0000000000
   3    4   2    4        39.7277597764         0.0000000000
   3    4   3    4      -119.1832793291         0.0000000000
  
  
  Dynamical matrix, in cartesian coordinates,
   if specified in the inputs, asr has been imposed
     j1       j2             matrix element
  dir pert dir pert     real part    imaginary part
  
   1    1   1    1         0.2988010094         0.0000000000
   1    1   2    1         0.0000000000         0.0000000000
   1    1   3    1        -0.0000000002         0.0000000000
   1    1   1    2        -0.2988075147         0.0000000000
   1    1   2    2         0.0000000000        -0.0000000000
   1    1   3    2         0.0000000000         0.0000000000
  
   2    1   1    1         0.0000000000         0.0000000000
   2    1   2    1         0.2988010090         0.0000000000
   2    1   3    1         0.0000000000         0.0000000000
   2    1   1    2        -0.0000000000        -0.0000000000
   2    1   2    2        -0.2988075146        -0.0000000000
   2    1   3    2        -0.0000000000         0.0000000000
  
   3    1   1    1        -0.0000000002         0.0000000000
   3    1   2    1         0.0000000000         0.0000000000
   3    1   3    1         0.2988010090         0.0000000000
   3    1   1    2         0.0000000001         0.0000000000
   3    1   2    2        -0.0000000000         0.0000000000
   3    1   3    2        -0.2988075146        -0.0000000000
  
   1    2   1    1        -0.2988075144        -0.0000000000
   1    2   2    1        -0.0000000000         0.0000000000
   1    2   3    1        -0.0000000000        -0.0000000000
   1    2   1    2         0.2988015513         0.0000000000
   1    2   2    2         0.0000000000         0.0000000000
   1    2   3    2         0.0000000001         0.0000000000
  
   2    2   1    1        -0.0000000000         0.0000000000
   2    2   2    1        -0.2988075145         0.0000000000
   2    2   3    1        -0.0000000000        -0.0000000000
   2    2   1    2         0.0000000000         0.0000000000
   2    2   2    2         0.2988015515         0.0000000000
   2    2   3    2         0.0000000000         0.0000000000
  
   3    2   1    1        -0.0000000001        -0.0000000000
   3    2   2    1         0.0000000000        -0.0000000000
   3    2   3    1        -0.2988075145         0.0000000000
   3    2   1    2         0.0000000001         0.0000000000
   3    2   2    2         0.0000000000         0.0000000000
   3    2   3    2         0.2988015515         0.0000000000
  
  Dielectric tensor, in cartesian coordinates,
     j1       j2             matrix element
  dir pert dir pert     real part    imaginary part
  
   1    4   1    4         5.7719768652        -0.0000000000
   1    4   2    4         0.0000000000        -0.0000000000
   1    4   3    4         0.0000000000        -0.0000000000
  
   2    4   1    4         0.0000000000        -0.0000000000
   2    4   2    4         5.7719768652        -0.0000000000
   2    4   3    4         0.0000000000        -0.0000000000
  
   3    4   1    4         0.0000000000        -0.0000000000
   3    4   2    4         0.0000000000        -0.0000000000
   3    4   3    4         5.7719768652        -0.0000000000
  
  Effective charges, in cartesian coordinates,
  (from electric field response) 
   if specified in the inputs, asr has been imposed
[...]
     j1       j2             matrix element
  dir pert dir pert     real part    imaginary part
  
   1    4   1    1         1.0590886338         0.0000000000
   2    4   1    1         0.0000000000         0.0000000000
   3    4   1    1        -0.0000000000         0.0000000000
  
   1    4   2    1         0.0000000000         0.0000000000
   2    4   2    1         1.0590886341         0.0000000000
   3    4   2    1         0.0000000000         0.0000000000
  
   1    4   3    1         0.0000000000         0.0000000000
   2    4   3    1         0.0000000000         0.0000000000
   3    4   3    1         1.0590886342         0.0000000000
  
   1    4   1    2        -0.9164072326         0.0000000000
   2    4   1    2         0.0000000000         0.0000000000
   3    4   1    2         0.0000000000         0.0000000000
  
   1    4   2    2         0.0000000000         0.0000000000
   2    4   2    2        -0.9164072330         0.0000000000
   3    4   2    2         0.0000000000         0.0000000000
  
   1    4   3    2         0.0000000000         0.0000000000
   2    4   3    2         0.0000000000         0.0000000000
   3    4   3    2        -0.9164072332         0.0000000000
  
  
  
 
  Phonon wavevector (reduced coordinates) :  0.00000  0.00000  0.00000
 Phonon energies in Hartree :
  -6.876741E-06 -6.876730E-06 -6.876662E-06  2.130482E-03  2.130482E-03
   2.130482E-03
 Phonon frequencies in cm-1    :
- -1.509270E+00 -1.509268E+00 -1.509253E+00  4.675867E+02  4.675867E+02
-  4.675867E+02
 
  Phonon at Gamma, with non-analyticity in the
  direction (cartesian coordinates)  1.00000  0.00000  0.00000
 Phonon energies in Hartree :
  -6.876730E-06 -6.876730E-06  2.245104E-05  2.130482E-03  2.130482E-03
   2.155898E-03
 Phonon frequencies in cm-1    :
- -1.509268E+00 -1.509268E+00  4.927435E+00  4.675867E+02  4.675867E+02
-  4.731648E+02
 
  Phonon at Gamma, with non-analyticity in the
  direction (cartesian coordinates)  0.00000  1.00000  0.00000
 Phonon energies in Hartree :
  -6.876741E-06 -6.876662E-06  2.245103E-05  2.130482E-03  2.130482E-03
   2.155898E-03
 Phonon frequencies in cm-1    :
- -1.509270E+00 -1.509253E+00  4.927431E+00  4.675867E+02  4.675867E+02
-  4.731648E+02
 
  Phonon at Gamma, with non-analyticity in the
  direction (cartesian coordinates)  0.00000  0.00000  1.00000
 Phonon energies in Hartree :
  -6.876730E-06 -6.876674E-06  2.245103E-05  2.130482E-03  2.130482E-03
   2.155898E-03
 Phonon frequencies in cm-1    :
- -1.509268E+00 -1.509255E+00  4.927431E+00  4.675867E+02  4.675867E+02
-  4.731648E+02

== END DATASET(S) ==============================================================
================================================================================
  
 -outvars: echo values of variables after computation  --------
            acell      1.0600000000E+01  1.0600000000E+01  1.0600000000E+01 Bohr
              amu      6.97200000E+01  7.49216000E+01
           diemac1     1.00000000E+06
           diemac2     1.00000000E+06
           diemac3     1.00000000E+06
           diemac4     1.00000000E+00
           diemix1     1.00000000E+00
           diemix2     1.00000000E+00
           diemix3     1.00000000E+00
           diemix4     7.00000000E-01
             ecut      1.00000000E+00 Hartree
           etotal1    -8.0206403504E+00
           etotal3    -1.0008770075E+01
           etotal4    -1.1918327934E+02
            fcart1    -0.0000000000E+00 -0.0000000000E+00 -0.0000000000E+00
                      -0.0000000000E+00 -0.0000000000E+00 -0.0000000000E+00
            fcart4     0.0000000000E+00  0.0000000000E+00  0.0000000000E+00
                       0.0000000000E+00  0.0000000000E+00  0.0000000000E+00
-          fftalg         112
           getddk1          0
           getddk2          0
           getddk3          0
           getddk4          3
           getden1          0
           getden2          1
           getden3          0
           getden4          0
           getwfk1          0
           getwfk2          1
           getwfk3          2
           getwfk4          2
             iscf1          3
             iscf2         -2
             iscf3         -3
             iscf4          3
              ixc           3
           jdtset        1    2    3    4
              kpt1    -2.50000000E-01  5.00000000E-01  0.00000000E+00
                      -2.50000000E-01  0.00000000E+00  0.00000000E+00
              kpt2    -2.50000000E-01  5.00000000E-01  0.00000000E+00
                       5.00000000E-01 -2.50000000E-01  0.00000000E+00
                      -2.50000000E-01 -2.50000000E-01  2.50000000E-01
                      -2.50000000E-01  0.00000000E+00  0.00000000E+00
                      -2.50000000E-01  2.50000000E-01  2.50000000E-01
                       5.00000000E-01  5.00000000E-01  2.50000000E-01
                      -2.50000000E-01  5.00000000E-01  5.00000000E-01
                       0.00000000E+00 -2.50000000E-01  0.00000000E+00
                       2.50000000E-01 -2.50000000E-01  2.50000000E-01
                       5.00000000E-01 -2.50000000E-01  5.00000000E-01
                      -2.50000000E-01 -2.50000000E-01 -2.50000000E-01
                       5.00000000E-01  0.00000000E+00  2.50000000E-01
                      -2.50000000E-01  0.00000000E+00  5.00000000E-01
                       0.00000000E+00  5.00000000E-01  2.50000000E-01
                       0.00000000E+00 -2.50000000E-01  5.00000000E-01
                       0.00000000E+00  0.00000000E+00  2.50000000E-01
              kpt3    -2.50000000E-01  5.00000000E-01  0.00000000E+00
                       5.00000000E-01 -2.50000000E-01  0.00000000E+00
                      -2.50000000E-01 -2.50000000E-01  2.50000000E-01
                      -2.50000000E-01  0.00000000E+00  0.00000000E+00
                      -2.50000000E-01  2.50000000E-01  2.50000000E-01
                       5.00000000E-01  5.00000000E-01  2.50000000E-01
                      -2.50000000E-01  5.00000000E-01  5.00000000E-01
                       0.00000000E+00 -2.50000000E-01  0.00000000E+00
                       2.50000000E-01 -2.50000000E-01  2.50000000E-01
                       5.00000000E-01 -2.50000000E-01  5.00000000E-01
                      -2.50000000E-01 -2.50000000E-01 -2.50000000E-01
                       5.00000000E-01  0.00000000E+00  2.50000000E-01
                      -2.50000000E-01  0.00000000E+00  5.00000000E-01
                       0.00000000E+00  5.00000000E-01  2.50000000E-01
                       0.00000000E+00 -2.50000000E-01  5.00000000E-01
                       0.00000000E+00  0.00000000E+00  2.50000000E-01
              kpt4    -2.50000000E-01  5.00000000E-01  0.00000000E+00
                       5.00000000E-01 -2.50000000E-01  0.00000000E+00
                      -2.50000000E-01 -2.50000000E-01  2.50000000E-01
                      -2.50000000E-01  0.00000000E+00  0.00000000E+00
                      -2.50000000E-01  2.50000000E-01  2.50000000E-01
                       5.00000000E-01  5.00000000E-01  2.50000000E-01
                      -2.50000000E-01  5.00000000E-01  5.00000000E-01
                       0.00000000E+00 -2.50000000E-01  0.00000000E+00
                       2.50000000E-01 -2.50000000E-01  2.50000000E-01
                       5.00000000E-01 -2.50000000E-01  5.00000000E-01
                      -2.50000000E-01 -2.50000000E-01 -2.50000000E-01
                       5.00000000E-01  0.00000000E+00  2.50000000E-01
                      -2.50000000E-01  0.00000000E+00  5.00000000E-01
                       0.00000000E+00  5.00000000E-01  2.50000000E-01
                       0.00000000E+00 -2.50000000E-01  5.00000000E-01
                       0.00000000E+00  0.00000000E+00  2.50000000E-01
           kptopt1          1
           kptopt2          2
           kptopt3          2
           kptopt4          2
         kptrlatt        2   -2    2     -2    2    2     -2   -2    2
          kptrlen      2.12000000E+01
P           mkmem1          1
P           mkmem2          4
P           mkmem3          4
P           mkmem4          4
P          mkqmem1          1
P          mkqmem2          4
P          mkqmem3          4
P          mkqmem4          4
P          mk1mem1          1
P          mk1mem2          4
P          mk1mem3          4
P          mk1mem4          4
            natom           2
            nband1          4
            nband2          4
            nband3          4
            nband4          4
           ndtset           4
            ngfft           8       8       8
             nkpt1          2
             nkpt2         16
             nkpt3         16
             nkpt4         16
             nqpt1          0
             nqpt2          0
             nqpt3          1
             nqpt4          1
            nstep          40
             nsym          24
           ntypat           2
              occ1     2.000000  2.000000  2.000000  2.000000
              occ3     2.000000  2.000000  2.000000  2.000000
              occ4     2.000000  2.000000  2.000000  2.000000
        optdriver1          0
        optdriver2          0
        optdriver3          1
        optdriver4          1
        optforces           1
          rfatpol1          1       1
          rfatpol2          1       1
          rfatpol3          1       1
          rfatpol4          1       2
            rfdir1          0       0       0
            rfdir2          0       0       0
            rfdir3          1       0       0
            rfdir4          1       1       1
           rfelfd1          0
           rfelfd2          0
           rfelfd3          2
           rfelfd4          3
           rfphon1          0
           rfphon2          0
           rfphon3          0
           rfphon4          1
            rprim      0.0000000000E+00  5.0000000000E-01  5.0000000000E-01
                       5.0000000000E-01  0.0000000000E+00  5.0000000000E-01
                       5.0000000000E-01  5.0000000000E-01  0.0000000000E+00
           shiftk      5.00000000E-01  5.00000000E-01  5.00000000E-01
          spgroup         216
           strten1     1.1484320795E-03  1.1484320795E-03  1.1484320795E-03
                       0.0000000000E+00  0.0000000000E+00  0.0000000000E+00
           strten4     0.0000000000E+00  0.0000000000E+00  0.0000000000E+00
                       0.0000000000E+00  0.0000000000E+00  0.0000000000E+00
           symrel      1  0  0   0  1  0   0  0  1       0  1 -1   1  0 -1   0  0 -1
                       0 -1  1   0 -1  0   1 -1  0      -1  0  0  -1  0  1  -1  1  0
                       0  1  0   0  0  1   1  0  0       1  0 -1   0  0 -1   0  1 -1
                       0 -1  0   1 -1  0   0 -1  1      -1  0  1  -1  1  0  -1  0  0
                       0  0  1   1  0  0   0  1  0       0  0 -1   0  1 -1   1  0 -1
                       1 -1  0   0 -1  1   0 -1  0      -1  1  0  -1  0  0  -1  0  1
                       1  0 -1   0  1 -1   0  0 -1       0  1  0   1  0  0   0  0  1
                      -1  0  1  -1  0  0  -1  1  0       0 -1  0   0 -1  1   1 -1  0
                      -1  1  0  -1  0  1  -1  0  0       1 -1  0   0 -1  0   0 -1  1
                       0  0 -1   1  0 -1   0  1 -1       0  0  1   0  1  0   1  0  0
                       0 -1  1   1 -1  0   0 -1  0      -1  0  0  -1  1  0  -1  0  1
                       1  0  0   0  0  1   0  1  0       0  1 -1   0  0 -1   1  0 -1
           timopt           2
           tolwfr1     1.00000000E-22
           tolwfr2     1.00000000E-22
           tolwfr3     1.00000000E-22
           tolwfr4     1.00000000E-16
            typat      1  2
              wtk1       0.75000    0.25000
              wtk2       0.06250    0.06250    0.06250    0.06250    0.06250    0.06250
                         0.06250    0.06250    0.06250    0.06250    0.06250    0.06250
                         0.06250    0.06250    0.06250    0.06250
              wtk3       0.06250    0.06250    0.06250    0.06250    0.06250    0.06250
                         0.06250    0.06250    0.06250    0.06250    0.06250    0.06250
                         0.06250    0.06250    0.06250    0.06250
              wtk4       0.06250    0.06250    0.06250    0.06250    0.06250    0.06250
                         0.06250    0.06250    0.06250    0.06250    0.06250    0.06250
                         0.06250    0.06250    0.06250    0.06250
           xangst      0.0000000000E+00  0.0000000000E+00  0.0000000000E+00
                       1.4023196028E+00  1.4023196028E+00  1.4023196028E+00
            xcart      0.0000000000E+00  0.0000000000E+00  0.0000000000E+00
                       2.6500000000E+00  2.6500000000E+00  2.6500000000E+00
             xred      0.0000000000E+00  0.0000000000E+00  0.0000000000E+00
                       2.5000000000E-01  2.5000000000E-01  2.5000000000E-01
            znucl       31.00000   33.00000

================================================================================

- Total cpu        time (s,m,h):          3.9        0.06      0.001
- Total wall clock time (s,m,h):          3.9        0.06      0.001
-
- For major independent code sections, cpu and wall times (sec),
-  as well as % of the time and number of calls for node 0-
-<BEGIN_TIMER mpi_nprocs = 4, omp_nthreads = 1, mpi_rank = 0>
- cpu_time =            1.0, wall_time =            1.0
-
- routine                        cpu     %       wall     %      number of calls  Gflops 
-                                                                  (-1=no count)
- invars2                        0.422  11.0      0.421  10.9              4      -1.00    
- pspini                         0.192   5.0      0.191   4.9              4      -1.00    
- abinit(2)                      0.100   2.6      0.101   2.6              1      -1.00    
- fourwf%(pot)                   0.030   0.8      0.029   0.8           2531      -1.00    
- nonlop(apply)                  0.021   0.5      0.017   0.4           2155      -1.00    
- others (100)                   0.081   2.1      0.080   2.1             -1      -1.00    
-<END_TIMER>
-
- subtotal                       0.846  22.0      0.839  21.6

- For major independent code sections, cpu and wall times (sec),
- as well as % of the total time and number of calls 

-<BEGIN_TIMER mpi_nprocs = 4, omp_nthreads = 1, mpi_rank = world>
- cpu_time =           3.9, wall_time =           3.9
-
- routine                         cpu     %       wall     %      number of calls Gflops 
-                                                                  (-1=no count)
- invars2                        1.692  43.9      1.691  43.6             16      -1.00    
- pspini                         0.770  20.0      0.767  19.8             16      -1.00    
- abinit(2)                      0.400  10.4      0.401  10.3              4      -1.00    
- fourwf%(pot)                   0.092   2.4      0.104   2.7           9007      -1.00    
- nonlop(apply)                  0.080   2.1      0.061   1.6           7647      -1.00    
- vtorho3:MPI                    0.046   1.2      0.036   0.9            140      -1.00    
- inwffil(excl. calls)           0.036   0.9      0.046   1.2             64      -1.00    
- cgwf3-O(npw)                   0.029   0.8      0.028   0.7             -4      -1.00    
- wfsinp(excl. calls)            0.029   0.8      0.032   0.8             44      -1.00    
- vtorho(MPI)                    0.026   0.7      0.025   0.6             64      -1.00    
- vtorho3-kpt loop               0.023   0.6      0.022   0.6            140      -1.00    
- fourwf%(G->r)                  0.023   0.6      0.022   0.6           3168      -1.00    
- getghc-other                   0.020   0.5      0.014   0.4             -4      -1.00    
- others (92)                    0.109   2.8      0.119   3.1             -1      -1.00    
-<END_TIMER>

- subtotal                       3.374  87.6      3.368  86.8

================================================================================

 Suggested references for the acknowledgment of ABINIT usage.

 The users of ABINIT have little formal obligations with respect to the ABINIT group
 (those specified in the GNU General Public License, http://www.gnu.org/copyleft/gpl.txt).
 However, it is common practice in the scientific literature,
 to acknowledge the efforts of people that have made the research possible.
 In this spirit, please find below suggested citations of work written by ABINIT developers,
 corresponding to implementations inside of ABINIT that you have used in the present run.
 Note also that it will be of great value to readers of publications presenting these results,
 to read papers enabling them to understand the theoretical formalism and details
 of the ABINIT implementation.
 For information on why they are suggested, see also http://www.abinit.org/about/?text=acknowledgments.

 [1] First-principles responses of solids to atomic displacements and homogeneous electric fields:,
 implementation of a conjugate-gradient algorithm. X. Gonze, Phys. Rev. B55, 10337 (1997).
 Comment : Non-vanishing rfphon and/or rfelfd, in the norm-conserving case.

 [2] Dynamical matrices, Born effective charges, dielectric permittivity tensors, and ,
 interatomic force constants from density-functional perturbation theory,
 X. Gonze and C. Lee, Phys. Rev. B55, 10355 (1997).
 Comment : Non-vanishing rfphon and/or rfelfd, in the norm-conserving case.

 [3] ABINIT : First-principles approach of materials and nanosystem properties.
 X. Gonze, B. Amadon, P.-M. Anglade, J.-M. Beuken, F. Bottin, P. Boulanger, F. Bruneval,
 D. Caliste, R. Caracas, M. Cote, T. Deutsch, L. Genovese, Ph. Ghosez, M. Giantomassi
 S. Goedecker, D.R. Hamann, P. Hermet, F. Jollet, G. Jomard, S. Leroux, M. Mancini, S. Mazevet,
 M.J.T. Oliveira, G. Onida, Y. Pouillon, T. Rangel, G.-M. Rignanese, D. Sangalli, R. Shaltaf,
 M. Torrent, M.J. Verstraete, G. Zerah, J.W. Zwanziger
 Computer Phys. Comm. 180, 2582-2615 (2009).
 Comment : the third generic paper describing the ABINIT project.
 Note that a version of this paper, that is not formatted for Computer Phys. Comm. 
 is available at http://www.abinit.org/about/ABINIT_CPC_v10.pdf .
 The licence allows the authors to put it on the Web.

 [4] A brief introduction to the ABINIT software package.
 X. Gonze, G.-M. Rignanese, M. Verstraete, J.-M. Beuken, Y. Pouillon, R. Caracas, F. Jollet,
 M. Torrent, G. Zerah, M. Mikami, Ph. Ghosez, M. Veithen, J.-Y. Raty, V. Olevano, F. Bruneval,
 L. Reining, R. Godby, G. Onida, D.R. Hamann, and D.C. Allan.
 Z. Kristallogr. 220, 558-562 (2005).
 Comment : the second generic paper describing the ABINIT project. Note that this paper
 should be cited especially if you are using the GW part of ABINIT, as several authors
 of this part are not in the list of authors of the first or third paper.
 The .pdf of the latter paper is available at http://www.abinit.org/about/zfk_0505-06_558-562.pdf.
 Note that it should not redistributed (Copyright by Oldenburg Wissenshaftverlag,
 the licence allows the authors to put it on the Web).


 And optionally :

 [5] First-principles computation of material properties : the ABINIT software project. 
 X. Gonze, J.-M. Beuken, R. Caracas, F. Detraux, M. Fuchs, G.-M. Rignanese, L. Sindic,
 M. Verstraete, G. Zerah, F. Jollet, M. Torrent, A. Roy, M. Mikami, Ph. Ghosez, J.-Y. Raty, D.C. Allan.
 Computational Materials Science 25, 478-492 (2002). http://dx.doi.org/10.1016/S0927-0256(02)00325-7
 Comment : the original paper describing the ABINIT project.
-
- Proc.   0 individual time (sec): cpu=          1.0  wall=          1.0

================================================================================

 Calculation completed.
.Delivered    2 WARNINGs and  12 COMMENTs to log file.
+Overall time at end (sec) : cpu=          3.9  wall=          3.9
