
.Version 7.9.3 of ABINIT 
.(MPI version, prepared for a x86_64_linux_gnu4.7 computer) 

.Copyright (C) 1998-2014 ABINIT group . 
 ABINIT comes with ABSOLUTELY NO WARRANTY.
 It is free software, and you are welcome to redistribute it
 under certain conditions (GNU General Public License,
 see ~abinit/COPYING or http://www.gnu.org/copyleft/gpl.txt).

 ABINIT is a project of the Universite Catholique de Louvain,
 Corning Inc. and other collaborators, see ~abinit/doc/developers/contributors.txt .
 Please read ~abinit/doc/users/acknowledgments.html for suggested
 acknowledgments of the ABINIT effort.
 For more information, see http://www.abinit.org .

.Starting date : Sat 30 Aug 2014.
- ( at 10h11 )
  
- input  file    -> t72.in
- output file    -> t72_MPI4.out
- root for input  files -> t72_MPI4i
- root for output files -> t72_MPI4o


 DATASET    1 : space group Fd -3 m (#227); Bravais cF (face-center cubic)
================================================================================
 Values of the parameters that define the memory need for DATASET  1.
   intxc =         0  ionmov =         0    iscf =         5 xclevel =         1
  lmnmax =         2   lnmax =         2   mband =         5  mffmem =         1
P  mgfft =        15   mkmem =         1 mpssoang=         3     mpw =       126
  mqgrid =      3001   natom =         2    nfft =      3375    nkpt =         2
  nloalg =         4  nspden =         1 nspinor =         1  nsppol =         1
    nsym =        48  n1xccc =      2501  ntypat =         1  occopt =         1
================================================================================
P This job should need less than                       1.365 Mbytes of memory.
  Rough estimation (10% accuracy) of disk space for files :
_ WF disk file :      0.021 Mbytes ; DEN or POT disk file :      0.028 Mbytes.
================================================================================


 DATASET    2 : space group Fd -3 m (#227); Bravais cF (face-center cubic)
================================================================================
 Values of the parameters that define the memory need for DATASET  2.
   intxc =         0  ionmov =         0    iscf =        -2 xclevel =         1
  lmnmax =         2   lnmax =         2   mband =       105  mffmem =         1
P  mgfft =        15   mkmem =         2 mpssoang=         3     mpw =       137
  mqgrid =      3001   natom =         2    nfft =      3375    nkpt =         6
  nloalg =         4  nspden =         1 nspinor =         1  nsppol =         1
    nsym =        48  n1xccc =      2501  ntypat =         1  occopt =         1
================================================================================
P This job should need less than                       1.904 Mbytes of memory.
  Rough estimation (10% accuracy) of disk space for files :
_ WF disk file :      1.319 Mbytes ; DEN or POT disk file :      0.028 Mbytes.
================================================================================


 DATASET    3 : space group Fd -3 m (#227); Bravais cF (face-center cubic)
================================================================================
 Values of the parameters that define the memory need for DATASET  3.
   intxc =         0  ionmov =         0    iscf =         5 xclevel =         1
  lmnmax =         2   lnmax =         2   mband =       100  mffmem =         1
P  mgfft =        15   mkmem =         2 mpssoang=         3     mpw =       125
  mqgrid =      3001   natom =         2    nfft =      3375    nkpt =         6
  nloalg =         4  nspden =         1 nspinor =         1  nsppol =         1
    nsym =        48  n1xccc =      2501  ntypat =         1  occopt =         1
================================================================================
P This job should need less than                       2.071 Mbytes of memory.
  Rough estimation (10% accuracy) of disk space for files :
_ WF disk file :      1.146 Mbytes ; DEN or POT disk file :      0.028 Mbytes.
================================================================================


 DATASET    4 : space group Fd -3 m (#227); Bravais cF (face-center cubic)
================================================================================
 Values of the parameters that define the memory need for DATASET  4.
   intxc =         0  ionmov =         0    iscf =         5 xclevel =         1
  lmnmax =         2   lnmax =         2   mband =       100  mffmem =         1
P  mgfft =        15   mkmem =         2 mpssoang=         3     mpw =       125
  mqgrid =      3001   natom =         2    nfft =      3375    nkpt =         6
  nloalg =         4  nspden =         1 nspinor =         1  nsppol =         1
    nsym =        48  n1xccc =      2501  ntypat =         1  occopt =         1
================================================================================
P This job should need less than                       2.071 Mbytes of memory.
  Rough estimation (10% accuracy) of disk space for files :
_ WF disk file :      1.146 Mbytes ; DEN or POT disk file :      0.028 Mbytes.
================================================================================

--------------------------------------------------------------------------------
------------- Echo of variables that govern the present computation ------------
--------------------------------------------------------------------------------
-
- outvars: echo of selected default values                                      
-   accesswff0 =  0 , fftalg0 =112 , wfoptalg0 =  0
-
- outvars: echo of global parameters not present in the input file              
-  max_nthreads =    0
-
 -outvars: echo values of preprocessed input variables --------
            acell      1.0261212902E+01  1.0261212902E+01  1.0261212902E+01 Bohr
              amu      2.80855000E+01
             awtr1          1
             awtr2          1
             awtr3          0
             awtr4          1
             bdgw4          4       5
           diemac      1.20000000E+01
             ecut1     4.50000000E+00 Hartree
             ecut2     4.50000000E+00 Hartree
             ecut3     4.49928585E+00 Hartree
             ecut4     4.49928585E+00 Hartree
          ecuteps1     0.00000000E+00 Hartree
          ecuteps2     0.00000000E+00 Hartree
          ecuteps3     2.99952390E+00 Hartree
          ecuteps4     0.00000000E+00 Hartree
         ecutsigx1     0.00000000E+00 Hartree
         ecutsigx2     0.00000000E+00 Hartree
         ecutsigx3     0.00000000E+00 Hartree
         ecutsigx4     1.49976195E+00 Hartree
          ecutwfn1     0.00000000E+00 Hartree
          ecutwfn2     0.00000000E+00 Hartree
          ecutwfn3     4.49928585E+00 Hartree
          ecutwfn4     4.49928585E+00 Hartree
-          fftalg         112
           getden1          0
           getden2         -1
           getden3          0
           getden4          0
           getkss1          0
           getkss2          0
           getkss3         -1
           getkss4          2
           getscr1          0
           getscr2          0
           getscr3          0
           getscr4          3
           gwpara           2
         icutcoul1          6
         icutcoul2          6
         icutcoul3          6
         icutcoul4          3
          inclvkb           0
             iscf1          5
             iscf2         -2
             iscf3          5
             iscf4          5
           istwfk2       0    0    1    0    1    1
           istwfk3       0    0    1    0    1    1
           istwfk4       0    0    1    0    1    1
           jdtset        1    2    3    4
              kpt1    -2.50000000E-01  5.00000000E-01  0.00000000E+00
                      -2.50000000E-01  0.00000000E+00  0.00000000E+00
              kpt2    -2.50000000E-01 -2.50000000E-01  0.00000000E+00
                      -2.50000000E-01  2.50000000E-01  0.00000000E+00
                       5.00000000E-01  5.00000000E-01  0.00000000E+00
                      -2.50000000E-01  5.00000000E-01  2.50000000E-01
                       5.00000000E-01  0.00000000E+00  0.00000000E+00
                       0.00000000E+00  0.00000000E+00  0.00000000E+00
              kpt3    -2.50000000E-01 -2.50000000E-01  0.00000000E+00
                      -2.50000000E-01  2.50000000E-01  0.00000000E+00
                       5.00000000E-01  5.00000000E-01  0.00000000E+00
                      -2.50000000E-01  5.00000000E-01  2.50000000E-01
                       5.00000000E-01  0.00000000E+00  0.00000000E+00
                       0.00000000E+00  0.00000000E+00  0.00000000E+00
              kpt4    -2.50000000E-01 -2.50000000E-01  0.00000000E+00
                      -2.50000000E-01  2.50000000E-01  0.00000000E+00
                       5.00000000E-01  5.00000000E-01  0.00000000E+00
                      -2.50000000E-01  5.00000000E-01  2.50000000E-01
                       5.00000000E-01  0.00000000E+00  0.00000000E+00
                       0.00000000E+00  0.00000000E+00  0.00000000E+00
            kptgw4     0.00000000E+00  0.00000000E+00  0.00000000E+00
         kptrlatt        2   -2    2     -2    2    2     -2   -2    2
          kptrlen      2.05224258E+01
          kssform1          1
          kssform2          3
          kssform3          1
          kssform4          1
P           mkmem1          1
P           mkmem2          2
P           mkmem3          2
P           mkmem4          2
            natom           2
            nband1          5
            nband2        105
            nband3        100
            nband4        100
         nbandkss1          0
         nbandkss2        100
         nbandkss3          0
         nbandkss4          0
           nbdbuf1          0
           nbdbuf2          5
           nbdbuf3          0
           nbdbuf4          0
           ndtset           4
            ngfft          15      15      15
             nkpt1          2
             nkpt2          6
             nkpt3          6
             nkpt4          6
           nkptgw1          0
           nkptgw2          0
           nkptgw3          0
           nkptgw4          1
           npweps1          0
           npweps2          0
           npweps3         65
           npweps4          0
          npwsigx1          0
          npwsigx2          0
          npwsigx3          0
          npwsigx4         27
           npwwfn1          0
           npwwfn2          0
           npwwfn3        137
           npwwfn4        137
           nsheps1          0
           nsheps2          0
           nsheps3          7
           nsheps4          0
          nshsigx1          0
          nshsigx2          0
          nshsigx3          0
          nshsigx4          4
            nstep         100
             nsym          48
           ntypat           1
              occ1     2.000000  2.000000  2.000000  2.000000  0.000000
              occ3     2.000000  2.000000  2.000000  2.000000  0.000000  0.000000
                       0.000000  0.000000  0.000000  0.000000  0.000000  0.000000
                       0.000000  0.000000  0.000000  0.000000  0.000000  0.000000
                       0.000000  0.000000  0.000000  0.000000  0.000000  0.000000
                       0.000000  0.000000  0.000000  0.000000  0.000000  0.000000
                       0.000000  0.000000  0.000000  0.000000  0.000000  0.000000
                       0.000000  0.000000  0.000000  0.000000  0.000000  0.000000
                       0.000000  0.000000  0.000000  0.000000  0.000000  0.000000
                       0.000000  0.000000  0.000000  0.000000  0.000000  0.000000
                       0.000000  0.000000  0.000000  0.000000  0.000000  0.000000
                       0.000000  0.000000  0.000000  0.000000  0.000000  0.000000
                       0.000000  0.000000  0.000000  0.000000  0.000000  0.000000
                       0.000000  0.000000  0.000000  0.000000  0.000000  0.000000
                       0.000000  0.000000  0.000000  0.000000  0.000000  0.000000
                       0.000000  0.000000  0.000000  0.000000  0.000000  0.000000
                       0.000000  0.000000  0.000000  0.000000  0.000000  0.000000
                       0.000000  0.000000  0.000000  0.000000
              occ4     2.000000  2.000000  2.000000  2.000000  0.000000  0.000000
                       0.000000  0.000000  0.000000  0.000000  0.000000  0.000000
                       0.000000  0.000000  0.000000  0.000000  0.000000  0.000000
                       0.000000  0.000000  0.000000  0.000000  0.000000  0.000000
                       0.000000  0.000000  0.000000  0.000000  0.000000  0.000000
                       0.000000  0.000000  0.000000  0.000000  0.000000  0.000000
                       0.000000  0.000000  0.000000  0.000000  0.000000  0.000000
                       0.000000  0.000000  0.000000  0.000000  0.000000  0.000000
                       0.000000  0.000000  0.000000  0.000000  0.000000  0.000000
                       0.000000  0.000000  0.000000  0.000000  0.000000  0.000000
                       0.000000  0.000000  0.000000  0.000000  0.000000  0.000000
                       0.000000  0.000000  0.000000  0.000000  0.000000  0.000000
                       0.000000  0.000000  0.000000  0.000000  0.000000  0.000000
                       0.000000  0.000000  0.000000  0.000000  0.000000  0.000000
                       0.000000  0.000000  0.000000  0.000000  0.000000  0.000000
                       0.000000  0.000000  0.000000  0.000000  0.000000  0.000000
                       0.000000  0.000000  0.000000  0.000000
        optdriver1          0
        optdriver2          0
        optdriver3          3
        optdriver4          4
        optforces           1
           ppmfrq1     0.00000000E+00 Hartree
           ppmfrq2     0.00000000E+00 Hartree
           ppmfrq3     6.13713734E-01 Hartree
           ppmfrq4     0.00000000E+00 Hartree
            rprim      0.0000000000E+00  5.0000000000E-01  5.0000000000E-01
                       5.0000000000E-01  0.0000000000E+00  5.0000000000E-01
                       5.0000000000E-01  5.0000000000E-01  0.0000000000E+00
           shiftk1     5.00000000E-01  5.00000000E-01  5.00000000E-01
           shiftk2     0.00000000E+00  0.00000000E+00  0.00000000E+00
           shiftk3     0.00000000E+00  0.00000000E+00  0.00000000E+00
           shiftk4     0.00000000E+00  0.00000000E+00  0.00000000E+00
          spgroup         227
           symrel      1  0  0   0  1  0   0  0  1      -1  0  0   0 -1  0   0  0 -1
                       0 -1  1   0 -1  0   1 -1  0       0  1 -1   0  1  0  -1  1  0
                      -1  0  0  -1  0  1  -1  1  0       1  0  0   1  0 -1   1 -1  0
                       0  1 -1   1  0 -1   0  0 -1       0 -1  1  -1  0  1   0  0  1
                      -1  0  0  -1  1  0  -1  0  1       1  0  0   1 -1  0   1  0 -1
                       0 -1  1   1 -1  0   0 -1  0       0  1 -1  -1  1  0   0  1  0
                       1  0  0   0  0  1   0  1  0      -1  0  0   0  0 -1   0 -1  0
                       0  1 -1   0  0 -1   1  0 -1       0 -1  1   0  0  1  -1  0  1
                      -1  0  1  -1  1  0  -1  0  0       1  0 -1   1 -1  0   1  0  0
                       0 -1  0   1 -1  0   0 -1  1       0  1  0  -1  1  0   0  1 -1
                       1  0 -1   0  0 -1   0  1 -1      -1  0  1   0  0  1   0 -1  1
                       0  1  0   0  0  1   1  0  0       0 -1  0   0  0 -1  -1  0  0
                       1  0 -1   0  1 -1   0  0 -1      -1  0  1   0 -1  1   0  0  1
                       0 -1  0   0 -1  1   1 -1  0       0  1  0   0  1 -1  -1  1  0
                      -1  0  1  -1  0  0  -1  1  0       1  0 -1   1  0  0   1 -1  0
                       0  1  0   1  0  0   0  0  1       0 -1  0  -1  0  0   0  0 -1
                       0  0 -1   0  1 -1   1  0 -1       0  0  1   0 -1  1  -1  0  1
                       1 -1  0   0 -1  1   0 -1  0      -1  1  0   0  1 -1   0  1  0
                       0  0  1   1  0  0   0  1  0       0  0 -1  -1  0  0   0 -1  0
                      -1  1  0  -1  0  0  -1  0  1       1 -1  0   1  0  0   1  0 -1
                       0  0  1   0  1  0   1  0  0       0  0 -1   0 -1  0  -1  0  0
                       1 -1  0   0 -1  0   0 -1  1      -1  1  0   0  1  0   0  1 -1
                       0  0 -1   1  0 -1   0  1 -1       0  0  1  -1  0  1   0 -1  1
                      -1  1  0  -1  0  1  -1  0  0       1 -1  0   1  0 -1   1  0  0
            tnons      0.0000000  0.0000000  0.0000000     0.2500000  0.2500000  0.2500000
                       0.0000000  0.0000000  0.0000000     0.2500000  0.2500000  0.2500000
                       0.0000000  0.0000000  0.0000000     0.2500000  0.2500000  0.2500000
                       0.0000000  0.0000000  0.0000000     0.2500000  0.2500000  0.2500000
                       0.0000000  0.0000000  0.0000000     0.2500000  0.2500000  0.2500000
                       0.0000000  0.0000000  0.0000000     0.2500000  0.2500000  0.2500000
                       0.0000000  0.0000000  0.0000000     0.2500000  0.2500000  0.2500000
                       0.0000000  0.0000000  0.0000000     0.2500000  0.2500000  0.2500000
                       0.0000000  0.0000000  0.0000000     0.2500000  0.2500000  0.2500000
                       0.0000000  0.0000000  0.0000000     0.2500000  0.2500000  0.2500000
                       0.0000000  0.0000000  0.0000000     0.2500000  0.2500000  0.2500000
                       0.0000000  0.0000000  0.0000000     0.2500000  0.2500000  0.2500000
                       0.0000000  0.0000000  0.0000000     0.2500000  0.2500000  0.2500000
                       0.0000000  0.0000000  0.0000000     0.2500000  0.2500000  0.2500000
                       0.0000000  0.0000000  0.0000000     0.2500000  0.2500000  0.2500000
                       0.0000000  0.0000000  0.0000000     0.2500000  0.2500000  0.2500000
                       0.0000000  0.0000000  0.0000000     0.2500000  0.2500000  0.2500000
                       0.0000000  0.0000000  0.0000000     0.2500000  0.2500000  0.2500000
                       0.0000000  0.0000000  0.0000000     0.2500000  0.2500000  0.2500000
                       0.0000000  0.0000000  0.0000000     0.2500000  0.2500000  0.2500000
                       0.0000000  0.0000000  0.0000000     0.2500000  0.2500000  0.2500000
                       0.0000000  0.0000000  0.0000000     0.2500000  0.2500000  0.2500000
                       0.0000000  0.0000000  0.0000000     0.2500000  0.2500000  0.2500000
                       0.0000000  0.0000000  0.0000000     0.2500000  0.2500000  0.2500000
           tolwfr      1.00000000E-18
            typat      1  1
              wtk1       0.75000    0.25000
              wtk2       0.18750    0.37500    0.09375    0.18750    0.12500    0.03125
              wtk3       0.18750    0.37500    0.09375    0.18750    0.12500    0.03125
              wtk4       0.18750    0.37500    0.09375    0.18750    0.12500    0.03125
           xangst      0.0000000000E+00  0.0000000000E+00  0.0000000000E+00
                       1.3575000000E+00  1.3575000000E+00  1.3575000000E+00
            xcart      0.0000000000E+00  0.0000000000E+00  0.0000000000E+00
                       2.5653032254E+00  2.5653032254E+00  2.5653032254E+00
             xred      0.0000000000E+00  0.0000000000E+00  0.0000000000E+00
                       2.5000000000E-01  2.5000000000E-01  2.5000000000E-01
            znucl       14.00000

================================================================================

 chkinp: Checking input parameters for consistency, jdtset=   1.

 chkinp: Checking input parameters for consistency, jdtset=   2.

 chkinp: Checking input parameters for consistency, jdtset=   3.

 chkinp: Checking input parameters for consistency, jdtset=   4.

================================================================================
== DATASET  1 ==================================================================
-   nproc =    4   -> not optimal: autoparal keyword recommended in input file

 Exchange-correlation functional for the present dataset will be:
  LDA: new Teter (4/93) with spin-polarized option - ixc=1
 Citation for XC functional:
  S. Goedecker, M. Teter, J. Huetter, PRB 54, 1703 (1996)

 Real(R)+Recip(G) space primitive vectors, cartesian coordinates (Bohr,Bohr^-1):
 R(1)=  0.0000000  5.1306065  5.1306065  G(1)= -0.0974544  0.0974544  0.0974544
 R(2)=  5.1306065  0.0000000  5.1306065  G(2)=  0.0974544 -0.0974544  0.0974544
 R(3)=  5.1306065  5.1306065  0.0000000  G(3)=  0.0974544  0.0974544 -0.0974544
 Unit cell volume ucvol=  2.7010716E+02 bohr^3
 Angles (23,13,12)=  6.00000000E+01  6.00000000E+01  6.00000000E+01 degrees

 getcut: wavevector=  0.0000  0.0000  0.0000  ngfft=  15  15  15
         ecut(hartree)=      4.500   => boxcut(ratio)=   2.03085

--- Pseudopotential description ------------------------------------------------
- pspini: atom type   1  psp file is /data/ABINIT/testf_gcc47/trunk_7.9.3-private/tests/Psps_for_tests/14si.pspnc
- pspatm: opening atomic psp file    /data/ABINIT/testf_gcc47/trunk_7.9.3-private/tests/Psps_for_tests/14si.pspnc
-  Troullier-Martins psp for element  Si        Thu Oct 27 17:31:21 EDT 1994
- 14.00000   4.00000    940714                znucl, zion, pspdat
    1    1    2    2      2001   0.00000      pspcod,pspxc,lmax,lloc,mmax,r2well
    0   5.907  14.692    1   2.0872718        l,e99.0,e99.9,nproj,rcpsp
   0.00000000   0.00000000   0.00000000   0.00000000     rms, ekb1, ekb2, epsatm
    1   2.617   4.181    1   2.0872718        l,e99.0,e99.9,nproj,rcpsp
   0.00000000   0.00000000   0.00000000   0.00000000     rms, ekb1, ekb2, epsatm
    2   0.000   0.000    0   2.0872718        l,e99.0,e99.9,nproj,rcpsp
   0.00000000   0.00000000   0.00000000   0.00000000     rms, ekb1, ekb2, epsatm
    1.80626423934776    0.22824404341771    1.17378968127746   rchrg,fchrg,qchrg
 pspatm: epsatm=    1.43386982
         --- l  ekb(1:nproj) -->
             0    3.287949
             1    1.849886
 pspatm: atomic psp has been read  and splines computed

   2.29419171E+01                                ecore*ucvol(ha*bohr**3)
--------------------------------------------------------------------------------

P newkpt: treating      5 bands with npw=     121 for ikpt=   1 by node    0
P newkpt: treating      5 bands with npw=     126 for ikpt=   2 by node    1

_setup2: Arith. and geom. avg. npw (full set) are     122.250     122.231

================================================================================

     iter   Etot(hartree)      deltaE(h)  residm     vres2    diffor    maxfor
 ETOT  1  -8.8355526593469    -8.836E+00 1.333E-03 2.272E+00 0.000E+00 0.000E+00
 ETOT  2  -8.8406720261490    -5.119E-03 2.987E-08 6.668E-02 0.000E+00 0.000E+00
 ETOT  3  -8.8407367385922    -6.471E-05 8.649E-07 1.620E-02 0.000E+00 0.000E+00
 ETOT  4  -8.8407477735246    -1.103E-05 2.435E-08 1.775E-03 2.132E-29 2.132E-29
 ETOT  5  -8.8407489871517    -1.214E-06 1.436E-08 1.663E-04 8.036E-29 5.904E-29
 ETOT  6  -8.8407491611907    -1.740E-07 9.448E-10 3.636E-06 7.216E-29 1.312E-29
 ETOT  7  -8.8407491644683    -3.278E-09 6.876E-11 7.889E-09 1.286E-29 9.738E-31
 ETOT  8  -8.8407491644756    -7.338E-12 3.662E-14 5.229E-10 9.738E-31 0.000E+00
 ETOT  9  -8.8407491644760    -4.192E-13 7.490E-15 1.757E-11 0.000E+00 0.000E+00
 ETOT 10  -8.8407491644761    -4.974E-14 2.663E-16 1.362E-12 0.000E+00 0.000E+00
 ETOT 11  -8.8407491644761    -1.421E-14 7.484E-18 7.621E-14 0.000E+00 0.000E+00
 ETOT 12  -8.8407491644761     2.665E-14 2.145E-18 5.722E-18 0.000E+00 0.000E+00
 ETOT 13  -8.8407491644761    -2.309E-14 4.747E-19 6.166E-19 0.000E+00 0.000E+00

 At SCF step   13   max residual=  4.75E-19 < tolwfr=  1.00E-18 =>converged.

 Cartesian components of stress tensor (hartree/bohr^3)
  sigma(1 1)=  1.92205809E-04  sigma(3 2)=  0.00000000E+00
  sigma(2 2)=  1.92205809E-04  sigma(3 1)=  0.00000000E+00
  sigma(3 3)=  1.92205809E-04  sigma(2 1)=  0.00000000E+00

================================================================================

 ----iterations are completed or convergence reached----

 Mean square residual over all n,k,spin=   1.8492E-19; max=  4.7471E-19
  -0.2500  0.5000  0.0000    1  4.74707E-19 kpt; spin; max resid(k); each band:
  2.15E-19 2.23E-20 1.27E-19 4.75E-19 8.55E-20
  -0.2500  0.0000  0.0000    1  4.24550E-19 kpt; spin; max resid(k); each band:
  6.28E-22 3.44E-21 4.25E-19 4.25E-19 7.12E-20
 reduced coordinates (array xred) for    2 atoms
       0.000000000000      0.000000000000      0.000000000000
       0.250000000000      0.250000000000      0.250000000000
 rms dE/dt=  0.0000E+00; max dE/dt=  0.0000E+00; dE/dt below (all hartree)
    1       0.000000000000      0.000000000000      0.000000000000
    2       0.000000000000      0.000000000000      0.000000000000

 cartesian coordinates (angstrom) at end:
    1      0.00000000000000     0.00000000000000     0.00000000000000
    2      1.35750000000000     1.35750000000000     1.35750000000000

 cartesian forces (hartree/bohr) at end:
    1     -0.00000000000000    -0.00000000000000    -0.00000000000000
    2     -0.00000000000000    -0.00000000000000    -0.00000000000000
 frms,max,avg= 0.0000000E+00 0.0000000E+00   0.000E+00  0.000E+00  0.000E+00 h/b

 cartesian forces (eV/Angstrom) at end:
    1     -0.00000000000000    -0.00000000000000    -0.00000000000000
    2     -0.00000000000000    -0.00000000000000    -0.00000000000000
 frms,max,avg= 0.0000000E+00 0.0000000E+00   0.000E+00  0.000E+00  0.000E+00 e/A
 length scales= 10.261212901569 10.261212901569 10.261212901569 bohr
              =  5.430000000000  5.430000000000  5.430000000000 angstroms
 prteigrs : about to open file t72_MPI4o_DS1_EIG
 Fermi (or HOMO) energy (hartree) =   0.18651   Average Vxc (hartree)=  -0.35249
 Eigenvalues (hartree) for nkpt=   2  k points:
 kpt#   1, nband=  5, wtk=  0.75000, kpt= -0.2500  0.5000  0.0000 (reduced coord)
  -0.12210  -0.01848   0.08280   0.13185   0.27091
 kpt#   2, nband=  5, wtk=  0.25000, kpt= -0.2500  0.0000  0.0000 (reduced coord)
  -0.19251   0.07004   0.18651   0.18651   0.28765
 Total charge density [el/Bohr^3]
,     Maximum=    8.7383E-02  at reduced coord.    0.1333    0.1333    0.6000
,Next maximum=    8.7383E-02  at reduced coord.    0.1333    0.6000    0.1333
,     Minimum=    3.3145E-03  at reduced coord.    0.7333    0.7333    0.7333
,Next minimum=    3.3145E-03  at reduced coord.    0.8000    0.7333    0.7333
,  Integrated=    8.0000E+00

--------------------------------------------------------------------------------
 Components of total free energy (in Hartree) :

    Kinetic energy  =  2.97611299286574E+00
    Hartree energy  =  5.44220019356806E-01
    XC energy       = -3.53304750760283E+00
    Ewald energy    = -8.39947182979608E+00
    PspCore energy  =  8.49363517011973E-02
    Loc. psp. energy= -2.50594628298639E+00
    NL   psp  energy=  1.99244709198547E+00
    >>>>>>>>> Etotal= -8.84074916447609E+00

 Other information on the energy :
    Total energy(eV)= -2.40569019124533E+02 ; Band energy (Ha)=   2.3639468474E-01
--------------------------------------------------------------------------------

 Cartesian components of stress tensor (hartree/bohr^3)
  sigma(1 1)=  1.92205809E-04  sigma(3 2)=  0.00000000E+00
  sigma(2 2)=  1.92205809E-04  sigma(3 1)=  0.00000000E+00
  sigma(3 3)=  1.92205809E-04  sigma(2 1)=  0.00000000E+00

-Cartesian components of stress tensor (GPa)         [Pressure= -5.6549E+00 GPa]
- sigma(1 1)=  5.65488918E+00  sigma(3 2)=  0.00000000E+00
- sigma(2 2)=  5.65488918E+00  sigma(3 1)=  0.00000000E+00
- sigma(3 3)=  5.65488918E+00  sigma(2 1)=  0.00000000E+00

================================================================================
== DATASET  2 ==================================================================
-   nproc =    4

 mkfilename : getden/=0, take file _DEN from output of DATASET   1.

 Exchange-correlation functional for the present dataset will be:
  LDA: new Teter (4/93) with spin-polarized option - ixc=1
 Citation for XC functional:
  S. Goedecker, M. Teter, J. Huetter, PRB 54, 1703 (1996)

 Real(R)+Recip(G) space primitive vectors, cartesian coordinates (Bohr,Bohr^-1):
 R(1)=  0.0000000  5.1306065  5.1306065  G(1)= -0.0974544  0.0974544  0.0974544
 R(2)=  5.1306065  0.0000000  5.1306065  G(2)=  0.0974544 -0.0974544  0.0974544
 R(3)=  5.1306065  5.1306065  0.0000000  G(3)=  0.0974544  0.0974544 -0.0974544
 Unit cell volume ucvol=  2.7010716E+02 bohr^3
 Angles (23,13,12)=  6.00000000E+01  6.00000000E+01  6.00000000E+01 degrees

 getcut: wavevector=  0.0000  0.0000  0.0000  ngfft=  15  15  15
         ecut(hartree)=      4.500   => boxcut(ratio)=   2.03085
--------------------------------------------------------------------------------

P newkpt: treating    105 bands with npw=     125 for ikpt=   1 by node    0
P newkpt: treating    105 bands with npw=     125 for ikpt=   2 by node    0
P newkpt: treating    105 bands with npw=     116 for ikpt=   3 by node    1
P newkpt: treating    105 bands with npw=     116 for ikpt=   4 by node    1
P newkpt: treating    105 bands with npw=     120 for ikpt=   5 by node    2
P newkpt: treating    105 bands with npw=     137 for ikpt=   6 by node    2


================================================================================
 prteigrs : about to open file t72_MPI4o_DS2_EIG
 Non-SCF case, kpt    1 ( -0.25000 -0.25000  0.00000), residuals and eigenvalues=
  1.19E-22  1.09E-21  8.36E-22  5.70E-22  1.39E-21  3.52E-22  2.14E-22  1.17E-21
  1.16E-21  1.62E-21  5.66E-22  2.10E-21  4.57E-21  3.34E-22  6.76E-21  3.94E-21
  2.26E-21  3.52E-21  6.23E-21  1.68E-20  1.16E-20  8.30E-21  9.28E-21  4.73E-20
  1.78E-20  3.69E-21  3.08E-20  7.11E-20  1.80E-20  1.12E-19  1.07E-19  6.78E-20
  1.81E-19  9.64E-20  1.21E-19  3.79E-19  9.37E-20  2.75E-20  3.82E-19  1.20E-19
  1.61E-19  8.54E-19  8.50E-19  6.16E-19  8.30E-19  1.18E-21  5.47E-19  1.80E-21
  1.60E-21  1.29E-21  1.03E-21  8.48E-22  6.62E-21  7.05E-21  4.67E-21  2.44E-20
  7.58E-20  1.05E-19  1.20E-19  2.52E-19  1.24E-19  4.91E-20  5.37E-20  1.99E-19
  5.77E-19  8.54E-21  1.14E-19  9.79E-19  9.05E-21  6.58E-21  1.24E-20  2.35E-20
  1.30E-20  4.05E-20  8.53E-21  7.17E-20  1.47E-20  6.57E-19  4.90E-19  3.55E-20
  3.39E-19  8.62E-19  9.13E-19  3.81E-19  4.32E-19  2.56E-20  4.03E-19  6.93E-21
  1.05E-19  1.92E-19  5.47E-19  2.01E-20  7.51E-19  1.31E-19  1.64E-19  1.74E-19
  4.89E-20  8.20E-19  8.90E-20  8.18E-19  3.04E-19  3.41E-19  4.10E-19  9.79E-20
  9.28E-20
 -1.8292E-01  8.7431E-02  1.4373E-01  1.4373E-01  2.5496E-01  3.3073E-01
  4.2837E-01  4.2837E-01  5.0718E-01  5.6130E-01  6.2288E-01  7.0075E-01
  7.0075E-01  7.2516E-01  8.6345E-01  8.6345E-01  9.2146E-01  9.6078E-01
  1.0007E+00  1.1660E+00  1.2221E+00  1.2413E+00  1.2413E+00  1.3108E+00
  1.3108E+00  1.3317E+00  1.3505E+00  1.5049E+00  1.5643E+00  1.5646E+00
  1.5646E+00  1.5944E+00  1.5944E+00  1.6348E+00  1.6745E+00  1.6847E+00
  1.7206E+00  1.7206E+00  1.7441E+00  1.8312E+00  1.8312E+00  1.8400E+00
  1.8878E+00  1.9701E+00  1.9701E+00  1.9779E+00  2.0482E+00  2.0650E+00
  2.0983E+00  2.1048E+00  2.1048E+00  2.1086E+00  2.3230E+00  2.3524E+00
  2.3634E+00  2.3634E+00  2.5230E+00  2.5318E+00  2.5318E+00  2.5439E+00
  2.5597E+00  2.5737E+00  2.5737E+00  2.6023E+00  2.7247E+00  2.7628E+00
  2.7628E+00  2.7638E+00  2.7766E+00  2.8464E+00  2.8616E+00  2.8618E+00
  2.8618E+00  2.9359E+00  2.9359E+00  2.9864E+00  3.0134E+00  3.0551E+00
  3.1018E+00  3.1018E+00  3.2010E+00  3.2139E+00  3.2431E+00  3.2431E+00
  3.3362E+00  3.3504E+00  3.4165E+00  3.4165E+00  3.4939E+00  3.5222E+00
  3.5222E+00  3.5244E+00  3.5489E+00  3.5863E+00  3.5863E+00  3.5885E+00
  3.6094E+00  3.6923E+00  3.6923E+00  3.7077E+00  3.7285E+00  3.7465E+00
  3.7473E+00  3.7473E+00  3.7493E+00
 Non-SCF case, kpt    2 ( -0.25000  0.25000  0.00000), residuals and eigenvalues=
  2.75E-19  2.68E-22  1.31E-19  1.07E-19  7.07E-19  4.28E-19  1.91E-22  2.66E-22
  4.90E-19  4.48E-19  1.14E-21  5.26E-19  8.55E-22  2.64E-19  1.12E-21  7.04E-19
  4.68E-22  8.34E-22  8.93E-22  1.08E-19  3.20E-21  6.91E-22  1.66E-21  2.80E-21
  5.21E-21  1.42E-21  9.43E-21  3.01E-21  5.69E-20  3.54E-20  4.18E-21  1.59E-20
  2.15E-20  1.67E-20  3.02E-21  1.89E-20  3.15E-20  4.70E-20  2.37E-19  2.62E-19
  1.87E-21  1.76E-19  1.95E-21  4.09E-19  1.27E-19  1.24E-19  6.02E-19  2.29E-19
  6.49E-19  4.35E-19  8.93E-20  5.78E-19  4.44E-21  8.05E-19  3.16E-19  2.32E-19
  6.22E-19  1.06E-20  8.19E-19  5.19E-21  2.83E-21  3.39E-21  7.94E-21  1.30E-20
  3.71E-21  2.18E-20  4.06E-21  5.18E-20  6.22E-20  8.15E-20  7.90E-21  1.64E-20
  4.23E-19  5.74E-19  3.20E-19  8.13E-20  6.58E-19  5.43E-19  1.63E-20  7.48E-20
  1.19E-20  3.79E-21  1.23E-20  3.78E-19  1.00E-20  8.37E-20  6.51E-21  4.35E-19
  2.06E-19  2.73E-20  1.31E-19  7.88E-19  2.91E-19  1.72E-19  6.21E-19  1.35E-19
  3.38E-19  9.67E-19  3.62E-19  2.42E-19  4.21E-19  1.02E-15  9.78E-16  7.20E-15
  1.80E-14
 -1.4735E-01  1.4682E-02  7.4040E-02  1.6485E-01  3.0492E-01  3.9099E-01
  4.0636E-01  4.3648E-01  4.6398E-01  5.7037E-01  6.7632E-01  7.0793E-01
  7.1284E-01  8.3196E-01  8.6371E-01  8.8346E-01  9.1627E-01  1.0151E+00
  1.0262E+00  1.1189E+00  1.1200E+00  1.1766E+00  1.2039E+00  1.2155E+00
  1.2529E+00  1.2916E+00  1.3629E+00  1.3720E+00  1.5179E+00  1.5210E+00
  1.5438E+00  1.5869E+00  1.5952E+00  1.6209E+00  1.6257E+00  1.6358E+00
  1.6680E+00  1.7653E+00  1.8578E+00  1.8585E+00  1.9025E+00  1.9348E+00
  2.0326E+00  2.0576E+00  2.0965E+00  2.1074E+00  2.1100E+00  2.1437E+00
  2.1443E+00  2.1534E+00  2.2108E+00  2.2801E+00  2.2848E+00  2.3209E+00
  2.3465E+00  2.3559E+00  2.3852E+00  2.4519E+00  2.4855E+00  2.5241E+00
  2.5269E+00  2.5621E+00  2.6161E+00  2.6166E+00  2.6234E+00  2.6740E+00
  2.7165E+00  2.7786E+00  2.8077E+00  2.8144E+00  2.8351E+00  2.8876E+00
  2.9021E+00  2.9193E+00  2.9355E+00  2.9898E+00  3.0113E+00  3.0421E+00
  3.0433E+00  3.0574E+00  3.1007E+00  3.1329E+00  3.1471E+00  3.2196E+00
  3.2627E+00  3.2665E+00  3.2728E+00  3.3328E+00  3.3346E+00  3.3476E+00
  3.4034E+00  3.4537E+00  3.4618E+00  3.5467E+00  3.5760E+00  3.6031E+00
  3.6336E+00  3.6763E+00  3.6873E+00  3.6883E+00  3.7024E+00  3.7948E+00
  3.8064E+00  3.8099E+00  3.8202E+00
  prteigrs : nnsclo,ikpt=  100    2 max resid (incl. the buffer)=  1.79946E-14
 Non-SCF case, kpt    3 (  0.50000  0.50000  0.00000), residuals and eigenvalues=
  1.05E-19  1.07E-19  2.62E-20  5.98E-20  2.49E-19  1.02E-19  3.21E-19  3.37E-19
  7.70E-19  2.75E-22  1.04E-19  1.11E-19  5.01E-19  9.54E-20  1.37E-22  2.86E-22
  3.43E-19  4.02E-19  2.03E-19  2.44E-19  7.64E-19  4.15E-22  2.53E-22  1.71E-21
  1.25E-19  3.04E-19  9.84E-23  1.29E-22  5.04E-22  6.45E-22  2.61E-19  2.00E-19
  1.19E-22  1.57E-22  2.41E-22  1.10E-22  3.64E-22  4.25E-22  3.53E-22  5.18E-22
  4.17E-22  4.78E-22  1.12E-21  5.09E-22  6.75E-22  1.65E-21  1.32E-21  2.08E-21
  1.80E-19  4.11E-19  1.20E-20  2.08E-20  3.11E-20  8.04E-20  5.08E-20  3.30E-20
  4.43E-21  9.97E-21  3.79E-20  1.92E-20  2.61E-20  6.21E-21  1.25E-20  1.40E-20
  4.16E-19  5.27E-21  3.71E-20  1.97E-19  2.54E-19  8.12E-21  5.51E-20  7.12E-20
  3.19E-20  2.11E-20  6.13E-21  5.25E-19  1.03E-20  1.40E-20  7.55E-20  1.90E-19
  1.55E-20  1.94E-20  4.69E-20  2.82E-19  7.44E-20  5.75E-20  3.76E-20  6.77E-19
  1.07E-19  3.67E-20  6.44E-19  3.07E-20  3.36E-21  1.06E-19  2.36E-19  6.55E-19
  7.40E-20  4.89E-21  2.69E-19  9.91E-20  5.47E-19  1.36E-19  8.85E-16  2.42E-16
  2.29E-19
 -6.9973E-02 -6.9973E-02  1.0760E-01  1.0760E-01  2.4101E-01  2.4101E-01
  5.8260E-01  5.8260E-01  6.4869E-01  6.4869E-01  6.8125E-01  6.8125E-01
  7.0118E-01  7.0118E-01  9.2961E-01  9.2961E-01  9.4223E-01  9.4223E-01
  9.6579E-01  9.6579E-01  9.8893E-01  9.8893E-01  1.2100E+00  1.2100E+00
  1.3181E+00  1.3181E+00  1.4652E+00  1.4652E+00  1.4869E+00  1.4869E+00
  1.5754E+00  1.5754E+00  1.5935E+00  1.5935E+00  1.6740E+00  1.6740E+00
  1.7422E+00  1.7422E+00  1.7526E+00  1.7526E+00  1.9523E+00  1.9523E+00
  2.0874E+00  2.0874E+00  2.1156E+00  2.1156E+00  2.1298E+00  2.1298E+00
  2.3254E+00  2.3254E+00  2.3458E+00  2.3458E+00  2.3605E+00  2.3605E+00
  2.3675E+00  2.3675E+00  2.3904E+00  2.3904E+00  2.4429E+00  2.4429E+00
  2.4695E+00  2.4695E+00  2.4794E+00  2.4794E+00  2.8557E+00  2.8557E+00
  2.8619E+00  2.8619E+00  2.8950E+00  2.8950E+00  2.9236E+00  2.9236E+00
  2.9654E+00  2.9654E+00  2.9716E+00  2.9716E+00  3.0100E+00  3.0100E+00
  3.0276E+00  3.0276E+00  3.0481E+00  3.0481E+00  3.0539E+00  3.0539E+00
  3.1626E+00  3.1626E+00  3.1821E+00  3.1821E+00  3.2372E+00  3.2372E+00
  3.2378E+00  3.2378E+00  3.4559E+00  3.4559E+00  3.5721E+00  3.5721E+00
  3.6448E+00  3.6448E+00  3.6470E+00  3.6470E+00  3.7067E+00  3.7067E+00
  3.7334E+00  3.7334E+00  3.7445E+00
  prteigrs : nnsclo,ikpt=  100    3 max resid (incl. the buffer)=  8.84661E-16
 Non-SCF case, kpt    4 ( -0.25000  0.50000  0.25000), residuals and eigenvalues=
  7.79E-21  2.52E-20  1.21E-21  4.39E-22  1.02E-19  1.68E-19  1.55E-20  3.45E-20
  2.27E-20  2.74E-20  3.62E-19  7.21E-20  4.57E-20  9.30E-20  4.94E-20  1.33E-19
  1.12E-20  2.86E-20  2.83E-19  1.81E-19  3.82E-19  2.47E-19  3.02E-19  2.02E-19
  6.25E-19  2.01E-19  4.44E-20  7.22E-21  3.77E-19  8.48E-23  5.19E-22  8.92E-19
  1.48E-21  2.89E-21  3.43E-21  8.09E-21  5.45E-20  2.96E-20  6.10E-20  1.47E-20
  2.33E-19  6.68E-20  8.20E-20  5.73E-20  2.13E-20  1.57E-20  2.18E-19  1.12E-19
  9.35E-19  4.66E-19  9.62E-19  2.92E-21  2.53E-21  1.57E-21  4.73E-19  7.28E-19
  1.01E-20  5.32E-21  6.87E-19  5.24E-21  6.45E-19  8.26E-19  3.30E-21  1.87E-20
  6.69E-21  9.66E-19  2.34E-20  3.01E-20  1.65E-19  8.97E-20  1.36E-19  4.67E-19
  2.87E-20  2.51E-20  3.20E-20  8.68E-20  9.05E-19  2.35E-20  4.97E-19  1.16E-20
  1.94E-20  5.55E-20  3.55E-19  1.71E-20  2.68E-20  1.61E-20  1.09E-19  1.17E-20
  6.67E-19  5.84E-19  4.86E-19  7.25E-21  1.79E-20  2.93E-20  2.73E-19  3.13E-19
  2.54E-20  2.64E-20  4.85E-20  3.94E-20  7.15E-19  4.05E-19  4.92E-20  3.38E-19
  5.15E-19
 -6.2779E-02 -6.2779E-02  7.0022E-02  7.0022E-02  3.7433E-01  3.7433E-01
  3.9951E-01  3.9951E-01  6.1496E-01  6.1496E-01  7.0084E-01  7.0084E-01
  8.2979E-01  8.2979E-01  8.9102E-01  8.9102E-01  9.3121E-01  9.3121E-01
  9.8257E-01  9.8257E-01  1.0998E+00  1.0998E+00  1.2383E+00  1.2383E+00
  1.2412E+00  1.2412E+00  1.2664E+00  1.2664E+00  1.4821E+00  1.4821E+00
  1.5678E+00  1.5678E+00  1.6365E+00  1.6365E+00  1.7327E+00  1.7327E+00
  1.8391E+00  1.8391E+00  1.8786E+00  1.8786E+00  1.9675E+00  1.9675E+00
  1.9772E+00  1.9772E+00  2.0560E+00  2.0560E+00  2.0955E+00  2.0955E+00
  2.2745E+00  2.2745E+00  2.3013E+00  2.3013E+00  2.3243E+00  2.3243E+00
  2.3393E+00  2.3393E+00  2.4797E+00  2.4797E+00  2.5087E+00  2.5087E+00
  2.5684E+00  2.5684E+00  2.6181E+00  2.6181E+00  2.6201E+00  2.6201E+00
  2.6348E+00  2.6348E+00  2.9257E+00  2.9257E+00  2.9296E+00  2.9296E+00
  2.9671E+00  2.9671E+00  3.0005E+00  3.0005E+00  3.0289E+00  3.0289E+00
  3.0516E+00  3.0516E+00  3.0638E+00  3.0638E+00  3.0639E+00  3.0639E+00
  3.2718E+00  3.2718E+00  3.2803E+00  3.2803E+00  3.2873E+00  3.2873E+00
  3.3179E+00  3.3179E+00  3.4798E+00  3.4798E+00  3.5058E+00  3.5058E+00
  3.5140E+00  3.5140E+00  3.5173E+00  3.5173E+00  3.6379E+00  3.6379E+00
  3.6637E+00  3.6637E+00  3.7634E+00
 Non-SCF case, kpt    5 (  0.50000  0.00000  0.00000), residuals and eigenvalues=
  6.34E-20  3.11E-20  1.17E-19  1.02E-19  6.23E-20  5.07E-19  7.10E-20  1.38E-19
  1.52E-19  5.58E-22  1.17E-19  3.08E-19  5.34E-19  9.75E-20  6.54E-19  1.69E-19
  7.63E-19  8.85E-19  2.99E-19  1.57E-22  8.18E-23  1.90E-22  3.66E-22  2.43E-22
  2.10E-22  2.16E-19  3.29E-22  3.34E-22  5.06E-22  7.47E-22  4.60E-22  1.45E-21
  1.11E-22  2.31E-22  2.23E-20  9.80E-21  2.13E-20  1.88E-20  1.99E-20  6.13E-21
  9.04E-20  2.63E-19  2.41E-19  2.55E-19  6.15E-20  1.33E-19  7.17E-20  1.15E-19
  3.43E-19  2.27E-19  3.18E-19  1.13E-19  6.67E-19  2.02E-22  1.04E-21  6.37E-21
  1.92E-21  2.91E-20  1.20E-21  4.84E-22  3.41E-22  7.15E-22  1.21E-21  5.93E-19
  6.19E-20  1.23E-20  3.53E-21  3.11E-22  5.25E-20  2.18E-21  2.10E-20  1.23E-20
  8.78E-21  2.11E-20  1.20E-19  9.66E-20  1.23E-19  2.76E-19  4.05E-19  1.72E-20
  6.21E-19  8.04E-19  3.48E-19  6.79E-19  1.87E-19  1.16E-19  4.65E-19  2.04E-20
  1.20E-19  4.41E-19  3.31E-20  1.68E-19  4.24E-20  1.72E-19  7.80E-19  5.95E-19
  1.78E-19  5.07E-20  7.08E-20  3.53E-19  1.92E-19  3.63E-18  3.15E-14  6.57E-10
  1.47E-08
 -1.3502E-01 -4.2564E-02  1.6976E-01  1.6976E-01  2.7398E-01  3.3882E-01
  3.3882E-01  4.9122E-01  6.2506E-01  6.3003E-01  6.3003E-01  6.3638E-01
  6.3638E-01  6.7692E-01  9.4871E-01  9.4939E-01  1.0327E+00  1.0327E+00
  1.0458E+00  1.0458E+00  1.1781E+00  1.2268E+00  1.2268E+00  1.2364E+00
  1.2364E+00  1.2425E+00  1.3686E+00  1.4223E+00  1.4223E+00  1.4368E+00
  1.4527E+00  1.4527E+00  1.5334E+00  1.5567E+00  1.7458E+00  1.7458E+00
  1.7877E+00  1.7877E+00  1.7990E+00  1.8044E+00  1.9860E+00  2.0242E+00
  2.0242E+00  2.0554E+00  2.0554E+00  2.0836E+00  2.1876E+00  2.1876E+00
  2.1999E+00  2.1999E+00  2.2081E+00  2.2378E+00  2.3295E+00  2.3295E+00
  2.4052E+00  2.4052E+00  2.4207E+00  2.4434E+00  2.4701E+00  2.4701E+00
  2.5203E+00  2.5203E+00  2.5930E+00  2.6101E+00  2.6324E+00  2.6682E+00
  2.6839E+00  2.6839E+00  2.7069E+00  2.7069E+00  2.7763E+00  2.7947E+00
  2.9196E+00  2.9196E+00  2.9288E+00  2.9288E+00  2.9940E+00  3.0307E+00
  3.0307E+00  3.0954E+00  3.1162E+00  3.1162E+00  3.2643E+00  3.3383E+00
  3.3456E+00  3.3456E+00  3.3521E+00  3.3521E+00  3.3538E+00  3.3838E+00
  3.5644E+00  3.5778E+00  3.5778E+00  3.6111E+00  3.6111E+00  3.6119E+00
  3.6119E+00  3.6407E+00  3.6421E+00  3.6716E+00  3.6716E+00  3.6834E+00
  3.7002E+00  3.7052E+00  3.7052E+00
  prteigrs : nnsclo,ikpt=  100    5 max resid (incl. the buffer)=  1.47151E-08
 Non-SCF case, kpt    6 (  0.00000  0.00000  0.00000), residuals and eigenvalues=
  2.43E-21  6.15E-21  1.20E-20  1.60E-20  2.11E-20  1.90E-20  1.61E-20  7.06E-20
  1.06E-21  1.66E-19  2.04E-19  3.72E-20  9.91E-21  5.92E-21  4.83E-21  2.97E-20
  4.24E-20  6.00E-20  6.26E-20  6.17E-20  1.46E-20  1.78E-20  4.85E-20  6.70E-21
  1.53E-20  1.66E-20  9.13E-21  5.46E-19  9.66E-19  6.28E-19  1.39E-21  1.59E-21
  1.27E-19  4.02E-19  2.86E-19  1.13E-20  5.62E-21  3.10E-19  5.70E-20  3.25E-20
  3.39E-20  2.49E-21  4.38E-19  7.81E-19  6.48E-19  4.04E-19  2.71E-19  4.53E-19
  1.07E-19  2.20E-20  5.84E-19  4.02E-21  1.77E-20  5.08E-21  7.84E-19  6.67E-19
  3.24E-21  4.33E-21  2.27E-20  7.82E-20  3.37E-20  1.50E-19  1.65E-19  8.45E-20
  3.99E-20  7.50E-21  3.62E-19  1.66E-20  3.86E-20  6.07E-20  3.43E-19  2.61E-19
  6.45E-20  6.53E-19  1.70E-19  2.04E-19  3.99E-19  5.12E-19  5.33E-19  4.92E-19
  7.37E-19  2.36E-19  4.74E-19  1.58E-19  1.31E-19  2.04E-19  3.06E-19  1.76E-19
  9.35E-19  7.54E-19  7.17E-19  7.48E-19  3.78E-19  5.13E-20  5.64E-19  2.14E-19
  9.12E-19  6.72E-19  8.76E-19  5.79E-19  3.63E-19  4.59E-14  1.11E-13  5.36E-14
  5.99E-09
 -2.2427E-01  2.1492E-01  2.1492E-01  2.1492E-01  3.0780E-01  3.0780E-01
  3.0780E-01  3.3288E-01  4.9511E-01  5.1595E-01  5.1595E-01  6.2596E-01
  6.2596E-01  6.2596E-01  7.6435E-01  1.1006E+00  1.1006E+00  1.1006E+00
  1.1517E+00  1.1517E+00  1.1517E+00  1.1631E+00  1.1631E+00  1.2990E+00
  1.2990E+00  1.2990E+00  1.5081E+00  1.5729E+00  1.5729E+00  1.5729E+00
  1.7097E+00  1.7097E+00  1.7351E+00  1.7351E+00  1.7351E+00  1.7502E+00
  1.7502E+00  1.8217E+00  1.8338E+00  1.8338E+00  1.8338E+00  1.8749E+00
  1.8749E+00  1.8749E+00  1.8786E+00  1.8786E+00  1.8786E+00  1.9237E+00
  1.9237E+00  1.9237E+00  1.9252E+00  2.1090E+00  2.1090E+00  2.1090E+00
  2.1105E+00  2.1105E+00  2.1105E+00  2.1170E+00  2.1408E+00  2.7508E+00
  2.7508E+00  2.8089E+00  2.8113E+00  2.8113E+00  2.8113E+00  2.9639E+00
  2.9806E+00  2.9806E+00  2.9806E+00  3.0248E+00  3.0248E+00  3.0248E+00
  3.0580E+00  3.0580E+00  3.1208E+00  3.1261E+00  3.1261E+00  3.1261E+00
  3.2782E+00  3.2782E+00  3.2782E+00  3.3080E+00  3.3080E+00  3.3080E+00
  3.3236E+00  3.3236E+00  3.3236E+00  3.3277E+00  3.3277E+00  3.4744E+00
  3.4744E+00  3.5024E+00  3.5024E+00  3.5024E+00  3.5400E+00  3.5654E+00
  3.5654E+00  3.5654E+00  3.5970E+00  3.5970E+00  3.5970E+00  3.6209E+00
  3.6209E+00  3.6209E+00  3.6326E+00
  prteigrs : nnsclo,ikpt=  100    6 max resid (incl. the buffer)=  5.99229E-09

======================================================================
 Calculating and writing out Kohn-Sham electronic Structure file
 Using conjugate gradient wavefunctions and energies (kssform=3)
 number of Gamma centered plane waves    229
 number of Gamma centered shells     14
 number of bands    100
 maximum angular momentum components      3
 Conjugate gradient eigenvalues
   k    eigenvalues [Hartree]
   1     -0.1829  0.0874  0.1437  0.1437  0.2550  0.3307  0.4284  0.4284  0.5072
          0.5613  0.6229  0.7007  0.7007  0.7252  0.8635  0.8635  0.9215  0.9608
          1.0007  1.1660  1.2221  1.2413  1.2413  1.3108  1.3108  1.3317  1.3505
          1.5049  1.5643  1.5646  1.5646  1.5944  1.5944  1.6348  1.6745  1.6847
          1.7206  1.7206  1.7441  1.8312  1.8312  1.8400  1.8878  1.9701  1.9701
          1.9779  2.0482  2.0650  2.0983  2.1048  2.1048  2.1086  2.3230  2.3524
          2.3634  2.3634  2.5230  2.5318  2.5318  2.5439  2.5597  2.5737  2.5737
          2.6023  2.7247  2.7628  2.7628  2.7638  2.7766  2.8464  2.8616  2.8618
          2.8618  2.9359  2.9359  2.9864  3.0134  3.0551  3.1018  3.1018  3.2010
          3.2139  3.2431  3.2431  3.3362  3.3504  3.4165  3.4165  3.4939  3.5222
          3.5222  3.5244  3.5489  3.5863  3.5863  3.5885  3.6094  3.6923  3.6923
          3.7077
   2     -0.1473  0.0147  0.0740  0.1649  0.3049  0.3910  0.4064  0.4365  0.4640
          0.5704  0.6763  0.7079  0.7128  0.8320  0.8637  0.8835  0.9163  1.0151
          1.0262  1.1189  1.1200  1.1766  1.2039  1.2155  1.2529  1.2916  1.3629
          1.3720  1.5179  1.5210  1.5438  1.5869  1.5952  1.6209  1.6257  1.6358
          1.6680  1.7653  1.8578  1.8585  1.9025  1.9348  2.0326  2.0576  2.0965
          2.1074  2.1100  2.1437  2.1443  2.1534  2.2108  2.2801  2.2848  2.3209
          2.3465  2.3559  2.3852  2.4519  2.4855  2.5241  2.5269  2.5621  2.6161
          2.6166  2.6234  2.6740  2.7165  2.7786  2.8077  2.8144  2.8351  2.8876
          2.9021  2.9193  2.9355  2.9898  3.0113  3.0421  3.0433  3.0574  3.1007
          3.1329  3.1471  3.2196  3.2627  3.2665  3.2728  3.3328  3.3346  3.3476
          3.4034  3.4537  3.4618  3.5467  3.5760  3.6031  3.6336  3.6763  3.6873
          3.6883
   3     -0.0700 -0.0700  0.1076  0.1076  0.2410  0.2410  0.5826  0.5826  0.6487
          0.6487  0.6812  0.6812  0.7012  0.7012  0.9296  0.9296  0.9422  0.9422
          0.9658  0.9658  0.9889  0.9889  1.2100  1.2100  1.3181  1.3181  1.4652
          1.4652  1.4869  1.4869  1.5754  1.5754  1.5935  1.5935  1.6740  1.6740
          1.7422  1.7422  1.7526  1.7526  1.9523  1.9523  2.0874  2.0874  2.1156
          2.1156  2.1298  2.1298  2.3254  2.3254  2.3458  2.3458  2.3605  2.3605
          2.3675  2.3675  2.3904  2.3904  2.4429  2.4429  2.4695  2.4695  2.4794
          2.4794  2.8557  2.8557  2.8619  2.8619  2.8950  2.8950  2.9236  2.9236
          2.9654  2.9654  2.9716  2.9716  3.0100  3.0100  3.0276  3.0276  3.0481
          3.0481  3.0539  3.0539  3.1626  3.1626  3.1821  3.1821  3.2372  3.2372
          3.2378  3.2378  3.4559  3.4559  3.5721  3.5721  3.6448  3.6448  3.6470
          3.6470
   4     -0.0628 -0.0628  0.0700  0.0700  0.3743  0.3743  0.3995  0.3995  0.6150
          0.6150  0.7008  0.7008  0.8298  0.8298  0.8910  0.8910  0.9312  0.9312
          0.9826  0.9826  1.0998  1.0998  1.2383  1.2383  1.2412  1.2412  1.2664
          1.2664  1.4821  1.4821  1.5678  1.5678  1.6365  1.6365  1.7327  1.7327
          1.8391  1.8391  1.8786  1.8786  1.9675  1.9675  1.9772  1.9772  2.0560
          2.0560  2.0955  2.0955  2.2745  2.2745  2.3013  2.3013  2.3243  2.3243
          2.3393  2.3393  2.4797  2.4797  2.5087  2.5087  2.5684  2.5684  2.6181
          2.6181  2.6201  2.6201  2.6348  2.6348  2.9257  2.9257  2.9296  2.9296
          2.9671  2.9671  3.0005  3.0005  3.0289  3.0289  3.0516  3.0516  3.0638
          3.0638  3.0639  3.0639  3.2718  3.2718  3.2803  3.2803  3.2873  3.2873
          3.3179  3.3179  3.4798  3.4798  3.5058  3.5058  3.5140  3.5140  3.5173
          3.5173
   5     -0.1350 -0.0426  0.1698  0.1698  0.2740  0.3388  0.3388  0.4912  0.6251
          0.6300  0.6300  0.6364  0.6364  0.6769  0.9487  0.9494  1.0327  1.0327
          1.0458  1.0458  1.1781  1.2268  1.2268  1.2364  1.2364  1.2425  1.3686
          1.4223  1.4223  1.4368  1.4527  1.4527  1.5334  1.5567  1.7458  1.7458
          1.7877  1.7877  1.7990  1.8044  1.9860  2.0242  2.0242  2.0554  2.0554
          2.0836  2.1876  2.1876  2.1999  2.1999  2.2081  2.2378  2.3295  2.3295
          2.4052  2.4052  2.4207  2.4434  2.4701  2.4701  2.5203  2.5203  2.5930
          2.6101  2.6324  2.6682  2.6839  2.6839  2.7069  2.7069  2.7763  2.7947
          2.9196  2.9196  2.9288  2.9288  2.9940  3.0307  3.0307  3.0954  3.1162
          3.1162  3.2643  3.3383  3.3456  3.3456  3.3521  3.3521  3.3538  3.3838
          3.5644  3.5778  3.5778  3.6111  3.6111  3.6119  3.6119  3.6407  3.6421
          3.6716
   6     -0.2243  0.2149  0.2149  0.2149  0.3078  0.3078  0.3078  0.3329  0.4951
          0.5160  0.5160  0.6260  0.6260  0.6260  0.7643  1.1006  1.1006  1.1006
          1.1517  1.1517  1.1517  1.1631  1.1631  1.2990  1.2990  1.2990  1.5081
          1.5729  1.5729  1.5729  1.7097  1.7097  1.7351  1.7351  1.7351  1.7502
          1.7502  1.8217  1.8338  1.8338  1.8338  1.8749  1.8749  1.8749  1.8786
          1.8786  1.8786  1.9237  1.9237  1.9237  1.9252  2.1090  2.1090  2.1090
          2.1105  2.1105  2.1105  2.1170  2.1408  2.7508  2.7508  2.8089  2.8113
          2.8113  2.8113  2.9639  2.9806  2.9806  2.9806  3.0248  3.0248  3.0248
          3.0580  3.0580  3.1208  3.1261  3.1261  3.1261  3.2782  3.2782  3.2782
          3.3080  3.3080  3.3080  3.3236  3.3236  3.3236  3.3277  3.3277  3.4744
          3.4744  3.5024  3.5024  3.5024  3.5400  3.5654  3.5654  3.5654  3.5970
          3.5970
 Test on the normalization of the wavefunctions
  min sum_G |a(n,k,G)| =  1.000000
  max sum_G |a(n,k,G)| =  1.000000
 Test on the orthogonalization of the wavefunctions
  min sum_G a(n,k,G)a(n',k,G) =  0.000000
  max sum_G a(n,k,G)a(n',k,G) =  0.000000

================================================================================

 ----iterations are completed or convergence reached----

 Mean square residual over all n,k,spin=   3.3912E-11; max=  1.4715E-08
  -0.2500 -0.2500  0.0000    1  9.79029E-19 kpt; spin; max resid(k); each band:
  1.19E-22 1.09E-21 8.36E-22 5.70E-22 1.39E-21 3.52E-22 2.14E-22 1.17E-21
  1.16E-21 1.62E-21 5.66E-22 2.10E-21 4.57E-21 3.34E-22 6.76E-21 3.94E-21
  2.26E-21 3.52E-21 6.23E-21 1.68E-20 1.16E-20 8.30E-21 9.28E-21 4.73E-20
  1.78E-20 3.69E-21 3.08E-20 7.11E-20 1.80E-20 1.12E-19 1.07E-19 6.78E-20
  1.81E-19 9.64E-20 1.21E-19 3.79E-19 9.37E-20 2.75E-20 3.82E-19 1.20E-19
  1.61E-19 8.54E-19 8.50E-19 6.16E-19 8.30E-19 1.18E-21 5.47E-19 1.80E-21
  1.60E-21 1.29E-21 1.03E-21 8.48E-22 6.62E-21 7.05E-21 4.67E-21 2.44E-20
  7.58E-20 1.05E-19 1.20E-19 2.52E-19 1.24E-19 4.91E-20 5.37E-20 1.99E-19
  5.77E-19 8.54E-21 1.14E-19 9.79E-19 9.05E-21 6.58E-21 1.24E-20 2.35E-20
  1.30E-20 4.05E-20 8.53E-21 7.17E-20 1.47E-20 6.57E-19 4.90E-19 3.55E-20
  3.39E-19 8.62E-19 9.13E-19 3.81E-19 4.32E-19 2.56E-20 4.03E-19 6.93E-21
  1.05E-19 1.92E-19 5.47E-19 2.01E-20 7.51E-19 1.31E-19 1.64E-19 1.74E-19
  4.89E-20 8.20E-19 8.90E-20 8.18E-19 3.04E-19 3.41E-19 4.10E-19 9.79E-20
  9.28E-20
  -0.2500  0.2500  0.0000    1  1.79946E-14 kpt; spin; max resid(k); each band:
  2.75E-19 2.68E-22 1.31E-19 1.07E-19 7.07E-19 4.28E-19 1.91E-22 2.66E-22
  4.90E-19 4.48E-19 1.14E-21 5.26E-19 8.55E-22 2.64E-19 1.12E-21 7.04E-19
  4.68E-22 8.34E-22 8.93E-22 1.08E-19 3.20E-21 6.91E-22 1.66E-21 2.80E-21
  5.21E-21 1.42E-21 9.43E-21 3.01E-21 5.69E-20 3.54E-20 4.18E-21 1.59E-20
  2.15E-20 1.67E-20 3.02E-21 1.89E-20 3.15E-20 4.70E-20 2.37E-19 2.62E-19
  1.87E-21 1.76E-19 1.95E-21 4.09E-19 1.27E-19 1.24E-19 6.02E-19 2.29E-19
  6.49E-19 4.35E-19 8.93E-20 5.78E-19 4.44E-21 8.05E-19 3.16E-19 2.32E-19
  6.22E-19 1.06E-20 8.19E-19 5.19E-21 2.83E-21 3.39E-21 7.94E-21 1.30E-20
  3.71E-21 2.18E-20 4.06E-21 5.18E-20 6.22E-20 8.15E-20 7.90E-21 1.64E-20
  4.23E-19 5.74E-19 3.20E-19 8.13E-20 6.58E-19 5.43E-19 1.63E-20 7.48E-20
  1.19E-20 3.79E-21 1.23E-20 3.78E-19 1.00E-20 8.37E-20 6.51E-21 4.35E-19
  2.06E-19 2.73E-20 1.31E-19 7.88E-19 2.91E-19 1.72E-19 6.21E-19 1.35E-19
  3.38E-19 9.67E-19 3.62E-19 2.42E-19 4.21E-19 1.02E-15 9.78E-16 7.20E-15
  1.80E-14
   0.5000  0.5000  0.0000    1  8.84661E-16 kpt; spin; max resid(k); each band:
  1.05E-19 1.07E-19 2.62E-20 5.98E-20 2.49E-19 1.02E-19 3.21E-19 3.37E-19
  7.70E-19 2.75E-22 1.04E-19 1.11E-19 5.01E-19 9.54E-20 1.37E-22 2.86E-22
  3.43E-19 4.02E-19 2.03E-19 2.44E-19 7.64E-19 4.15E-22 2.53E-22 1.71E-21
  1.25E-19 3.04E-19 9.84E-23 1.29E-22 5.04E-22 6.45E-22 2.61E-19 2.00E-19
  1.19E-22 1.57E-22 2.41E-22 1.10E-22 3.64E-22 4.25E-22 3.53E-22 5.18E-22
  4.17E-22 4.78E-22 1.12E-21 5.09E-22 6.75E-22 1.65E-21 1.32E-21 2.08E-21
  1.80E-19 4.11E-19 1.20E-20 2.08E-20 3.11E-20 8.04E-20 5.08E-20 3.30E-20
  4.43E-21 9.97E-21 3.79E-20 1.92E-20 2.61E-20 6.21E-21 1.25E-20 1.40E-20
  4.16E-19 5.27E-21 3.71E-20 1.97E-19 2.54E-19 8.12E-21 5.51E-20 7.12E-20
  3.19E-20 2.11E-20 6.13E-21 5.25E-19 1.03E-20 1.40E-20 7.55E-20 1.90E-19
  1.55E-20 1.94E-20 4.69E-20 2.82E-19 7.44E-20 5.75E-20 3.76E-20 6.77E-19
  1.07E-19 3.67E-20 6.44E-19 3.07E-20 3.36E-21 1.06E-19 2.36E-19 6.55E-19
  7.40E-20 4.89E-21 2.69E-19 9.91E-20 5.47E-19 1.36E-19 8.85E-16 2.42E-16
  2.29E-19
  -0.2500  0.5000  0.2500    1  9.65750E-19 kpt; spin; max resid(k); each band:
  7.79E-21 2.52E-20 1.21E-21 4.39E-22 1.02E-19 1.68E-19 1.55E-20 3.45E-20
  2.27E-20 2.74E-20 3.62E-19 7.21E-20 4.57E-20 9.30E-20 4.94E-20 1.33E-19
  1.12E-20 2.86E-20 2.83E-19 1.81E-19 3.82E-19 2.47E-19 3.02E-19 2.02E-19
  6.25E-19 2.01E-19 4.44E-20 7.22E-21 3.77E-19 8.48E-23 5.19E-22 8.92E-19
  1.48E-21 2.89E-21 3.43E-21 8.09E-21 5.45E-20 2.96E-20 6.10E-20 1.47E-20
  2.33E-19 6.68E-20 8.20E-20 5.73E-20 2.13E-20 1.57E-20 2.18E-19 1.12E-19
  9.35E-19 4.66E-19 9.62E-19 2.92E-21 2.53E-21 1.57E-21 4.73E-19 7.28E-19
  1.01E-20 5.32E-21 6.87E-19 5.24E-21 6.45E-19 8.26E-19 3.30E-21 1.87E-20
  6.69E-21 9.66E-19 2.34E-20 3.01E-20 1.65E-19 8.97E-20 1.36E-19 4.67E-19
  2.87E-20 2.51E-20 3.20E-20 8.68E-20 9.05E-19 2.35E-20 4.97E-19 1.16E-20
  1.94E-20 5.55E-20 3.55E-19 1.71E-20 2.68E-20 1.61E-20 1.09E-19 1.17E-20
  6.67E-19 5.84E-19 4.86E-19 7.25E-21 1.79E-20 2.93E-20 2.73E-19 3.13E-19
  2.54E-20 2.64E-20 4.85E-20 3.94E-20 7.15E-19 4.05E-19 4.92E-20 3.38E-19
  5.15E-19
   0.5000  0.0000  0.0000    1  1.47151E-08 kpt; spin; max resid(k); each band:
  6.34E-20 3.11E-20 1.17E-19 1.02E-19 6.23E-20 5.07E-19 7.10E-20 1.38E-19
  1.52E-19 5.58E-22 1.17E-19 3.08E-19 5.34E-19 9.75E-20 6.54E-19 1.69E-19
  7.63E-19 8.85E-19 2.99E-19 1.57E-22 8.18E-23 1.90E-22 3.66E-22 2.43E-22
  2.10E-22 2.16E-19 3.29E-22 3.34E-22 5.06E-22 7.47E-22 4.60E-22 1.45E-21
  1.11E-22 2.31E-22 2.23E-20 9.80E-21 2.13E-20 1.88E-20 1.99E-20 6.13E-21
  9.04E-20 2.63E-19 2.41E-19 2.55E-19 6.15E-20 1.33E-19 7.17E-20 1.15E-19
  3.43E-19 2.27E-19 3.18E-19 1.13E-19 6.67E-19 2.02E-22 1.04E-21 6.37E-21
  1.92E-21 2.91E-20 1.20E-21 4.84E-22 3.41E-22 7.15E-22 1.21E-21 5.93E-19
  6.19E-20 1.23E-20 3.53E-21 3.11E-22 5.25E-20 2.18E-21 2.10E-20 1.23E-20
  8.78E-21 2.11E-20 1.20E-19 9.66E-20 1.23E-19 2.76E-19 4.05E-19 1.72E-20
  6.21E-19 8.04E-19 3.48E-19 6.79E-19 1.87E-19 1.16E-19 4.65E-19 2.04E-20
  1.20E-19 4.41E-19 3.31E-20 1.68E-19 4.24E-20 1.72E-19 7.80E-19 5.95E-19
  1.78E-19 5.07E-20 7.08E-20 3.53E-19 1.92E-19 3.63E-18 3.15E-14 6.57E-10
  1.47E-08
   0.0000  0.0000  0.0000    1  5.99229E-09 kpt; spin; max resid(k); each band:
  2.43E-21 6.15E-21 1.20E-20 1.60E-20 2.11E-20 1.90E-20 1.61E-20 7.06E-20
  1.06E-21 1.66E-19 2.04E-19 3.72E-20 9.91E-21 5.92E-21 4.83E-21 2.97E-20
  4.24E-20 6.00E-20 6.26E-20 6.17E-20 1.46E-20 1.78E-20 4.85E-20 6.70E-21
  1.53E-20 1.66E-20 9.13E-21 5.46E-19 9.66E-19 6.28E-19 1.39E-21 1.59E-21
  1.27E-19 4.02E-19 2.86E-19 1.13E-20 5.62E-21 3.10E-19 5.70E-20 3.25E-20
  3.39E-20 2.49E-21 4.38E-19 7.81E-19 6.48E-19 4.04E-19 2.71E-19 4.53E-19
  1.07E-19 2.20E-20 5.84E-19 4.02E-21 1.77E-20 5.08E-21 7.84E-19 6.67E-19
  3.24E-21 4.33E-21 2.27E-20 7.82E-20 3.37E-20 1.50E-19 1.65E-19 8.45E-20
  3.99E-20 7.50E-21 3.62E-19 1.66E-20 3.86E-20 6.07E-20 3.43E-19 2.61E-19
  6.45E-20 6.53E-19 1.70E-19 2.04E-19 3.99E-19 5.12E-19 5.33E-19 4.92E-19
  7.37E-19 2.36E-19 4.74E-19 1.58E-19 1.31E-19 2.04E-19 3.06E-19 1.76E-19
  9.35E-19 7.54E-19 7.17E-19 7.48E-19 3.78E-19 5.13E-20 5.64E-19 2.14E-19
  9.12E-19 6.72E-19 8.76E-19 5.79E-19 3.63E-19 4.59E-14 1.11E-13 5.36E-14
  5.99E-09
 reduced coordinates (array xred) for    2 atoms
       0.000000000000      0.000000000000      0.000000000000
       0.250000000000      0.250000000000      0.250000000000

 cartesian coordinates (angstrom) at end:
    1      0.00000000000000     0.00000000000000     0.00000000000000
    2      1.35750000000000     1.35750000000000     1.35750000000000
 length scales= 10.261212901569 10.261212901569 10.261212901569 bohr
              =  5.430000000000  5.430000000000  5.430000000000 angstroms
 prteigrs : about to open file t72_MPI4o_DS2_EIG
 Eigenvalues (hartree) for nkpt=   6  k points:
 kpt#   1, nband=105, wtk=  0.18750, kpt= -0.2500 -0.2500  0.0000 (reduced coord)
  -0.18292   0.08743   0.14373   0.14373   0.25496   0.33073   0.42837   0.42837
   0.50718   0.56130   0.62288   0.70075   0.70075   0.72516   0.86345   0.86345
   0.92146   0.96078   1.00066   1.16597   1.22207   1.24127   1.24127   1.31083
   1.31083   1.33167   1.35049   1.50493   1.56432   1.56465   1.56465   1.59444
   1.59444   1.63481   1.67453   1.68471   1.72065   1.72065   1.74411   1.83123
   1.83123   1.83996   1.88785   1.97008   1.97008   1.97793   2.04822   2.06503
   2.09833   2.10480   2.10480   2.10856   2.32296   2.35240   2.36343   2.36343
   2.52298   2.53176   2.53176   2.54388   2.55966   2.57366   2.57366   2.60228
   2.72473   2.76275   2.76275   2.76382   2.77665   2.84643   2.86157   2.86183
   2.86183   2.93593   2.93593   2.98642   3.01338   3.05513   3.10183   3.10183
   3.20096   3.21391   3.24306   3.24306   3.33618   3.35044   3.41648   3.41648
   3.49392   3.52217   3.52217   3.52436   3.54895   3.58626   3.58626   3.58855
   3.60940   3.69234   3.69234   3.70774   3.72846   3.74647   3.74735   3.74735
   3.74928
 kpt#   2, nband=105, wtk=  0.37500, kpt= -0.2500  0.2500  0.0000 (reduced coord)
  -0.14735   0.01468   0.07404   0.16485   0.30492   0.39099   0.40636   0.43648
   0.46398   0.57037   0.67632   0.70793   0.71284   0.83196   0.86371   0.88346
   0.91627   1.01507   1.02619   1.11886   1.12005   1.17661   1.20392   1.21548
   1.25290   1.29162   1.36292   1.37197   1.51793   1.52101   1.54377   1.58686
   1.59520   1.62087   1.62571   1.63578   1.66803   1.76526   1.85784   1.85849
   1.90245   1.93480   2.03258   2.05757   2.09649   2.10741   2.11004   2.14374
   2.14426   2.15340   2.21081   2.28006   2.28480   2.32089   2.34652   2.35585
   2.38518   2.45191   2.48552   2.52407   2.52689   2.56212   2.61612   2.61665
   2.62345   2.67402   2.71647   2.77864   2.80775   2.81439   2.83515   2.88761
   2.90210   2.91926   2.93555   2.98982   3.01130   3.04215   3.04329   3.05739
   3.10069   3.13290   3.14714   3.21962   3.26271   3.26654   3.27280   3.33280
   3.33457   3.34761   3.40344   3.45373   3.46180   3.54672   3.57604   3.60305
   3.63359   3.67629   3.68734   3.68827   3.70240   3.79476   3.80644   3.80989
   3.82020
 kpt#   3, nband=105, wtk=  0.09375, kpt=  0.5000  0.5000  0.0000 (reduced coord)
  -0.06997  -0.06997   0.10760   0.10760   0.24101   0.24101   0.58260   0.58260
   0.64869   0.64869   0.68125   0.68125   0.70118   0.70118   0.92961   0.92961
   0.94223   0.94223   0.96579   0.96579   0.98893   0.98893   1.20996   1.20996
   1.31812   1.31812   1.46519   1.46519   1.48694   1.48694   1.57544   1.57544
   1.59346   1.59346   1.67404   1.67404   1.74219   1.74219   1.75263   1.75263
   1.95226   1.95226   2.08742   2.08742   2.11560   2.11560   2.12983   2.12983
   2.32535   2.32535   2.34584   2.34584   2.36048   2.36048   2.36752   2.36752
   2.39036   2.39036   2.44295   2.44295   2.46948   2.46948   2.47942   2.47942
   2.85566   2.85566   2.86194   2.86194   2.89503   2.89503   2.92357   2.92357
   2.96536   2.96536   2.97158   2.97158   3.01004   3.01004   3.02761   3.02761
   3.04810   3.04810   3.05388   3.05388   3.16265   3.16265   3.18215   3.18215
   3.23722   3.23722   3.23779   3.23779   3.45592   3.45592   3.57213   3.57213
   3.64484   3.64484   3.64699   3.64699   3.70674   3.70674   3.73342   3.73342
   3.74452
 kpt#   4, nband=105, wtk=  0.18750, kpt= -0.2500  0.5000  0.2500 (reduced coord)
  -0.06278  -0.06278   0.07002   0.07002   0.37433   0.37433   0.39951   0.39951
   0.61496   0.61496   0.70084   0.70084   0.82979   0.82979   0.89102   0.89102
   0.93121   0.93121   0.98257   0.98257   1.09981   1.09981   1.23831   1.23831
   1.24121   1.24121   1.26645   1.26645   1.48210   1.48210   1.56776   1.56776
   1.63650   1.63650   1.73274   1.73274   1.83914   1.83914   1.87858   1.87858
   1.96751   1.96751   1.97724   1.97724   2.05604   2.05604   2.09545   2.09545
   2.27451   2.27451   2.30128   2.30128   2.32427   2.32427   2.33931   2.33931
   2.47973   2.47973   2.50874   2.50874   2.56844   2.56844   2.61806   2.61806
   2.62008   2.62008   2.63478   2.63478   2.92573   2.92573   2.92964   2.92964
   2.96706   2.96706   3.00047   3.00047   3.02886   3.02886   3.05158   3.05158
   3.06378   3.06378   3.06385   3.06385   3.27180   3.27180   3.28027   3.28027
   3.28735   3.28735   3.31795   3.31795   3.47980   3.47980   3.50582   3.50582
   3.51397   3.51397   3.51728   3.51728   3.63785   3.63785   3.66370   3.66370
   3.76338
 kpt#   5, nband=105, wtk=  0.12500, kpt=  0.5000  0.0000  0.0000 (reduced coord)
  -0.13502  -0.04256   0.16976   0.16976   0.27398   0.33882   0.33882   0.49122
   0.62506   0.63003   0.63003   0.63638   0.63638   0.67692   0.94871   0.94939
   1.03275   1.03275   1.04580   1.04580   1.17812   1.22679   1.22679   1.23636
   1.23636   1.24251   1.36860   1.42235   1.42235   1.43683   1.45268   1.45268
   1.53337   1.55673   1.74582   1.74582   1.78770   1.78770   1.79902   1.80445
   1.98604   2.02418   2.02418   2.05545   2.05545   2.08356   2.18757   2.18757
   2.19993   2.19993   2.20806   2.23783   2.32946   2.32946   2.40524   2.40524
   2.42072   2.44339   2.47007   2.47007   2.52035   2.52035   2.59303   2.61010
   2.63244   2.66821   2.68393   2.68393   2.70685   2.70685   2.77630   2.79471
   2.91959   2.91959   2.92881   2.92881   2.99399   3.03071   3.03071   3.09539
   3.11620   3.11620   3.26430   3.33826   3.34560   3.34560   3.35208   3.35208
   3.35384   3.38383   3.56439   3.57776   3.57776   3.61112   3.61112   3.61189
   3.61189   3.64075   3.64211   3.67156   3.67156   3.68338   3.70022   3.70517
   3.70517
 kpt#   6, nband=105, wtk=  0.03125, kpt=  0.0000  0.0000  0.0000 (reduced coord)
  -0.22427   0.21492   0.21492   0.21492   0.30780   0.30780   0.30780   0.33288
   0.49511   0.51595   0.51595   0.62596   0.62596   0.62596   0.76435   1.10058
   1.10058   1.10058   1.15169   1.15169   1.15169   1.16311   1.16311   1.29896
   1.29896   1.29896   1.50806   1.57285   1.57285   1.57285   1.70966   1.70966
   1.73508   1.73508   1.73508   1.75023   1.75023   1.82169   1.83384   1.83384
   1.83384   1.87491   1.87491   1.87491   1.87860   1.87860   1.87860   1.92372
   1.92372   1.92372   1.92519   2.10895   2.10895   2.10895   2.11051   2.11051
   2.11051   2.11703   2.14082   2.75084   2.75084   2.80887   2.81131   2.81131
   2.81131   2.96393   2.98060   2.98060   2.98060   3.02482   3.02482   3.02482
   3.05798   3.05798   3.12080   3.12611   3.12611   3.12611   3.27815   3.27815
   3.27815   3.30805   3.30805   3.30805   3.32360   3.32360   3.32360   3.32774
   3.32774   3.47437   3.47437   3.50237   3.50237   3.50237   3.54003   3.56541
   3.56541   3.56541   3.59696   3.59696   3.59696   3.62086   3.62086   3.62086
   3.63262
 Total charge density [el/Bohr^3]
,     Maximum=    8.7383E-02  at reduced coord.    0.1333    0.1333    0.6000
,Next maximum=    8.7383E-02  at reduced coord.    0.1333    0.6000    0.1333
,     Minimum=    3.3145E-03  at reduced coord.    0.7333    0.7333    0.7333
,Next minimum=    3.3145E-03  at reduced coord.    0.8000    0.7333    0.7333
,  Integrated=    8.0000E+00

================================================================================
== DATASET  3 ==================================================================
-   nproc =    4

 mkfilename : getkss/=0, take file _KSS from output of DATASET   2.

 Exchange-correlation functional for the present dataset will be:
  LDA: new Teter (4/93) with spin-polarized option - ixc=1
 Citation for XC functional:
  S. Goedecker, M. Teter, J. Huetter, PRB 54, 1703 (1996)

 SCREENING: Calculation of the susceptibility and dielectric matrices 

 Based on a program developped by R.W. Godby, V. Olevano, G. Onida, and L. Reining.
 Incorporated in ABINIT by V. Olevano, G.-M. Rignanese, and M. Torrent.
.Using double precision arithmetic ; gwpc =  8

 Real(R)+Recip(G) space primitive vectors, cartesian coordinates (Bohr,Bohr^-1):
 R(1)=  0.0000000  5.1306065  5.1306065  G(1)= -0.0974544  0.0974544  0.0974544
 R(2)=  5.1306065  0.0000000  5.1306065  G(2)=  0.0974544 -0.0974544  0.0974544
 R(3)=  5.1306065  5.1306065  0.0000000  G(3)=  0.0974544  0.0974544 -0.0974544
 Unit cell volume ucvol=  2.7010716E+02 bohr^3
 Angles (23,13,12)=  6.00000000E+01  6.00000000E+01  6.00000000E+01 degrees

--- Pseudopotential description ------------------------------------------------
- pspini: atom type   1  psp file is /data/ABINIT/testf_gcc47/trunk_7.9.3-private/tests/Psps_for_tests/14si.pspnc
- pspatm: opening atomic psp file    /data/ABINIT/testf_gcc47/trunk_7.9.3-private/tests/Psps_for_tests/14si.pspnc
-  Troullier-Martins psp for element  Si        Thu Oct 27 17:31:21 EDT 1994
- 14.00000   4.00000    940714                znucl, zion, pspdat
    1    1    2    2      2001   0.00000      pspcod,pspxc,lmax,lloc,mmax,r2well
    0   5.907  14.692    1   2.0872718        l,e99.0,e99.9,nproj,rcpsp
   0.00000000   0.00000000   0.00000000   0.00000000     rms, ekb1, ekb2, epsatm
    1   2.617   4.181    1   2.0872718        l,e99.0,e99.9,nproj,rcpsp
   0.00000000   0.00000000   0.00000000   0.00000000     rms, ekb1, ekb2, epsatm
    2   0.000   0.000    0   2.0872718        l,e99.0,e99.9,nproj,rcpsp
   0.00000000   0.00000000   0.00000000   0.00000000     rms, ekb1, ekb2, epsatm
    1.80626423934776    0.22824404341771    1.17378968127746   rchrg,fchrg,qchrg
 pspatm: epsatm=    1.43386982
         --- l  ekb(1:nproj) -->
             0    3.287949
             1    1.849886
 pspatm: atomic psp has been read  and splines computed

--------------------------------------------------------------------------------

 ==== K-mesh for the wavefunctions ====
 Number of points in the irreducible wedge :     6
 Reduced coordinates and weights : 

     1)    -2.50000000E-01 -2.50000000E-01  0.00000000E+00       0.18750
     2)    -2.50000000E-01  2.50000000E-01  0.00000000E+00       0.37500
     3)     5.00000000E-01  5.00000000E-01  0.00000000E+00       0.09375
     4)    -2.50000000E-01  5.00000000E-01  2.50000000E-01       0.18750
     5)     5.00000000E-01  0.00000000E+00  0.00000000E+00       0.12500
     6)     0.00000000E+00  0.00000000E+00  0.00000000E+00       0.03125

 Together with 48 symmetry operations and time-reversal symmetry 
 yields    32 points in the full Brillouin Zone.


 ==== Q-mesh for the screening function ====
 Number of points in the irreducible wedge :     6
 Reduced coordinates and weights : 

     1)     0.00000000E+00  0.00000000E+00  0.00000000E+00       0.03125
     2)     5.00000000E-01  5.00000000E-01  0.00000000E+00       0.09375
     3)     5.00000000E-01  2.50000000E-01  2.50000000E-01       0.37500
     4)     0.00000000E+00  5.00000000E-01  0.00000000E+00       0.12500
     5)     5.00000000E-01 -2.50000000E-01  2.50000000E-01       0.18750
     6)     0.00000000E+00 -2.50000000E-01 -2.50000000E-01       0.18750

 Together with 48 symmetry operations and time-reversal symmetry 
 yields    32 points in the full Brillouin Zone.


 setmesh: FFT mesh size selected  =  20x 20x 20
          total number of points  =     8000


 screening : taking advantage of time-reversal symmetry 
 Maximum band index for partially occupied states nbvw =     4
 Remaining bands to be divided among processors   nbcw =    96
P Number of bands treated by each node ~   24

 k       eigenvalues [eV]
  1         -4.98   2.38   3.91   3.91   6.94   9.00  11.66  11.66  13.80  15.27
            16.95  19.07  19.07  19.73  23.50  23.50  25.07  26.14  27.23  31.73
            33.25  33.78  33.78  35.67  35.67  36.24  36.75  40.95  42.57  42.58
            42.58  43.39  43.39  44.49  45.57  45.84  46.82  46.82  47.46  49.83
            49.83  50.07  51.37  53.61  53.61  53.82  55.74  56.19  57.10  57.27
            57.27  57.38  63.21  64.01  64.31  64.31  68.65  68.89  68.89  69.22
            69.65  70.03  70.03  70.81  74.14  75.18  75.18  75.21  75.56  77.46
            77.87  77.87  77.87  79.89  79.89  81.26  82.00  83.13  84.41  84.41
            87.10  87.46  88.25  88.25  90.78  91.17  92.97  92.97  95.07  95.84
            95.84  95.90  96.57  97.59  97.59  97.65  98.22 100.47 100.47 100.89

  2         -4.01   0.40   2.01   4.49   8.30  10.64  11.06  11.88  12.63  15.52
            18.40  19.26  19.40  22.64  23.50  24.04  24.93  27.62  27.92  30.45
            30.48  32.02  32.76  33.08  34.09  35.15  37.09  37.33  41.31  41.39
            42.01  43.18  43.41  44.11  44.24  44.51  45.39  48.04  50.55  50.57
            51.77  52.65  55.31  55.99  57.05  57.35  57.42  58.33  58.35  58.60
            60.16  62.04  62.17  63.15  63.85  64.11  64.90  66.72  67.63  68.68
            68.76  69.72  71.19  71.20  71.39  72.76  73.92  75.61  76.40  76.58
            77.15  78.58  78.97  79.44  79.88  81.36  81.94  82.78  82.81  83.20
            84.37  85.25  85.64  87.61  88.78  88.89  89.06  90.69  90.74  91.09
            92.61  93.98  94.20  96.51  97.31  98.04  98.87 100.04 100.34 100.36

  3         -1.90  -1.90   2.93   2.93   6.56   6.56  15.85  15.85  17.65  17.65
            18.54  18.54  19.08  19.08  25.30  25.30  25.64  25.64  26.28  26.28
            26.91  26.91  32.92  32.92  35.87  35.87  39.87  39.87  40.46  40.46
            42.87  42.87  43.36  43.36  45.55  45.55  47.41  47.41  47.69  47.69
            53.12  53.12  56.80  56.80  57.57  57.57  57.96  57.96  63.28  63.28
            63.83  63.83  64.23  64.23  64.42  64.42  65.05  65.05  66.48  66.48
            67.20  67.20  67.47  67.47  77.71  77.71  77.88  77.88  78.78  78.78
            79.55  79.55  80.69  80.69  80.86  80.86  81.91  81.91  82.39  82.39
            82.94  82.94  83.10  83.10  86.06  86.06  86.59  86.59  88.09  88.09
            88.10  88.10  94.04  94.04  97.20  97.20  99.18  99.18  99.24  99.24

  4         -1.71  -1.71   1.91   1.91  10.19  10.19  10.87  10.87  16.73  16.73
            19.07  19.07  22.58  22.58  24.25  24.25  25.34  25.34  26.74  26.74
            29.93  29.93  33.70  33.70  33.78  33.78  34.46  34.46  40.33  40.33
            42.66  42.66  44.53  44.53  47.15  47.15  50.05  50.05  51.12  51.12
            53.54  53.54  53.80  53.80  55.95  55.95  57.02  57.02  61.89  61.89
            62.62  62.62  63.25  63.25  63.66  63.66  67.48  67.48  68.27  68.27
            69.89  69.89  71.24  71.24  71.30  71.30  71.70  71.70  79.61  79.61
            79.72  79.72  80.74  80.74  81.65  81.65  82.42  82.42  83.04  83.04
            83.37  83.37  83.37  83.37  89.03  89.03  89.26  89.26  89.45  89.45
            90.29  90.29  94.69  94.69  95.40  95.40  95.62  95.62  95.71  95.71

  5         -3.67  -1.16   4.62   4.62   7.46   9.22   9.22  13.37  17.01  17.14
            17.14  17.32  17.32  18.42  25.82  25.83  28.10  28.10  28.46  28.46
            32.06  33.38  33.38  33.64  33.64  33.81  37.24  38.70  38.70  39.10
            39.53  39.53  41.73  42.36  47.51  47.51  48.65  48.65  48.95  49.10
            54.04  55.08  55.08  55.93  55.93  56.70  59.53  59.53  59.86  59.86
            60.08  60.89  63.39  63.39  65.45  65.45  65.87  66.49  67.21  67.21
            68.58  68.58  70.56  71.02  71.63  72.61  73.03  73.03  73.66  73.66
            75.55  76.05  79.45  79.45  79.70  79.70  81.47  82.47  82.47  84.23
            84.80  84.80  88.83  90.84  91.04  91.04  91.21  91.21  91.26  92.08
            96.99  97.36  97.36  98.26  98.26  98.28  98.28  99.07  99.11  99.91

  6         -6.10   5.85   5.85   5.85   8.38   8.38   8.38   9.06  13.47  14.04
            14.04  17.03  17.03  17.03  20.80  29.95  29.95  29.95  31.34  31.34
            31.34  31.65  31.65  35.35  35.35  35.35  41.04  42.80  42.80  42.80
            46.52  46.52  47.21  47.21  47.21  47.63  47.63  49.57  49.90  49.90
            49.90  51.02  51.02  51.02  51.12  51.12  51.12  52.35  52.35  52.35
            52.39  57.39  57.39  57.39  57.43  57.43  57.43  57.61  58.25  74.85
            74.85  76.43  76.50  76.50  76.50  80.65  81.11  81.11  81.11  82.31
            82.31  82.31  83.21  83.21  84.92  85.07  85.07  85.07  89.20  89.20
            89.20  90.02  90.02  90.02  90.44  90.44  90.44  90.55  90.55  94.54
            94.54  95.30  95.30  95.30  96.33  97.02  97.02  97.02  97.88  97.88

 Number of electrons calculated from density =    7.9998; Expected =    8.0000
 average of density, n =  0.029617
 r_s =    2.0050
 omega_plasma =   16.6008 [eV]


 calculating chi0 at frequencies [eV] :
  1    0.000000E+00    0.000000E+00
  2    0.000000E+00    1.670000E+01


--------------------------------------------------------------------------------
  q-point number  1        q = ( 0.000000, 0.000000, 0.000000) [r.l.u.]
--------------------------------------------------------------------------------
  chi0(G,G') at the    1 th omega   0.0000   0.0000 [eV]
       1       2       3       4       5       6       7       8       9
    1  -0.000   0.000  -0.000  -0.000   0.000   0.000  -0.000  -0.000   0.000
        0.000   0.000   0.000  -0.000  -0.000   0.000   0.000  -0.000  -0.000

    2   0.000 -18.805   0.000  -0.361  -0.000  -0.361  -0.000  -0.361   0.000
       -0.000   0.000  -5.049   0.000  -0.423   0.000  -0.423   0.000  -0.423

  chi0(G,G') at the    2 th omega   0.0000  16.7000 [eV]
       1       2       3       4       5       6       7       8       9
    1  -0.000   0.000  -0.000  -0.000   0.000   0.000  -0.000  -0.000   0.000
       -0.000   0.000   0.000  -0.000  -0.000   0.000   0.000  -0.000  -0.000

    2   0.000  -7.831   0.000  -0.075  -0.000  -0.075  -0.000  -0.075  -0.000
       -0.000  -0.000  -0.983  -0.000  -0.131   0.000  -0.131   0.000  -0.131

 For q-point:  0.000010 0.000020 0.000030
  dielectric constant =  26.1595
  dielectric constant without local fields =  28.8073

  Average fulfillment of the sum rule on Im[epsilon] for q-point    1 :     91.71  [%]
  Heads and wings of the symmetrical epsilon^-1(G,G') 

   Upper and lower wings at the    1 th omega   0.0000   0.0000 [eV]
       1       2       3       4       5       6       7       8       9
      0.038   0.004  -0.004  -0.011   0.011   0.011  -0.011  -0.004   0.004
      0.000   0.004   0.004  -0.011  -0.011   0.011   0.011  -0.004  -0.004
       1       2       3       4       5       6       7       8       9
      0.038   0.004  -0.004  -0.011   0.011   0.011  -0.011  -0.004   0.004
      0.000  -0.004  -0.004   0.011   0.011  -0.011  -0.011   0.004   0.004


   Upper and lower wings at the    2 th omega   0.0000  16.7000 [eV]
       1       2       3       4       5       6       7       8       9
      0.451   0.008  -0.008  -0.024   0.024   0.024  -0.024  -0.008   0.008
     -0.000   0.008   0.008  -0.024  -0.024   0.024   0.024  -0.008  -0.008
       1       2       3       4       5       6       7       8       9
      0.451   0.008  -0.008  -0.024   0.024   0.024  -0.024  -0.008   0.008
     -0.000  -0.008  -0.008   0.024   0.024  -0.024  -0.024   0.008   0.008




--------------------------------------------------------------------------------
  q-point number  2        q = ( 0.500000, 0.500000, 0.000000) [r.l.u.]
--------------------------------------------------------------------------------
  chi0(G,G') at the    1 th omega   0.0000   0.0000 [eV]
       1       2       3       4       5       6       7       8       9
    1 -18.041  -3.097  -1.221  -1.221  -3.097  -1.221  -3.097  -3.097  -1.221
        0.000  -3.097   1.221  -1.221   3.097  -1.221   3.097  -3.097   1.221

    2  -3.097 -17.915   0.000  -0.159  -0.000  -0.159  -0.000  -0.037   0.000
        3.097   0.000  -2.458  -0.000   0.404  -0.000   0.404  -0.000  -0.295

  chi0(G,G') at the    2 th omega   0.0000  16.7000 [eV]
       1       2       3       4       5       6       7       8       9
    1  -4.422  -0.927  -0.230  -0.230  -0.927  -0.230  -0.927  -0.927  -0.230
        0.000  -0.927   0.230  -0.230   0.927  -0.230   0.927  -0.927   0.230

    2  -0.927  -8.958   0.000  -0.075  -0.000  -0.075  -0.000   0.067  -0.000
        0.927   0.000  -0.543  -0.000  -0.043   0.000  -0.043  -0.000  -0.059

  Average fulfillment of the sum rule on Im[epsilon] for q-point    2 :     92.71  [%]


--------------------------------------------------------------------------------
  q-point number  3        q = ( 0.500000, 0.250000, 0.250000) [r.l.u.]
--------------------------------------------------------------------------------
  chi0(G,G') at the    1 th omega   0.0000   0.0000 [eV]
       1       2       3       4       5       6       7       8       9
    1 -14.502  -2.474   0.445  -2.311  -2.311   0.445  -2.474  -2.311  -2.311
       -0.000  -2.474  -0.445  -2.311   2.311   0.445   2.474  -2.311   2.311

    2  -2.474 -18.106   0.000  -0.502  -0.000  -0.242   0.000  -0.502  -0.000
        2.474  -0.000  -3.375   0.000   0.013   0.000   0.207   0.000   0.013

  chi0(G,G') at the    2 th omega   0.0000  16.7000 [eV]
       1       2       3       4       5       6       7       8       9
    1  -2.598  -0.735   0.255  -0.420  -0.420   0.255  -0.735  -0.420  -0.420
       -0.000  -0.735  -0.255  -0.420   0.420   0.255   0.735  -0.420   0.420

    2  -0.735  -8.939   0.000  -0.014  -0.000  -0.066  -0.000  -0.014  -0.000
        0.735  -0.000  -0.768   0.000  -0.060   0.000  -0.058  -0.000  -0.060

  Average fulfillment of the sum rule on Im[epsilon] for q-point    3 :     92.84  [%]


--------------------------------------------------------------------------------
  q-point number  4        q = ( 0.000000, 0.500000, 0.000000) [r.l.u.]
--------------------------------------------------------------------------------
  chi0(G,G') at the    1 th omega   0.0000   0.0000 [eV]
       1       2       3       4       5       6       7       8       9
    1 -14.436  -2.010  -2.603  -2.010  -2.603  -2.010  -2.603  -2.227   3.063
       -0.000  -2.010   2.603  -2.010   2.603  -2.010   2.603  -2.227  -3.063

    2  -2.010 -20.246   0.000  -0.022  -0.000  -0.022  -0.000   0.164  -0.000
        2.010  -0.000  -2.684  -0.000   0.138  -0.000   0.138   0.000  -0.927

  chi0(G,G') at the    2 th omega   0.0000  16.7000 [eV]
[...]
 number of plane-waves for wavefunctions           137
 number of bands                                   100
 number of q-points in IBZ                           6
 number of frequencies                               2
 number of real frequencies                          1
 number of imag frequencies                          1

 matrix elements of self-energy operator (all in [eV])

 Perturbative Calculation

 k =    0.000   0.000   0.000
 Band     E0 <VxcLDA>   SigX SigC(E0)      Z dSigC/dE  Sig(E)    E-E0       E
    4   5.848 -11.208 -11.928   1.406   0.790  -0.265 -10.666   0.542   6.390
    5   8.376 -10.021  -5.094  -3.823   0.788  -0.270  -9.151   0.870   9.245

 E^0_gap          2.527
 E^GW_gap         2.855
 DeltaE^GW_gap    0.328


== END DATASET(S) ==============================================================
================================================================================
  
 -outvars: echo values of variables after computation  --------
            acell      1.0261212902E+01  1.0261212902E+01  1.0261212902E+01 Bohr
              amu      2.80855000E+01
             awtr1          1
             awtr2          1
             awtr3          0
             awtr4          1
             bdgw4          4       5
           diemac      1.20000000E+01
             ecut1     4.50000000E+00 Hartree
             ecut2     4.50000000E+00 Hartree
             ecut3     4.49928585E+00 Hartree
             ecut4     4.49928585E+00 Hartree
          ecuteps1     0.00000000E+00 Hartree
          ecuteps2     0.00000000E+00 Hartree
          ecuteps3     2.99952390E+00 Hartree
          ecuteps4     0.00000000E+00 Hartree
         ecutsigx1     0.00000000E+00 Hartree
         ecutsigx2     0.00000000E+00 Hartree
         ecutsigx3     0.00000000E+00 Hartree
         ecutsigx4     1.49976195E+00 Hartree
          ecutwfn1     0.00000000E+00 Hartree
          ecutwfn2     0.00000000E+00 Hartree
          ecutwfn3     4.49928585E+00 Hartree
          ecutwfn4     4.49928585E+00 Hartree
           etotal1    -8.8407491645E+00
           etotal3     0.0000000000E+00
           etotal4     0.0000000000E+00
            fcart1    -0.0000000000E+00 -0.0000000000E+00 -0.0000000000E+00
                      -0.0000000000E+00 -0.0000000000E+00 -0.0000000000E+00
            fcart3     0.0000000000E+00  0.0000000000E+00  0.0000000000E+00
                       0.0000000000E+00  0.0000000000E+00  0.0000000000E+00
            fcart4     0.0000000000E+00  0.0000000000E+00  0.0000000000E+00
                       0.0000000000E+00  0.0000000000E+00  0.0000000000E+00
-          fftalg         112
           getden1          0
           getden2         -1
           getden3          0
           getden4          0
           getkss1          0
           getkss2          0
           getkss3         -1
           getkss4          2
           getscr1          0
           getscr2          0
           getscr3          0
           getscr4          3
           gwpara           2
         icutcoul1          6
         icutcoul2          6
         icutcoul3          6
         icutcoul4          3
          inclvkb           0
             iscf1          5
             iscf2         -2
             iscf3          5
             iscf4          5
           istwfk2       0    0    1    0    1    1
           istwfk3       0    0    1    0    1    1
           istwfk4       0    0    1    0    1    1
           jdtset        1    2    3    4
              kpt1    -2.50000000E-01  5.00000000E-01  0.00000000E+00
                      -2.50000000E-01  0.00000000E+00  0.00000000E+00
              kpt2    -2.50000000E-01 -2.50000000E-01  0.00000000E+00
                      -2.50000000E-01  2.50000000E-01  0.00000000E+00
                       5.00000000E-01  5.00000000E-01  0.00000000E+00
                      -2.50000000E-01  5.00000000E-01  2.50000000E-01
                       5.00000000E-01  0.00000000E+00  0.00000000E+00
                       0.00000000E+00  0.00000000E+00  0.00000000E+00
              kpt3    -2.50000000E-01 -2.50000000E-01  0.00000000E+00
                      -2.50000000E-01  2.50000000E-01  0.00000000E+00
                       5.00000000E-01  5.00000000E-01  0.00000000E+00
                      -2.50000000E-01  5.00000000E-01  2.50000000E-01
                       5.00000000E-01  0.00000000E+00  0.00000000E+00
                       0.00000000E+00  0.00000000E+00  0.00000000E+00
              kpt4    -2.50000000E-01 -2.50000000E-01  0.00000000E+00
                      -2.50000000E-01  2.50000000E-01  0.00000000E+00
                       5.00000000E-01  5.00000000E-01  0.00000000E+00
                      -2.50000000E-01  5.00000000E-01  2.50000000E-01
                       5.00000000E-01  0.00000000E+00  0.00000000E+00
                       0.00000000E+00  0.00000000E+00  0.00000000E+00
            kptgw4     0.00000000E+00  0.00000000E+00  0.00000000E+00
         kptrlatt        2   -2    2     -2    2    2     -2   -2    2
          kptrlen      2.05224258E+01
          kssform1          1
          kssform2          3
          kssform3          1
          kssform4          1
P           mkmem1          1
P           mkmem2          2
P           mkmem3          2
P           mkmem4          2
            natom           2
            nband1          5
            nband2        105
            nband3        100
            nband4        100
         nbandkss1          0
         nbandkss2        100
         nbandkss3          0
         nbandkss4          0
           nbdbuf1          0
           nbdbuf2          5
           nbdbuf3          0
           nbdbuf4          0
           ndtset           4
            ngfft          15      15      15
             nkpt1          2
             nkpt2          6
             nkpt3          6
             nkpt4          6
           nkptgw1          0
           nkptgw2          0
           nkptgw3          0
           nkptgw4          1
           npweps1          0
           npweps2          0
           npweps3         65
           npweps4          0
          npwsigx1          0
          npwsigx2          0
          npwsigx3          0
          npwsigx4         27
           npwwfn1          0
           npwwfn2          0
           npwwfn3        137
           npwwfn4        137
           nsheps1          0
           nsheps2          0
           nsheps3          7
           nsheps4          0
          nshsigx1          0
          nshsigx2          0
          nshsigx3          0
          nshsigx4          4
            nstep         100
             nsym          48
           ntypat           1
              occ1     2.000000  2.000000  2.000000  2.000000  0.000000
              occ3     2.000000  2.000000  2.000000  2.000000  0.000000  0.000000
                       0.000000  0.000000  0.000000  0.000000  0.000000  0.000000
                       0.000000  0.000000  0.000000  0.000000  0.000000  0.000000
                       0.000000  0.000000  0.000000  0.000000  0.000000  0.000000
                       0.000000  0.000000  0.000000  0.000000  0.000000  0.000000
                       0.000000  0.000000  0.000000  0.000000  0.000000  0.000000
                       0.000000  0.000000  0.000000  0.000000  0.000000  0.000000
                       0.000000  0.000000  0.000000  0.000000  0.000000  0.000000
                       0.000000  0.000000  0.000000  0.000000  0.000000  0.000000
                       0.000000  0.000000  0.000000  0.000000  0.000000  0.000000
                       0.000000  0.000000  0.000000  0.000000  0.000000  0.000000
                       0.000000  0.000000  0.000000  0.000000  0.000000  0.000000
                       0.000000  0.000000  0.000000  0.000000  0.000000  0.000000
                       0.000000  0.000000  0.000000  0.000000  0.000000  0.000000
                       0.000000  0.000000  0.000000  0.000000  0.000000  0.000000
                       0.000000  0.000000  0.000000  0.000000  0.000000  0.000000
                       0.000000  0.000000  0.000000  0.000000
              occ4     2.000000  2.000000  2.000000  2.000000  0.000000  0.000000
                       0.000000  0.000000  0.000000  0.000000  0.000000  0.000000
                       0.000000  0.000000  0.000000  0.000000  0.000000  0.000000
                       0.000000  0.000000  0.000000  0.000000  0.000000  0.000000
                       0.000000  0.000000  0.000000  0.000000  0.000000  0.000000
                       0.000000  0.000000  0.000000  0.000000  0.000000  0.000000
                       0.000000  0.000000  0.000000  0.000000  0.000000  0.000000
                       0.000000  0.000000  0.000000  0.000000  0.000000  0.000000
                       0.000000  0.000000  0.000000  0.000000  0.000000  0.000000
                       0.000000  0.000000  0.000000  0.000000  0.000000  0.000000
                       0.000000  0.000000  0.000000  0.000000  0.000000  0.000000
                       0.000000  0.000000  0.000000  0.000000  0.000000  0.000000
                       0.000000  0.000000  0.000000  0.000000  0.000000  0.000000
                       0.000000  0.000000  0.000000  0.000000  0.000000  0.000000
                       0.000000  0.000000  0.000000  0.000000  0.000000  0.000000
                       0.000000  0.000000  0.000000  0.000000  0.000000  0.000000
                       0.000000  0.000000  0.000000  0.000000
        optdriver1          0
        optdriver2          0
        optdriver3          3
        optdriver4          4
        optforces           1
           ppmfrq1     0.00000000E+00 Hartree
           ppmfrq2     0.00000000E+00 Hartree
           ppmfrq3     6.13713734E-01 Hartree
           ppmfrq4     0.00000000E+00 Hartree
            rprim      0.0000000000E+00  5.0000000000E-01  5.0000000000E-01
                       5.0000000000E-01  0.0000000000E+00  5.0000000000E-01
                       5.0000000000E-01  5.0000000000E-01  0.0000000000E+00
           shiftk1     5.00000000E-01  5.00000000E-01  5.00000000E-01
           shiftk2     0.00000000E+00  0.00000000E+00  0.00000000E+00
           shiftk3     0.00000000E+00  0.00000000E+00  0.00000000E+00
           shiftk4     0.00000000E+00  0.00000000E+00  0.00000000E+00
          spgroup         227
           strten1     1.9220580904E-04  1.9220580904E-04  1.9220580904E-04
                       0.0000000000E+00  0.0000000000E+00  0.0000000000E+00
           strten3     0.0000000000E+00  0.0000000000E+00  0.0000000000E+00
                       0.0000000000E+00  0.0000000000E+00  0.0000000000E+00
           strten4     0.0000000000E+00  0.0000000000E+00  0.0000000000E+00
                       0.0000000000E+00  0.0000000000E+00  0.0000000000E+00
           symrel      1  0  0   0  1  0   0  0  1      -1  0  0   0 -1  0   0  0 -1
                       0 -1  1   0 -1  0   1 -1  0       0  1 -1   0  1  0  -1  1  0
                      -1  0  0  -1  0  1  -1  1  0       1  0  0   1  0 -1   1 -1  0
                       0  1 -1   1  0 -1   0  0 -1       0 -1  1  -1  0  1   0  0  1
                      -1  0  0  -1  1  0  -1  0  1       1  0  0   1 -1  0   1  0 -1
                       0 -1  1   1 -1  0   0 -1  0       0  1 -1  -1  1  0   0  1  0
                       1  0  0   0  0  1   0  1  0      -1  0  0   0  0 -1   0 -1  0
                       0  1 -1   0  0 -1   1  0 -1       0 -1  1   0  0  1  -1  0  1
                      -1  0  1  -1  1  0  -1  0  0       1  0 -1   1 -1  0   1  0  0
                       0 -1  0   1 -1  0   0 -1  1       0  1  0  -1  1  0   0  1 -1
                       1  0 -1   0  0 -1   0  1 -1      -1  0  1   0  0  1   0 -1  1
                       0  1  0   0  0  1   1  0  0       0 -1  0   0  0 -1  -1  0  0
                       1  0 -1   0  1 -1   0  0 -1      -1  0  1   0 -1  1   0  0  1
                       0 -1  0   0 -1  1   1 -1  0       0  1  0   0  1 -1  -1  1  0
                      -1  0  1  -1  0  0  -1  1  0       1  0 -1   1  0  0   1 -1  0
                       0  1  0   1  0  0   0  0  1       0 -1  0  -1  0  0   0  0 -1
                       0  0 -1   0  1 -1   1  0 -1       0  0  1   0 -1  1  -1  0  1
                       1 -1  0   0 -1  1   0 -1  0      -1  1  0   0  1 -1   0  1  0
                       0  0  1   1  0  0   0  1  0       0  0 -1  -1  0  0   0 -1  0
                      -1  1  0  -1  0  0  -1  0  1       1 -1  0   1  0  0   1  0 -1
                       0  0  1   0  1  0   1  0  0       0  0 -1   0 -1  0  -1  0  0
                       1 -1  0   0 -1  0   0 -1  1      -1  1  0   0  1  0   0  1 -1
                       0  0 -1   1  0 -1   0  1 -1       0  0  1  -1  0  1   0 -1  1
                      -1  1  0  -1  0  1  -1  0  0       1 -1  0   1  0 -1   1  0  0
            tnons      0.0000000  0.0000000  0.0000000     0.2500000  0.2500000  0.2500000
                       0.0000000  0.0000000  0.0000000     0.2500000  0.2500000  0.2500000
                       0.0000000  0.0000000  0.0000000     0.2500000  0.2500000  0.2500000
                       0.0000000  0.0000000  0.0000000     0.2500000  0.2500000  0.2500000
                       0.0000000  0.0000000  0.0000000     0.2500000  0.2500000  0.2500000
                       0.0000000  0.0000000  0.0000000     0.2500000  0.2500000  0.2500000
                       0.0000000  0.0000000  0.0000000     0.2500000  0.2500000  0.2500000
                       0.0000000  0.0000000  0.0000000     0.2500000  0.2500000  0.2500000
                       0.0000000  0.0000000  0.0000000     0.2500000  0.2500000  0.2500000
                       0.0000000  0.0000000  0.0000000     0.2500000  0.2500000  0.2500000
                       0.0000000  0.0000000  0.0000000     0.2500000  0.2500000  0.2500000
                       0.0000000  0.0000000  0.0000000     0.2500000  0.2500000  0.2500000
                       0.0000000  0.0000000  0.0000000     0.2500000  0.2500000  0.2500000
                       0.0000000  0.0000000  0.0000000     0.2500000  0.2500000  0.2500000
                       0.0000000  0.0000000  0.0000000     0.2500000  0.2500000  0.2500000
                       0.0000000  0.0000000  0.0000000     0.2500000  0.2500000  0.2500000
                       0.0000000  0.0000000  0.0000000     0.2500000  0.2500000  0.2500000
                       0.0000000  0.0000000  0.0000000     0.2500000  0.2500000  0.2500000
                       0.0000000  0.0000000  0.0000000     0.2500000  0.2500000  0.2500000
                       0.0000000  0.0000000  0.0000000     0.2500000  0.2500000  0.2500000
                       0.0000000  0.0000000  0.0000000     0.2500000  0.2500000  0.2500000
                       0.0000000  0.0000000  0.0000000     0.2500000  0.2500000  0.2500000
                       0.0000000  0.0000000  0.0000000     0.2500000  0.2500000  0.2500000
                       0.0000000  0.0000000  0.0000000     0.2500000  0.2500000  0.2500000
           tolwfr      1.00000000E-18
            typat      1  1
              wtk1       0.75000    0.25000
              wtk2       0.18750    0.37500    0.09375    0.18750    0.12500    0.03125
              wtk3       0.18750    0.37500    0.09375    0.18750    0.12500    0.03125
              wtk4       0.18750    0.37500    0.09375    0.18750    0.12500    0.03125
           xangst      0.0000000000E+00  0.0000000000E+00  0.0000000000E+00
                       1.3575000000E+00  1.3575000000E+00  1.3575000000E+00
            xcart      0.0000000000E+00  0.0000000000E+00  0.0000000000E+00
                       2.5653032254E+00  2.5653032254E+00  2.5653032254E+00
             xred      0.0000000000E+00  0.0000000000E+00  0.0000000000E+00
                       2.5000000000E-01  2.5000000000E-01  2.5000000000E-01
            znucl       14.00000

================================================================================


- Timing analysis has been suppressed with timopt=0



================================================================================

 Suggested references for the acknowledgment of ABINIT usage.

 The users of ABINIT have little formal obligations with respect to the ABINIT group
 (those specified in the GNU General Public License, http://www.gnu.org/copyleft/gpl.txt).
 However, it is common practice in the scientific literature,
 to acknowledge the efforts of people that have made the research possible.
 In this spirit, please find below suggested citations of work written by ABINIT developers,
 corresponding to implementations inside of ABINIT that you have used in the present run.
 Note also that it will be of great value to readers of publications presenting these results,
 to read papers enabling them to understand the theoretical formalism and details
 of the ABINIT implementation.
 For information on why they are suggested, see also http://www.abinit.org/about/?text=acknowledgments.

 [1] ABINIT : First-principles approach of materials and nanosystem properties.
 X. Gonze, B. Amadon, P.-M. Anglade, J.-M. Beuken, F. Bottin, P. Boulanger, F. Bruneval,
 D. Caliste, R. Caracas, M. Cote, T. Deutsch, L. Genovese, Ph. Ghosez, M. Giantomassi
 S. Goedecker, D.R. Hamann, P. Hermet, F. Jollet, G. Jomard, S. Leroux, M. Mancini, S. Mazevet,
 M.J.T. Oliveira, G. Onida, Y. Pouillon, T. Rangel, G.-M. Rignanese, D. Sangalli, R. Shaltaf,
 M. Torrent, M.J. Verstraete, G. Zerah, J.W. Zwanziger
 Computer Phys. Comm. 180, 2582-2615 (2009).
 Comment : the third generic paper describing the ABINIT project.
 Note that a version of this paper, that is not formatted for Computer Phys. Comm. 
 is available at http://www.abinit.org/about/ABINIT_CPC_v10.pdf .
 The licence allows the authors to put it on the Web.

 [2] A brief introduction to the ABINIT software package.
 X. Gonze, G.-M. Rignanese, M. Verstraete, J.-M. Beuken, Y. Pouillon, R. Caracas, F. Jollet,
 M. Torrent, G. Zerah, M. Mikami, Ph. Ghosez, M. Veithen, J.-Y. Raty, V. Olevano, F. Bruneval,
 L. Reining, R. Godby, G. Onida, D.R. Hamann, and D.C. Allan.
 Z. Kristallogr. 220, 558-562 (2005).
 Comment : the second generic paper describing the ABINIT project. Note that this paper
 should be cited especially if you are using the GW part of ABINIT, as several authors
 of this part are not in the list of authors of the first or third paper.
 The .pdf of the latter paper is available at http://www.abinit.org/about/zfk_0505-06_558-562.pdf.
 Note that it should not redistributed (Copyright by Oldenburg Wissenshaftverlag,
 the licence allows the authors to put it on the Web).


 And optionally :

 [3] First-principles computation of material properties : the ABINIT software project. 
 X. Gonze, J.-M. Beuken, R. Caracas, F. Detraux, M. Fuchs, G.-M. Rignanese, L. Sindic,
 M. Verstraete, G. Zerah, F. Jollet, M. Torrent, A. Roy, M. Mikami, Ph. Ghosez, J.-Y. Raty, D.C. Allan.
 Computational Materials Science 25, 478-492 (2002). http://dx.doi.org/10.1016/S0927-0256(02)00325-7
 Comment : the original paper describing the ABINIT project.

 [4] Fast radix 2, 3, 4 and 5 kernels for Fast Fourier Transformations
 on computers with overlapping multiply-add instructions.
 S. Goedecker, SIAM J. on Scientific Computing 18, 1605 (1997).

 [5] Towards a potential-based conjugate gradient algorithm for order-N self-consistent
 total energy calculations.
 X. Gonze, Phys. Rev. B 54, 4383 (1996).
 Comment : The potential-based conjugate-gradient algorithm, used when iscf=5, is not published.
 However, many elements of this algorithm have been explained in the paper above.
-
- Proc.   0 individual time (sec): cpu=          8.7  wall=          8.7

================================================================================

 Calculation completed.
.Delivered    0 WARNINGs and   0 COMMENTs to log file.
+Overall time at end (sec) : cpu=         34.5  wall=         34.6
