
.Version 7.9.3 of ABINIT 
.(MPI version, prepared for a x86_64_linux_gnu4.7 computer) 

.Copyright (C) 1998-2014 ABINIT group . 
 ABINIT comes with ABSOLUTELY NO WARRANTY.
 It is free software, and you are welcome to redistribute it
 under certain conditions (GNU General Public License,
 see ~abinit/COPYING or http://www.gnu.org/copyleft/gpl.txt).

 ABINIT is a project of the Universite Catholique de Louvain,
 Corning Inc. and other collaborators, see ~abinit/doc/developers/contributors.txt .
 Please read ~abinit/doc/users/acknowledgments.html for suggested
 acknowledgments of the ABINIT effort.
 For more information, see http://www.abinit.org .

.Starting date : Sat 30 Aug 2014.
- ( at 10h12 )
  
- input  file    -> t74.in
- output file    -> t74_MPI4.out
- root for input  files -> t74_MPI4i
- root for output files -> t74_MPI4o


 DATASET    1 : space group Fd -3 m (#227); Bravais cF (face-center cubic)
================================================================================
 Values of the parameters that define the memory need for DATASET  1.
   intxc =         0  ionmov =         0    iscf =         5 xclevel =         1
  lmnmax =         2   lnmax =         2   mband =        10  mffmem =         1
P  mgfft =        15   mkmem =         2 mpssoang=         3     mpw =       113
  mqgrid =      3001   natom =         2    nfft =      3375    nkpt =         8
  nloalg =         4  nspden =         1 nspinor =         1  nsppol =         1
    nsym =        48  n1xccc =      2501  ntypat =         1  occopt =         1
================================================================================
P This job should need less than                       1.400 Mbytes of memory.
  Rough estimation (10% accuracy) of disk space for files :
_ WF disk file :      0.140 Mbytes ; DEN or POT disk file :      0.028 Mbytes.
================================================================================


 DATASET    2 : space group Fd -3 m (#227); Bravais cF (face-center cubic)
================================================================================
 Values of the parameters that define the memory need for DATASET  2.
   intxc =         0  ionmov =         0    iscf =         7 xclevel =         1
  lmnmax =         2   lnmax =         2   mband =        10  mffmem =         1
P  mgfft =         8   mkmem =         2 mpssoang=         3     mpw =        28
  mqgrid =      3001   natom =         2    nfft =       512    nkpt =         8
  nloalg =         4  nspden =         1 nspinor =         1  nsppol =         1
    nsym =        48  n1xccc =      2501  ntypat =         1  occopt =         1
================================================================================
P This job should need less than                       0.765 Mbytes of memory.
  Rough estimation (10% accuracy) of disk space for files :
_ WF disk file :      0.036 Mbytes ; DEN or POT disk file :      0.006 Mbytes.
================================================================================


 DATASET    3 : space group Fd -3 m (#227); Bravais cF (face-center cubic)
================================================================================
 Values of the parameters that define the memory need for DATASET  3.
   intxc =         0  ionmov =         0    iscf =         7 xclevel =         1
  lmnmax =         2   lnmax =         2   mband =        10  mffmem =         1
P  mgfft =         8   mkmem =         2 mpssoang=         3     mpw =        28
  mqgrid =      3001   natom =         2    nfft =       512    nkpt =         8
  nloalg =         4  nspden =         1 nspinor =         1  nsppol =         1
    nsym =        48  n1xccc =      2501  ntypat =         1  occopt =         1
================================================================================
P This job should need less than                       0.765 Mbytes of memory.
  Rough estimation (10% accuracy) of disk space for files :
_ WF disk file :      0.036 Mbytes ; DEN or POT disk file :      0.006 Mbytes.
================================================================================

--------------------------------------------------------------------------------
------------- Echo of variables that govern the present computation ------------
--------------------------------------------------------------------------------
-
- outvars: echo of selected default values                                      
-   accesswff0 =  0 , fftalg0 =112 , wfoptalg0 =  0
-
- outvars: echo of global parameters not present in the input file              
-  max_nthreads =    0
-
 -outvars: echo values of preprocessed input variables --------
            acell      1.0263000000E+01  1.0263000000E+01  1.0263000000E+01 Bohr
              amu      2.80855000E+01
             awtr1          1
             awtr2          0
             awtr3          1
             bdgw           1       8       1       8       1       8       1       8
                            1       8       1       8       1       8       1       8
             ecut1     4.00000000E+00 Hartree
             ecut2     1.49923969E+00 Hartree
             ecut3     1.49923969E+00 Hartree
          ecuteps1     0.00000000E+00 Hartree
          ecuteps2     1.49923969E+00 Hartree
          ecuteps3     0.00000000E+00 Hartree
         ecutsigx1     0.00000000E+00 Hartree
         ecutsigx2     0.00000000E+00 Hartree
         ecutsigx3     1.49923969E+00 Hartree
          ecutwfn1     0.00000000E+00 Hartree
          ecutwfn2     1.49923969E+00 Hartree
          ecutwfn3     1.49923969E+00 Hartree
           enunit           2
-          fftalg         112
        freqremax1     0.00000000E+00 Hartree
        freqremax2     1.00000000E+00 Hartree
        freqremax3     0.00000000E+00 Hartree
           getkss1          0
           getkss2          1
           getkss3          1
           getscr1          0
           getscr2          0
           getscr3          2
        gwcalctyp1          0
        gwcalctyp2          2
        gwcalctyp3          2
           gwpara           2
         icutcoul1          6
         icutcoul2          6
         icutcoul3          3
             iscf1          5
             iscf2          7
             iscf3          7
           istwfk        1    0    1    0    0    0    1    0
           jdtset        1    2    3
              kpt      0.00000000E+00  0.00000000E+00  0.00000000E+00
                       2.50000000E-01  0.00000000E+00  0.00000000E+00
                       5.00000000E-01  0.00000000E+00  0.00000000E+00
                       2.50000000E-01  2.50000000E-01  0.00000000E+00
                       5.00000000E-01  2.50000000E-01  0.00000000E+00
                      -2.50000000E-01  2.50000000E-01  0.00000000E+00
                       5.00000000E-01  5.00000000E-01  0.00000000E+00
                      -2.50000000E-01  5.00000000E-01  2.50000000E-01
            kptgw      0.00000000E+00  0.00000000E+00  0.00000000E+00
                       2.50000000E-01  0.00000000E+00  0.00000000E+00
                       5.00000000E-01  0.00000000E+00  0.00000000E+00
                       2.50000000E-01  2.50000000E-01  0.00000000E+00
                       5.00000000E-01  2.50000000E-01  0.00000000E+00
                      -2.50000000E-01  2.50000000E-01  0.00000000E+00
                       5.00000000E-01  5.00000000E-01  0.00000000E+00
                      -2.50000000E-01  5.00000000E-01  2.50000000E-01
         kptrlatt        4    0    0      0    4    0      0    0    4
          kptrlen      2.90281476E+01
          kssform1          3
          kssform2          1
          kssform3          1
P           mkmem           2
            natom           2
            nband          10
         nbandkss1         10
         nbandkss2          0
         nbandkss3          0
           ndtset           3
          nfreqim1         -1
          nfreqim2          4
          nfreqim3         -1
          nfreqre1         -1
          nfreqre2          8
          nfreqre3         -1
            ngfft1         15      15      15
            ngfft2          8       8       8
            ngfft3          8       8       8
             nkpt           8
           nkptgw           8
           npweps1          0
           npweps2         27
           npweps3          0
           npwkss1         27
           npwkss2          0
           npwkss3          0
          npwsigx1          0
          npwsigx2          0
          npwsigx3         27
           npwwfn1          0
           npwwfn2         27
           npwwfn3         27
           nsheps1          0
           nsheps2          4
           nsheps3          0
          nshsigx1          0
          nshsigx2          0
          nshsigx3          4
            nstep          20
             nsym          48
           ntypat           1
              occ      2.000000  2.000000  2.000000  2.000000  0.000000  0.000000
                       0.000000  0.000000  0.000000  0.000000
        optdriver1          0
        optdriver2          3
        optdriver3          4
        optforces           1
         rhoqpmix      5.00000000E-01
            rprim      0.0000000000E+00  5.0000000000E-01  5.0000000000E-01
                       5.0000000000E-01  0.0000000000E+00  5.0000000000E-01
                       5.0000000000E-01  5.0000000000E-01  0.0000000000E+00
          spgroup         227
           symrel      1  0  0   0  1  0   0  0  1      -1  0  0   0 -1  0   0  0 -1
                       0 -1  1   0 -1  0   1 -1  0       0  1 -1   0  1  0  -1  1  0
                      -1  0  0  -1  0  1  -1  1  0       1  0  0   1  0 -1   1 -1  0
                       0  1 -1   1  0 -1   0  0 -1       0 -1  1  -1  0  1   0  0  1
                      -1  0  0  -1  1  0  -1  0  1       1  0  0   1 -1  0   1  0 -1
                       0 -1  1   1 -1  0   0 -1  0       0  1 -1  -1  1  0   0  1  0
                       1  0  0   0  0  1   0  1  0      -1  0  0   0  0 -1   0 -1  0
                       0  1 -1   0  0 -1   1  0 -1       0 -1  1   0  0  1  -1  0  1
                      -1  0  1  -1  1  0  -1  0  0       1  0 -1   1 -1  0   1  0  0
                       0 -1  0   1 -1  0   0 -1  1       0  1  0  -1  1  0   0  1 -1
                       1  0 -1   0  0 -1   0  1 -1      -1  0  1   0  0  1   0 -1  1
                       0  1  0   0  0  1   1  0  0       0 -1  0   0  0 -1  -1  0  0
                       1  0 -1   0  1 -1   0  0 -1      -1  0  1   0 -1  1   0  0  1
                       0 -1  0   0 -1  1   1 -1  0       0  1  0   0  1 -1  -1  1  0
                      -1  0  1  -1  0  0  -1  1  0       1  0 -1   1  0  0   1 -1  0
                       0  1  0   1  0  0   0  0  1       0 -1  0  -1  0  0   0  0 -1
                       0  0 -1   0  1 -1   1  0 -1       0  0  1   0 -1  1  -1  0  1
                       1 -1  0   0 -1  1   0 -1  0      -1  1  0   0  1 -1   0  1  0
                       0  0  1   1  0  0   0  1  0       0  0 -1  -1  0  0   0 -1  0
                      -1  1  0  -1  0  0  -1  0  1       1 -1  0   1  0  0   1  0 -1
                       0  0  1   0  1  0   1  0  0       0  0 -1   0 -1  0  -1  0  0
                       1 -1  0   0 -1  0   0 -1  1      -1  1  0   0  1  0   0  1 -1
                       0  0 -1   1  0 -1   0  1 -1       0  0  1  -1  0  1   0 -1  1
                      -1  1  0  -1  0  1  -1  0  0       1 -1  0   1  0 -1   1  0  0
            tnons      0.0000000  0.0000000  0.0000000     0.2500000  0.2500000  0.2500000
                       0.0000000  0.0000000  0.0000000     0.2500000  0.2500000  0.2500000
                       0.0000000  0.0000000  0.0000000     0.2500000  0.2500000  0.2500000
                       0.0000000  0.0000000  0.0000000     0.2500000  0.2500000  0.2500000
                       0.0000000  0.0000000  0.0000000     0.2500000  0.2500000  0.2500000
                       0.0000000  0.0000000  0.0000000     0.2500000  0.2500000  0.2500000
                       0.0000000  0.0000000  0.0000000     0.2500000  0.2500000  0.2500000
                       0.0000000  0.0000000  0.0000000     0.2500000  0.2500000  0.2500000
                       0.0000000  0.0000000  0.0000000     0.2500000  0.2500000  0.2500000
                       0.0000000  0.0000000  0.0000000     0.2500000  0.2500000  0.2500000
                       0.0000000  0.0000000  0.0000000     0.2500000  0.2500000  0.2500000
                       0.0000000  0.0000000  0.0000000     0.2500000  0.2500000  0.2500000
                       0.0000000  0.0000000  0.0000000     0.2500000  0.2500000  0.2500000
                       0.0000000  0.0000000  0.0000000     0.2500000  0.2500000  0.2500000
                       0.0000000  0.0000000  0.0000000     0.2500000  0.2500000  0.2500000
                       0.0000000  0.0000000  0.0000000     0.2500000  0.2500000  0.2500000
                       0.0000000  0.0000000  0.0000000     0.2500000  0.2500000  0.2500000
                       0.0000000  0.0000000  0.0000000     0.2500000  0.2500000  0.2500000
                       0.0000000  0.0000000  0.0000000     0.2500000  0.2500000  0.2500000
                       0.0000000  0.0000000  0.0000000     0.2500000  0.2500000  0.2500000
                       0.0000000  0.0000000  0.0000000     0.2500000  0.2500000  0.2500000
                       0.0000000  0.0000000  0.0000000     0.2500000  0.2500000  0.2500000
                       0.0000000  0.0000000  0.0000000     0.2500000  0.2500000  0.2500000
                       0.0000000  0.0000000  0.0000000     0.2500000  0.2500000  0.2500000
           toldfe1     1.00000000E-08 Hartree
           toldfe2     0.00000000E+00 Hartree
           toldfe3     0.00000000E+00 Hartree
            typat      1  1
              wtk        0.01563    0.12500    0.06250    0.09375    0.37500    0.18750
                         0.04688    0.09375
           xangst      0.0000000000E+00  0.0000000000E+00  0.0000000000E+00
                       1.3577364229E+00  1.3577364229E+00  1.3577364229E+00
            xcart      0.0000000000E+00  0.0000000000E+00  0.0000000000E+00
                       2.5657500000E+00  2.5657500000E+00  2.5657500000E+00
             xred      0.0000000000E+00  0.0000000000E+00  0.0000000000E+00
                       2.5000000000E-01  2.5000000000E-01  2.5000000000E-01
            znucl       14.00000

================================================================================

 chkinp: Checking input parameters for consistency, jdtset=   1.

 chkinp: Checking input parameters for consistency, jdtset=   2.

 chkinp: Checking input parameters for consistency, jdtset=   3.

================================================================================
== DATASET  1 ==================================================================
-   nproc =    4

 Exchange-correlation functional for the present dataset will be:
  LDA: new Teter (4/93) with spin-polarized option - ixc=1
 Citation for XC functional:
  S. Goedecker, M. Teter, J. Huetter, PRB 54, 1703 (1996)

 Real(R)+Recip(G) space primitive vectors, cartesian coordinates (Bohr,Bohr^-1):
 R(1)=  0.0000000  5.1315000  5.1315000  G(1)= -0.0974374  0.0974374  0.0974374
 R(2)=  5.1315000  0.0000000  5.1315000  G(2)=  0.0974374 -0.0974374  0.0974374
 R(3)=  5.1315000  5.1315000  0.0000000  G(3)=  0.0974374  0.0974374 -0.0974374
 Unit cell volume ucvol=  2.7024832E+02 bohr^3
 Angles (23,13,12)=  6.00000000E+01  6.00000000E+01  6.00000000E+01 degrees

 getcut: wavevector=  0.0000  0.0000  0.0000  ngfft=  15  15  15
         ecut(hartree)=      4.000   => boxcut(ratio)=   2.15366

--- Pseudopotential description ------------------------------------------------
- pspini: atom type   1  psp file is /data/ABINIT/testf_gcc47/trunk_7.9.3-private/tests/Psps_for_tests/14si.pspnc
- pspatm: opening atomic psp file    /data/ABINIT/testf_gcc47/trunk_7.9.3-private/tests/Psps_for_tests/14si.pspnc
-  Troullier-Martins psp for element  Si        Thu Oct 27 17:31:21 EDT 1994
- 14.00000   4.00000    940714                znucl, zion, pspdat
    1    1    2    2      2001   0.00000      pspcod,pspxc,lmax,lloc,mmax,r2well
    0   5.907  14.692    1   2.0872718        l,e99.0,e99.9,nproj,rcpsp
   0.00000000   0.00000000   0.00000000   0.00000000     rms, ekb1, ekb2, epsatm
    1   2.617   4.181    1   2.0872718        l,e99.0,e99.9,nproj,rcpsp
   0.00000000   0.00000000   0.00000000   0.00000000     rms, ekb1, ekb2, epsatm
    2   0.000   0.000    0   2.0872718        l,e99.0,e99.9,nproj,rcpsp
   0.00000000   0.00000000   0.00000000   0.00000000     rms, ekb1, ekb2, epsatm
    1.80626423934776    0.22824404341771    1.17378968127746   rchrg,fchrg,qchrg
 pspatm: epsatm=    1.43386982
         --- l  ekb(1:nproj) -->
             0    3.287949
             1    1.849886
 pspatm: atomic psp has been read  and splines computed

   2.29419171E+01                                ecore*ucvol(ha*bohr**3)
--------------------------------------------------------------------------------

P newkpt: treating     10 bands with npw=     113 for ikpt=   1 by node    0
P newkpt: treating     10 bands with npw=     104 for ikpt=   2 by node    0
P newkpt: treating     10 bands with npw=     108 for ikpt=   3 by node    1
P newkpt: treating     10 bands with npw=     101 for ikpt=   4 by node    1
P newkpt: treating     10 bands with npw=     104 for ikpt=   5 by node    2
P newkpt: treating     10 bands with npw=      97 for ikpt=   6 by node    2
P newkpt: treating     10 bands with npw=     108 for ikpt=   7 by node    3
P newkpt: treating     10 bands with npw=     108 for ikpt=   8 by node    3

_setup2: Arith. and geom. avg. npw (full set) are     103.359     103.290

================================================================================

     iter   Etot(hartree)      deltaE(h)  residm     vres2    diffor    maxfor
 ETOT  1  -8.8252451726459    -8.825E+00 8.037E-03 2.229E+00 0.000E+00 0.000E+00
 ETOT  2  -8.8296244581881    -4.379E-03 5.901E-05 9.870E-02 0.000E+00 0.000E+00
 ETOT  3  -8.8297330126877    -1.086E-04 5.399E-05 1.944E-02 0.000E+00 0.000E+00
 ETOT  4  -8.8297450575827    -1.204E-05 4.099E-05 2.528E-03 3.052E-29 3.052E-29
 ETOT  5  -8.8297468690309    -1.811E-06 2.287E-05 1.723E-04 5.166E-29 3.133E-29
 ETOT  6  -8.8297470698964    -2.009E-07 1.818E-05 2.318E-06 2.114E-29 1.312E-29
 ETOT  7  -8.8297470720688    -2.172E-09 8.747E-06 5.935E-09 1.303E-29 3.189E-30
 ETOT  8  -8.8297470720692    -3.926E-13 6.972E-06 6.267E-09 8.929E-30 5.739E-30

 At SCF step    8, etot is converged : 
  for the second time, diff in etot=  3.926E-13 < toldfe=  1.000E-08

 Cartesian components of stress tensor (hartree/bohr^3)
  sigma(1 1)=  2.27125926E-04  sigma(3 2)=  0.00000000E+00
  sigma(2 2)=  2.27125926E-04  sigma(3 1)=  0.00000000E+00
  sigma(3 3)=  2.27125926E-04  sigma(2 1)=  0.00000000E+00


======================================================================
 Calculating and writing out Kohn-Sham electronic Structure file
 Using conjugate gradient wavefunctions and energies (kssform=3)
 number of Gamma centered plane waves     27
 number of Gamma centered shells      4
 number of bands     10
 maximum angular momentum components      3
 Conjugate gradient eigenvalues
   k    eigenvalues [Hartree]
   1     -0.2198  0.2162  0.2162  0.2162  0.3076  0.3076  0.3076  0.3325  0.4970
          0.5157
   2     -0.1901  0.0711  0.1867  0.1867  0.2932  0.3447  0.3447  0.4624  0.4958
          0.4958
   3     -0.1347 -0.0416  0.1694  0.1694  0.2751  0.3408  0.3408  0.4913  0.6256
          0.6303
   4     -0.1798  0.0895  0.1438  0.1438  0.2564  0.3339  0.4322  0.4322  0.5080
          0.5668
   5     -0.1203 -0.0168  0.0831  0.1318  0.2719  0.3816  0.4284  0.4393  0.5921
          0.6215
   6     -0.1441  0.0175  0.0744  0.1651  0.3072  0.3933  0.4111  0.4389  0.4707
          0.5719
   7     -0.0686 -0.0686  0.1073  0.1073  0.2421  0.2421  0.5824  0.5824  0.6531
          0.6531
   8     -0.0621 -0.0621  0.0699  0.0699  0.3754  0.3754  0.4000  0.4000  0.6162
          0.6162
 Test on the normalization of the wavefunctions
  min sum_G |a(n,k,G)| =  0.718307
  max sum_G |a(n,k,G)| =  0.994137
 Test on the orthogonalization of the wavefunctions
  min sum_G a(n,k,G)a(n',k,G) =  0.000000
  max sum_G a(n,k,G)a(n',k,G) =  0.162390

================================================================================

 ----iterations are completed or convergence reached----

 Mean square residual over all n,k,spin=   8.7271E-08; max=  6.9719E-06
   0.0000  0.0000  0.0000    1  3.03335E-12 kpt; spin; max resid(k); each band:
  1.10E-16 4.64E-17 4.64E-17 4.64E-17 5.25E-18 5.25E-18 5.24E-18 5.84E-18
  3.03E-12 8.09E-17
   0.2500  0.0000  0.0000    1  6.64461E-14 kpt; spin; max resid(k); each band:
  2.08E-16 3.06E-15 1.17E-15 1.17E-15 4.12E-15 4.51E-16 4.51E-16 6.64E-14
  9.15E-15 2.44E-14
   0.5000  0.0000  0.0000    1  6.97191E-06 kpt; spin; max resid(k); each band:
  1.07E-17 7.21E-15 1.87E-15 1.42E-15 2.29E-14 8.14E-17 8.14E-17 3.35E-16
  6.97E-06 9.76E-09
   0.2500  0.2500  0.0000    1  9.80739E-15 kpt; spin; max resid(k); each band:
  1.79E-16 6.87E-15 1.44E-15 1.44E-15 2.34E-16 4.16E-15 1.48E-15 1.48E-15
  9.81E-15 8.49E-16
   0.5000  0.2500  0.0000    1  2.18579E-13 kpt; spin; max resid(k); each band:
  4.80E-16 7.26E-16 1.55E-15 1.70E-15 1.85E-15 3.97E-15 4.99E-15 2.04E-15
  2.19E-13 1.41E-13
  -0.2500  0.2500  0.0000    1  4.76332E-15 kpt; spin; max resid(k); each band:
  3.55E-16 1.52E-15 1.32E-15 1.17E-15 2.14E-15 9.03E-18 4.76E-15 3.30E-15
  1.18E-15 4.32E-15
   0.5000  0.5000  0.0000    1  2.66799E-11 kpt; spin; max resid(k); each band:
  1.03E-16 1.03E-16 3.70E-15 3.70E-15 5.33E-16 5.33E-16 4.43E-15 7.58E-16
  8.10E-12 2.67E-11
  -0.2500  0.5000  0.2500    1  3.46993E-14 kpt; spin; max resid(k); each band:
  4.85E-16 4.85E-16 1.34E-15 1.34E-15 4.04E-15 4.04E-15 4.71E-16 4.71E-16
  1.33E-14 3.47E-14
 reduced coordinates (array xred) for    2 atoms
       0.000000000000      0.000000000000      0.000000000000
       0.250000000000      0.250000000000      0.250000000000
 rms dE/dt=  4.3992E-29; max dE/dt=  7.5731E-29; dE/dt below (all hartree)
    1      -0.000000000000      0.000000000000      0.000000000000
    2      -0.000000000000     -0.000000000000      0.000000000000

 cartesian coordinates (angstrom) at end:
    1      0.00000000000000     0.00000000000000     0.00000000000000
    2      1.35773642293979     1.35773642293979     1.35773642293979

 cartesian forces (hartree/bohr) at end:
    1     -0.00000000000000     0.00000000000000    -0.00000000000000
    2      0.00000000000000    -0.00000000000000     0.00000000000000
 frms,max,avg= 5.7392199E-30 5.7392199E-30   0.000E+00  0.000E+00  0.000E+00 h/b

 cartesian forces (eV/Angstrom) at end:
    1     -0.00000000000000     0.00000000000000    -0.00000000000000
    2      0.00000000000000    -0.00000000000000     0.00000000000000
 frms,max,avg= 2.9512253E-28 2.9512253E-28   0.000E+00  0.000E+00  0.000E+00 e/A
 length scales= 10.263000000000 10.263000000000 10.263000000000 bohr
              =  5.430945691759  5.430945691759  5.430945691759 angstroms
 prteigrs : about to open file t74_MPI4o_DS1_EIG
 Fermi (or HOMO) energy (hartree) =   0.21616   Average Vxc (hartree)=  -0.35243
 Eigenvalues (hartree) for nkpt=   8  k points:
 kpt#   1, nband= 10, wtk=  0.01563, kpt=  0.0000  0.0000  0.0000 (reduced coord)
  -0.21984   0.21616   0.21616   0.21616   0.30763   0.30763   0.30763   0.33251
   0.49702   0.51568
 kpt#   2, nband= 10, wtk=  0.12500, kpt=  0.2500  0.0000  0.0000 (reduced coord)
  -0.19014   0.07113   0.18673   0.18673   0.29320   0.34468   0.34468   0.46238
   0.49583   0.49583
 kpt#   3, nband= 10, wtk=  0.06250, kpt=  0.5000  0.0000  0.0000 (reduced coord)
  -0.13469  -0.04163   0.16944   0.16944   0.27505   0.34075   0.34075   0.49132
   0.62556   0.63027
 kpt#   4, nband= 10, wtk=  0.09375, kpt=  0.2500  0.2500  0.0000 (reduced coord)
  -0.17977   0.08950   0.14383   0.14383   0.25643   0.33386   0.43216   0.43216
   0.50799   0.56682
 kpt#   5, nband= 10, wtk=  0.37500, kpt=  0.5000  0.2500  0.0000 (reduced coord)
  -0.12035  -0.01684   0.08307   0.13182   0.27189   0.38157   0.42839   0.43929
   0.59215   0.62152
 kpt#   6, nband= 10, wtk=  0.18750, kpt= -0.2500  0.2500  0.0000 (reduced coord)
  -0.14411   0.01752   0.07443   0.16510   0.30723   0.39331   0.41110   0.43892
   0.47071   0.57193
 kpt#   7, nband= 10, wtk=  0.04688, kpt=  0.5000  0.5000  0.0000 (reduced coord)
  -0.06865  -0.06865   0.10734   0.10734   0.24209   0.24209   0.58239   0.58239
   0.65306   0.65306
 kpt#   8, nband= 10, wtk=  0.09375, kpt= -0.2500  0.5000  0.2500 (reduced coord)
  -0.06215  -0.06215   0.06987   0.06987   0.37541   0.37541   0.40004   0.40004
   0.61624   0.61624
 Fermi (or HOMO) energy (eV) =   5.88196   Average Vxc (eV)=  -9.59021
 Eigenvalues (   eV  ) for nkpt=   8  k points:
 kpt#   1, nband= 10, wtk=  0.01563, kpt=  0.0000  0.0000  0.0000 (reduced coord)
  -5.98220   5.88196   5.88196   5.88196   8.37092   8.37092   8.37092   9.04810
  13.52456  14.03227
 kpt#   2, nband= 10, wtk=  0.12500, kpt=  0.2500  0.0000  0.0000 (reduced coord)
  -5.17409   1.93552   5.08120   5.08120   7.97835   9.37914   9.37914  12.58197
  13.49214  13.49214
 kpt#   3, nband= 10, wtk=  0.06250, kpt=  0.5000  0.0000  0.0000 (reduced coord)
  -3.66500  -1.13272   4.61081   4.61081   7.48450   9.27228   9.27228  13.36956
  17.02243  17.15045
 kpt#   4, nband= 10, wtk=  0.09375, kpt=  0.2500  0.2500  0.0000 (reduced coord)
  -4.89182   2.43541   3.91392   3.91392   6.97772   9.08474  11.75963  11.75963
  13.82323  15.42401
 kpt#   5, nband= 10, wtk=  0.37500, kpt=  0.5000  0.2500  0.0000 (reduced coord)
  -3.27476  -0.45830   2.26047   3.58705   7.39849  10.38318  11.65722  11.95382
  16.11314  16.91242
 kpt#   6, nband= 10, wtk=  0.18750, kpt= -0.2500  0.2500  0.0000 (reduced coord)
  -3.92147   0.47668   2.02544   4.49260   8.36013  10.70243  11.18647  11.94354
  12.80873  15.56292
 kpt#   7, nband= 10, wtk=  0.04688, kpt=  0.5000  0.5000  0.0000 (reduced coord)
  -1.86793  -1.86793   2.92090   2.92090   6.58768   6.58768  15.84766  15.84766
  17.77059  17.77059
 kpt#   8, nband= 10, wtk=  0.09375, kpt= -0.2500  0.5000  0.2500 (reduced coord)
  -1.69114  -1.69114   1.90130   1.90130  10.21552  10.21552  10.88562  10.88562
  16.76884  16.76884
 Total charge density [el/Bohr^3]
,     Maximum=    8.7811E-02  at reduced coord.    0.1333    0.1333    0.6000
,Next maximum=    8.7811E-02  at reduced coord.    0.1333    0.6000    0.1333
,     Minimum=    3.3228E-03  at reduced coord.    0.7333    0.7333    0.7333
,Next minimum=    3.3228E-03  at reduced coord.    0.8000    0.7333    0.7333
,  Integrated=    8.0000E+00

--------------------------------------------------------------------------------
 Components of total free energy (in Hartree) :

    Kinetic energy  =  2.96410221490487E+00
    Hartree energy  =  5.43236402647646E-01
    XC energy       = -3.53253195349539E+00
    Ewald energy    = -8.39800922793231E+00
    PspCore energy  =  8.48919894704955E-02
    Loc. psp. energy= -2.51053483471022E+00
    NL   psp  energy=  2.01909833704571E+00
    >>>>>>>>> Etotal= -8.82974707206920E+00

 Other information on the energy :
    Total energy(eV)= -2.40269636964786E+02 ; Band energy (Ha)=   2.4512320610E-01
--------------------------------------------------------------------------------

 Cartesian components of stress tensor (hartree/bohr^3)
  sigma(1 1)=  2.27125926E-04  sigma(3 2)=  0.00000000E+00
  sigma(2 2)=  2.27125926E-04  sigma(3 1)=  0.00000000E+00
  sigma(3 3)=  2.27125926E-04  sigma(2 1)=  0.00000000E+00

-Cartesian components of stress tensor (GPa)         [Pressure= -6.6823E+00 GPa]
- sigma(1 1)=  6.68227431E+00  sigma(3 2)=  0.00000000E+00
- sigma(2 2)=  6.68227431E+00  sigma(3 1)=  0.00000000E+00
- sigma(3 3)=  6.68227431E+00  sigma(2 1)=  0.00000000E+00

================================================================================
== DATASET  2 ==================================================================
-   nproc =    4

 mkfilename : getkss/=0, take file _KSS from output of DATASET   1.

 Exchange-correlation functional for the present dataset will be:
  LDA: new Teter (4/93) with spin-polarized option - ixc=1
 Citation for XC functional:
  S. Goedecker, M. Teter, J. Huetter, PRB 54, 1703 (1996)

 SCREENING: Calculation of the susceptibility and dielectric matrices 

 Based on a program developped by R.W. Godby, V. Olevano, G. Onida, and L. Reining.
 Incorporated in ABINIT by V. Olevano, G.-M. Rignanese, and M. Torrent.
.Using double precision arithmetic ; gwpc =  8

 Real(R)+Recip(G) space primitive vectors, cartesian coordinates (Bohr,Bohr^-1):
 R(1)=  0.0000000  5.1315000  5.1315000  G(1)= -0.0974374  0.0974374  0.0974374
 R(2)=  5.1315000  0.0000000  5.1315000  G(2)=  0.0974374 -0.0974374  0.0974374
 R(3)=  5.1315000  5.1315000  0.0000000  G(3)=  0.0974374  0.0974374 -0.0974374
 Unit cell volume ucvol=  2.7024832E+02 bohr^3
 Angles (23,13,12)=  6.00000000E+01  6.00000000E+01  6.00000000E+01 degrees

--- Pseudopotential description ------------------------------------------------
- pspini: atom type   1  psp file is /data/ABINIT/testf_gcc47/trunk_7.9.3-private/tests/Psps_for_tests/14si.pspnc
- pspatm: opening atomic psp file    /data/ABINIT/testf_gcc47/trunk_7.9.3-private/tests/Psps_for_tests/14si.pspnc
-  Troullier-Martins psp for element  Si        Thu Oct 27 17:31:21 EDT 1994
- 14.00000   4.00000    940714                znucl, zion, pspdat
    1    1    2    2      2001   0.00000      pspcod,pspxc,lmax,lloc,mmax,r2well
    0   5.907  14.692    1   2.0872718        l,e99.0,e99.9,nproj,rcpsp
   0.00000000   0.00000000   0.00000000   0.00000000     rms, ekb1, ekb2, epsatm
    1   2.617   4.181    1   2.0872718        l,e99.0,e99.9,nproj,rcpsp
   0.00000000   0.00000000   0.00000000   0.00000000     rms, ekb1, ekb2, epsatm
    2   0.000   0.000    0   2.0872718        l,e99.0,e99.9,nproj,rcpsp
   0.00000000   0.00000000   0.00000000   0.00000000     rms, ekb1, ekb2, epsatm
    1.80626423934776    0.22824404341771    1.17378968127746   rchrg,fchrg,qchrg
 pspatm: epsatm=    1.43386982
         --- l  ekb(1:nproj) -->
             0    3.287949
             1    1.849886
 pspatm: atomic psp has been read  and splines computed

--------------------------------------------------------------------------------

 ==== K-mesh for the wavefunctions ====
 Number of points in the irreducible wedge :     8
 Reduced coordinates and weights : 

     1)     0.00000000E+00  0.00000000E+00  0.00000000E+00       0.01563
     2)     2.50000000E-01  0.00000000E+00  0.00000000E+00       0.12500
     3)     5.00000000E-01  0.00000000E+00  0.00000000E+00       0.06250
     4)     2.50000000E-01  2.50000000E-01  0.00000000E+00       0.09375
     5)     5.00000000E-01  2.50000000E-01  0.00000000E+00       0.37500
     6)    -2.50000000E-01  2.50000000E-01  0.00000000E+00       0.18750
     7)     5.00000000E-01  5.00000000E-01  0.00000000E+00       0.04688
     8)    -2.50000000E-01  5.00000000E-01  2.50000000E-01       0.09375

 Together with 48 symmetry operations and time-reversal symmetry 
 yields    64 points in the full Brillouin Zone.


 ==== Q-mesh for the screening function ====
 Number of points in the irreducible wedge :     8
 Reduced coordinates and weights : 

     1)     0.00000000E+00  0.00000000E+00  0.00000000E+00       0.01563
     2)     2.50000000E-01  0.00000000E+00  0.00000000E+00       0.12500
     3)     5.00000000E-01  0.00000000E+00  0.00000000E+00       0.06250
     4)     2.50000000E-01  2.50000000E-01  0.00000000E+00       0.09375
     5)     5.00000000E-01  2.50000000E-01  0.00000000E+00       0.37500
     6)    -2.50000000E-01  2.50000000E-01  0.00000000E+00       0.18750
     7)     5.00000000E-01  5.00000000E-01  0.00000000E+00       0.04688
     8)    -2.50000000E-01  5.00000000E-01  2.50000000E-01       0.09375

 Together with 48 symmetry operations and time-reversal symmetry 
 yields    64 points in the full Brillouin Zone.


 setmesh: FFT mesh size selected  =  12x 12x 12
          total number of points  =     1728


 screening : taking advantage of time-reversal symmetry 
 Maximum band index for partially occupied states nbvw =     4
 Remaining bands to be divided among processors   nbcw =     6
P Number of bands treated by each node ~    1

 k       eigenvalues [eV]
  1         -5.98   5.88   5.88   5.88   8.37   8.37   8.37   9.05  13.52  14.03

  2         -5.17   1.94   5.08   5.08   7.98   9.38   9.38  12.58  13.49  13.49

  3         -3.66  -1.13   4.61   4.61   7.48   9.27   9.27  13.37  17.02  17.15

  4         -4.89   2.44   3.91   3.91   6.98   9.08  11.76  11.76  13.82  15.42

  5         -3.27  -0.46   2.26   3.59   7.40  10.38  11.66  11.95  16.11  16.91

  6         -3.92   0.48   2.03   4.49   8.36  10.70  11.19  11.94  12.81  15.56

  7         -1.87  -1.87   2.92   2.92   6.59   6.59  15.85  15.85  17.77  17.77

  8         -1.69  -1.69   1.90   1.90  10.22  10.22  10.89  10.89  16.77  16.77

 Number of electrons calculated from density =    7.8947; Expected =    8.0000
 average of density, n =  0.029213
 r_s =    2.0142
 omega_plasma =   16.4870 [eV]


 calculating chi0 at frequencies [eV] :
  1    0.000000E+00    0.000000E+00
  2    3.887341E+00    0.000000E+00
  3    7.774681E+00    0.000000E+00
  4    1.166202E+01    0.000000E+00
  5    1.554936E+01    0.000000E+00
  6    1.943670E+01    0.000000E+00
  7    2.332404E+01    0.000000E+00
  8    2.721138E+01    0.000000E+00
  9    0.000000E+00    4.072848E+00
 10    0.000000E+00    1.116409E+01
 11    0.000000E+00    2.351066E+01
 12    0.000000E+00    4.500728E+01


--------------------------------------------------------------------------------
  q-point number  1        q = ( 0.000000, 0.000000, 0.000000) [r.l.u.]
--------------------------------------------------------------------------------
  chi0(G,G') at the    1 th omega   0.0000   0.0000 [eV]
       1       2       3       4       5       6       7       8       9
    1  -0.000   0.000  -0.000  -0.000   0.000   0.000  -0.000  -0.000   0.000
       -0.000   0.000   0.000  -0.000  -0.000   0.000   0.000  -0.000  -0.000

    2   0.000 -10.822   0.000  -0.091  -0.000  -0.077  -0.002  -0.082   0.001
       -0.000   0.000  -4.820   0.000   0.066   0.000   0.073   0.000   0.070

  chi0(G,G') at the    2 th omega   3.8873   0.0000 [eV]
       1       2       3       4       5       6       7       8       9
    1   0.000  -0.001  -0.000   0.002   0.001  -0.002  -0.001   0.001   0.000
       -0.000   0.000  -0.001  -0.001   0.002   0.001  -0.002  -0.000   0.001

    2   0.000 -12.845   4.330  -1.615  -1.127  -1.601  -1.128  -1.607  -1.126
        0.001  -4.985  -5.446   1.227  -1.188   1.227  -1.183   1.227  -1.186

  chi0(G,G') at the    3 th omega   7.7747   0.0000 [eV]
       1       2       3       4       5       6       7       8       9
    1   0.000   0.000  -0.000  -0.000   0.001   0.000  -0.001  -0.000   0.000
       -0.000   0.000   0.000  -0.001  -0.000   0.001   0.000  -0.000  -0.000

    2   0.000 -28.950   2.601  -1.940  -1.157  -1.961  -1.147  -1.973  -1.143
       -0.000 -13.417  -6.547  -2.198   3.058  -2.209   3.027  -2.211   3.018

  chi0(G,G') at the    4 th omega  11.6620   0.0000 [eV]
       1       2       3       4       5       6       7       8       9
    1   0.000  -0.000   0.000   0.000  -0.000  -0.000   0.000   0.000  -0.000
       -0.000  -0.000  -0.000   0.000   0.000  -0.000  -0.000   0.000   0.000

    2  -0.000  -2.146   3.031  -1.374  -0.994  -1.346  -0.983  -1.352  -1.003
        0.000 -11.531  -0.727   2.879   0.443   2.878   0.463   2.878   0.457

  chi0(G,G') at the    5 th omega  15.5494   0.0000 [eV]
       1       2       3       4       5       6       7       8       9
    1   0.000  -0.000   0.000   0.000  -0.000  -0.000   0.000   0.000  -0.000
       -0.000  -0.000  -0.000   0.000   0.000  -0.000  -0.000   0.000   0.000

    2  -0.000  13.811   1.897  -2.405   0.477  -2.339   0.457  -2.354   0.491
        0.000  -4.190   5.369  -0.205  -3.063  -0.203  -3.009  -0.204  -3.020

  chi0(G,G') at the    6 th omega  19.4367   0.0000 [eV]
       1       2       3       4       5       6       7       8       9
    1   0.000  -0.000   0.000   0.000  -0.000  -0.000   0.000   0.000  -0.000
       -0.000  -0.000  -0.000   0.000   0.000  -0.000  -0.000   0.000   0.000

    2  -0.000   8.373   0.252  -0.360  -1.685  -0.426  -1.660  -0.410  -1.723
        0.000  -6.059   2.831   0.064   1.000   0.077   0.812   0.074   0.857

  chi0(G,G') at the    7 th omega  23.3240   0.0000 [eV]
       1       2       3       4       5       6       7       8       9
    1   0.000  -0.000   0.000   0.000  -0.000  -0.000   0.000   0.000  -0.000
       -0.000  -0.000  -0.000   0.000   0.000  -0.000  -0.000   0.000   0.000

    2  -0.000   4.130   0.019  -0.050   0.004  -0.094   0.007  -0.084   0.002
        0.000  -0.077   1.213   0.000   0.166   0.002   0.163   0.002   0.164

  chi0(G,G') at the    8 th omega  27.2114   0.0000 [eV]
       1       2       3       4       5       6       7       8       9
    1   0.000  -0.000   0.000   0.000  -0.000  -0.000   0.000   0.000  -0.000
       -0.000  -0.000  -0.000   0.000   0.000  -0.000  -0.000   0.000   0.000

    2  -0.000   2.499   0.010  -0.031   0.001  -0.050   0.003  -0.045  -0.000
        0.000  -0.034   0.787   0.000   0.078   0.001   0.073   0.001   0.074

  chi0(G,G') at the    9 th omega   0.0000   4.0728 [eV]
       1       2       3       4       5       6       7       8       9
    1  -0.000   0.000  -0.000  -0.000   0.000   0.000  -0.000  -0.000   0.000
        0.000   0.000   0.000  -0.000  -0.000   0.000   0.000  -0.000  -0.000

    2   0.000  -8.685   0.000  -0.058  -0.000  -0.043  -0.002  -0.048   0.001
       -0.000  -0.000  -3.559   0.000   0.038   0.000   0.044   0.000   0.042

  chi0(G,G') at the   10 th omega   0.0000  11.1641 [eV]
       1       2       3       4       5       6       7       8       9
    1  -0.000   0.000  -0.000  -0.000   0.000   0.000  -0.000  -0.000   0.000
        0.000   0.000   0.000  -0.000  -0.000   0.000   0.000  -0.000  -0.000

    2   0.000  -4.643   0.000   0.013  -0.000   0.025  -0.001   0.022   0.001
       -0.000  -0.000  -1.725   0.000  -0.010   0.000  -0.003   0.000  -0.005

  chi0(G,G') at the   11 th omega   0.0000  23.5107 [eV]
       1       2       3       4       5       6       7       8       9
    1  -0.000   0.000  -0.000  -0.000   0.000   0.000  -0.000  -0.000   0.000
       -0.000   0.000   0.000  -0.000  -0.000   0.000   0.000  -0.000  -0.000

    2   0.000  -1.814   0.000   0.014  -0.000   0.021  -0.001   0.020   0.001
       -0.000   0.000  -0.639   0.000  -0.021   0.000  -0.017   0.000  -0.018

  chi0(G,G') at the   12 th omega   0.0000  45.0073 [eV]
       1       2       3       4       5       6       7       8       9
    1  -0.000   0.000  -0.000  -0.000   0.000   0.000  -0.000  -0.000   0.000
        0.000   0.000   0.000  -0.000  -0.000   0.000   0.000  -0.000  -0.000

    2   0.000  -0.600   0.000   0.006  -0.000   0.009  -0.000   0.008   0.000
       -0.000  -0.000  -0.206   0.000  -0.010   0.000  -0.009   0.000  -0.009

 For q-point:  0.000010 0.000020 0.000030
  dielectric constant =  21.6440
  dielectric constant without local fields =  23.3143

  Average fulfillment of the sum rule on Im[epsilon] for q-point    1 :     16.60  [%]
  Heads and wings of the symmetrical epsilon^-1(G,G') 

   Upper and lower wings at the    1 th omega   0.0000   0.0000 [eV]
       1       2       3       4       5       6       7       8       9
      0.046   0.004  -0.004  -0.013   0.013   0.013  -0.013  -0.004   0.004
     -0.000   0.004   0.004  -0.013  -0.013   0.013   0.013  -0.004  -0.004
       1       2       3       4       5       6       7       8       9
      0.046   0.004  -0.004  -0.013   0.013   0.013  -0.013  -0.004   0.004
     -0.000  -0.004  -0.004   0.013   0.013  -0.013  -0.013   0.004   0.004


   Upper and lower wings at the    2 th omega   3.8873   0.0000 [eV]
       1       2       3       4       5       6       7       8       9
     -0.001   0.006  -0.003  -0.017   0.008   0.017  -0.008  -0.006   0.003
     -0.009   0.003   0.006  -0.008  -0.017   0.008   0.017  -0.003  -0.006
       1       2       3       4       5       6       7       8       9
     -0.001   0.003  -0.006  -0.008   0.017   0.008  -0.017  -0.003   0.006
     -0.009  -0.006  -0.003   0.017   0.008  -0.017  -0.008   0.006   0.003


   Upper and lower wings at the    3 th omega   7.7747   0.0000 [eV]
       1       2       3       4       5       6       7       8       9
     -0.381  -0.013   0.044   0.039  -0.131  -0.039   0.131   0.013  -0.044
     -0.126  -0.044  -0.013   0.131   0.039  -0.131  -0.039   0.044   0.013
       1       2       3       4       5       6       7       8       9
     -0.381  -0.044   0.013   0.131  -0.039  -0.131   0.039   0.044  -0.013
     -0.126   0.013   0.044  -0.039  -0.131   0.039   0.131  -0.013  -0.044


   Upper and lower wings at the    4 th omega  11.6620   0.0000 [eV]
       1       2       3       4       5       6       7       8       9
     -0.349   0.042  -0.001  -0.123   0.003   0.123  -0.003  -0.042   0.001
     -0.193   0.001   0.041  -0.003  -0.123   0.003   0.123  -0.001  -0.041
       1       2       3       4       5       6       7       8       9
     -0.349   0.001  -0.042  -0.003   0.124   0.003  -0.124  -0.001   0.042
     -0.193  -0.041  -0.001   0.123   0.003  -0.123  -0.003   0.041   0.001


   Upper and lower wings at the    5 th omega  15.5494   0.0000 [eV]
       1       2       3       4       5       6       7       8       9
     -0.007   0.286  -0.117  -0.837   0.392   0.837  -0.392  -0.286   0.117
     -0.886   0.113   0.288  -0.389  -0.837   0.389   0.837  -0.113  -0.288
       1       2       3       4       5       6       7       8       9
     -0.007   0.116  -0.288  -0.392   0.838   0.392  -0.838  -0.117   0.288
     -0.886  -0.286  -0.114   0.837   0.389  -0.837  -0.389   0.286   0.113


   Upper and lower wings at the    6 th omega  19.4367   0.0000 [eV]
       1       2       3       4       5       6       7       8       9
      2.479  -0.279  -0.371   0.843   1.254  -0.843  -1.255   0.279   0.371
     -9.367   0.377  -0.262  -1.254   0.830   1.254  -0.830  -0.377   0.262
       1       2       3       4       5       6       7       8       9
      2.479   0.381   0.274  -1.257  -0.842   1.257   0.842  -0.381  -0.274
     -9.367   0.268  -0.367  -0.832   1.251   0.832  -1.251  -0.268   0.367


   Upper and lower wings at the    7 th omega  23.3240   0.0000 [eV]
       1       2       3       4       5       6       7       8       9
      2.782  -0.055   0.048   0.171  -0.148  -0.171   0.148   0.056  -0.048
     -0.136  -0.049  -0.056   0.149   0.172  -0.149  -0.172   0.049   0.056
       1       2       3       4       5       6       7       8       9
      2.782  -0.048   0.055   0.148  -0.171  -0.148   0.171   0.048  -0.055
     -0.136   0.056   0.049  -0.172  -0.149   0.172   0.149  -0.056  -0.049


   Upper and lower wings at the    8 th omega  27.2114   0.0000 [eV]
       1       2       3       4       5       6       7       8       9
      1.833  -0.022   0.020   0.067  -0.062  -0.067   0.062   0.022  -0.020
     -0.040  -0.020  -0.022   0.062   0.067  -0.062  -0.067   0.020   0.022
       1       2       3       4       5       6       7       8       9
      1.833  -0.020   0.022   0.062  -0.067  -0.062   0.067   0.020  -0.022
     -0.040   0.022   0.020  -0.067  -0.062   0.067   0.062  -0.022  -0.020


   Upper and lower wings at the    9 th omega   0.0000   4.0728 [eV]
       1       2       3       4       5       6       7       8       9
      0.102   0.006  -0.006  -0.019   0.019   0.019  -0.019  -0.006   0.006
      0.000   0.006   0.006  -0.019  -0.019   0.019   0.019  -0.006  -0.006
       1       2       3       4       5       6       7       8       9
      0.102   0.006  -0.006  -0.019   0.019   0.019  -0.019  -0.006   0.006
      0.000  -0.006  -0.006   0.019   0.019  -0.019  -0.019   0.006   0.006


   Upper and lower wings at the   10 th omega   0.0000  11.1641 [eV]
       1       2       3       4       5       6       7       8       9
      0.326   0.008  -0.008  -0.025   0.025   0.025  -0.025  -0.008   0.008
     -0.000   0.008   0.008  -0.025  -0.025   0.025   0.025  -0.008  -0.008
       1       2       3       4       5       6       7       8       9
      0.326   0.008  -0.008  -0.025   0.025   0.025  -0.025  -0.008   0.008
     -0.000  -0.008  -0.008   0.025   0.025  -0.025  -0.025   0.008   0.008


   Upper and lower wings at the   11 th omega   0.0000  23.5107 [eV]
       1       2       3       4       5       6       7       8       9
      0.651   0.006  -0.006  -0.018   0.018   0.018  -0.018  -0.006   0.006
     -0.000   0.006   0.006  -0.018  -0.018   0.018   0.018  -0.006  -0.006
       1       2       3       4       5       6       7       8       9
      0.651   0.006  -0.006  -0.018   0.018   0.018  -0.018  -0.006   0.006
     -0.000  -0.006  -0.006   0.018   0.018  -0.018  -0.018   0.006   0.006


   Upper and lower wings at the   12 th omega   0.0000  45.0073 [eV]
       1       2       3       4       5       6       7       8       9
      0.867   0.003  -0.003  -0.008   0.008   0.008  -0.008  -0.003   0.003
      0.000   0.003   0.003  -0.008  -0.008   0.008   0.008  -0.003  -0.003
       1       2       3       4       5       6       7       8       9
      0.867   0.003  -0.003  -0.008   0.008   0.008  -0.008  -0.003   0.003
      0.000  -0.003  -0.003   0.008   0.008  -0.008  -0.008   0.003   0.003




--------------------------------------------------------------------------------
  q-point number  2        q = ( 0.250000, 0.000000, 0.000000) [r.l.u.]
--------------------------------------------------------------------------------
  chi0(G,G') at the    1 th omega   0.0000   0.0000 [eV]
       1       2       3       4       5       6       7       8       9
    1  -7.721  -1.148   2.537  -0.559  -1.398  -0.556  -1.398  -0.558  -1.397
        0.000  -1.148  -2.537  -0.559   1.398  -0.558   1.397  -0.557   1.398

    2  -1.148  -8.686   0.000  -0.249  -0.000  -0.232  -0.002  -0.236   0.002
        1.148   0.000  -4.045  -0.000   0.150   0.000   0.155  -0.000   0.153

  chi0(G,G') at the    2 th omega   3.8873   0.0000 [eV]
       1       2       3       4       5       6       7       8       9
    1 -12.023  -1.006   3.923  -0.706  -1.941  -0.703  -1.940  -0.705  -1.939
       -1.225  -0.135  -3.844  -0.975   1.756  -0.974   1.755  -0.973   1.755

    2  -0.135 -12.128   0.827  -0.102  -0.109  -0.084  -0.111  -0.088  -0.107
        1.006  -1.970  -5.398   0.274   0.337   0.274   0.342   0.274   0.340

  chi0(G,G') at the    3 th omega   7.7747   0.0000 [eV]
       1       2       3       4       5       6       7       8       9
    1  17.826   5.398  -0.174   3.652   1.258   3.654   1.264   3.651   1.267
       -8.480  -3.542   5.553   1.663  -5.239   1.663  -5.246   1.664  -5.246

    2  -3.542 -11.178   5.012  -0.127  -2.005  -0.108  -2.007  -0.113  -2.003
       -5.398 -10.353  -1.767  -1.303  -0.768  -1.303  -0.768  -1.303  -0.771

  chi0(G,G') at the    4 th omega  11.6620   0.0000 [eV]
       1       2       3       4       5       6       7       8       9
    1   4.087   2.358  -0.134  -1.181   0.274  -1.172   0.271  -1.177   0.271
       -1.120  -0.389   4.258   0.672  -1.916   0.676  -1.911   0.678  -1.912

    2  -0.389  -2.153  10.330  -1.674  -1.864  -1.655  -1.840  -1.667  -1.864
       -2.358 -10.534   3.333   0.472  -2.621   0.454  -2.639   0.477  -2.645

  chi0(G,G') at the    5 th omega  15.5494   0.0000 [eV]
       1       2       3       4       5       6       7       8       9
    1   1.925   1.482  -0.434   0.103   0.330   0.084   0.318   0.091   0.322
       -0.214   0.935   1.677   0.182  -1.052   0.174  -1.043   0.170  -1.043

    2   0.935   4.528   3.700   2.290   3.133   2.276   3.130   2.284   3.132
       -1.482  -8.897   4.931   0.077  -1.112   0.074  -1.051   0.092  -1.060

  chi0(G,G') at the    6 th omega  19.4367   0.0000 [eV]
       1       2       3       4       5       6       7       8       9
    1   1.031   0.525  -0.531   0.014   0.269   0.015   0.281   0.014   0.277
       -0.025   0.468   0.552   0.038  -0.277   0.041  -0.289   0.040  -0.287

    2   0.468   6.580   0.082   0.331   0.231   0.423   0.241   0.404   0.222
       -0.525  -1.249   1.791   0.091   1.152   0.109   1.058   0.095   1.078

  chi0(G,G') at the    7 th omega  23.3240   0.0000 [eV]
       1       2       3       4       5       6       7       8       9
    1   0.684   0.320  -0.315  -0.022   0.161  -0.026   0.163  -0.024   0.160
       -0.012   0.310   0.326  -0.021  -0.165  -0.023  -0.165  -0.024  -0.167

    2   0.309   3.577   0.018  -0.126   0.008  -0.169   0.016  -0.159   0.003
       -0.321  -0.075   1.104   0.004   0.223   0.004   0.221   0.006   0.223

  chi0(G,G') at the    8 th omega  27.2114   0.0000 [eV]
       1       2       3       4       5       6       7       8       9
    1   0.482   0.208  -0.217  -0.005   0.115  -0.007   0.116  -0.006   0.115
       -0.008   0.203   0.224  -0.005  -0.119  -0.007  -0.119  -0.007  -0.120

    2   0.203   2.077   0.009  -0.056   0.002  -0.074   0.004  -0.070  -0.000
       -0.208  -0.029   0.713   0.001   0.090   0.001   0.085   0.001   0.087

  chi0(G,G') at the    9 th omega   0.0000   4.0728 [eV]
       1       2       3       4       5       6       7       8       9
    1  -5.173  -1.049   1.809  -0.366  -0.953  -0.364  -0.954  -0.365  -0.952
        0.000  -1.050  -1.809  -0.366   0.953  -0.365   0.953  -0.364   0.953

    2  -1.049  -6.908   0.000  -0.155  -0.000  -0.138  -0.002  -0.142   0.002
        1.050  -0.000  -3.184  -0.000   0.141   0.000   0.146  -0.000   0.144

  chi0(G,G') at the   10 th omega   0.0000  11.1641 [eV]
       1       2       3       4       5       6       7       8       9
    1  -1.845  -0.527   0.712  -0.087  -0.385  -0.085  -0.386  -0.086  -0.384
        0.000  -0.527  -0.712  -0.087   0.385  -0.086   0.385  -0.085   0.385

    2  -0.527  -3.697   0.000  -0.013  -0.000  -0.000  -0.002  -0.003   0.001
        0.527   0.000  -1.617  -0.000   0.035   0.000   0.039  -0.000   0.038

  chi0(G,G') at the   11 th omega   0.0000  23.5107 [eV]
       1       2       3       4       5       6       7       8       9
    1  -0.536  -0.183   0.223  -0.014  -0.121  -0.013  -0.121  -0.014  -0.121
        0.000  -0.184  -0.223  -0.014   0.121  -0.014   0.121  -0.013   0.121

    2  -0.183  -1.453   0.000   0.013  -0.000   0.020  -0.001   0.018   0.001
        0.184  -0.000  -0.595  -0.000  -0.010   0.000  -0.007  -0.000  -0.008

  chi0(G,G') at the   12 th omega   0.0000  45.0073 [eV]
       1       2       3       4       5       6       7       8       9
    1  -0.157  -0.057   0.067  -0.003  -0.036  -0.002  -0.037  -0.002  -0.036
       -0.000  -0.057  -0.067  -0.003   0.036  -0.002   0.036  -0.002   0.036

    2  -0.057  -0.483   0.000   0.007  -0.000   0.009  -0.000   0.009   0.000
        0.057  -0.000  -0.190  -0.000  -0.008   0.000  -0.007  -0.000  -0.007

  Average fulfillment of the sum rule on Im[epsilon] for q-point    2 :     65.69  [%]


--------------------------------------------------------------------------------
  q-point number  3        q = ( 0.500000, 0.000000, 0.000000) [r.l.u.]
--------------------------------------------------------------------------------
  chi0(G,G') at the    1 th omega   0.0000   0.0000 [eV]
       1       2       3       4       5       6       7       8       9
    1 -11.980  -0.916   3.039  -1.435  -1.518  -1.432  -1.529  -1.437  -1.523
        0.000  -0.916  -3.040  -1.434   1.518  -1.436   1.526  -1.432   1.525

    2  -0.916  -6.601   0.000   0.609  -0.000   0.614  -0.001   0.612   0.001
        0.916   0.000  -3.379  -0.000   0.134   0.002   0.137  -0.002   0.136

  chi0(G,G') at the    2 th omega   3.8873   0.0000 [eV]
       1       2       3       4       5       6       7       8       9
    1 -13.920  -3.485   3.280  -1.025  -1.433  -1.022  -1.444  -1.027  -1.438
       -2.362  -0.784  -3.274  -2.174   1.361  -2.176   1.369  -2.172   1.369

    2  -0.784  -3.591   2.450   0.348   0.141   0.353   0.140   0.351   0.141
        3.485  -5.951  -1.764   0.614   0.259   0.616   0.263   0.613   0.261

  chi0(G,G') at the    3 th omega   7.7747   0.0000 [eV]
       1       2       3       4       5       6       7       8       9
    1 -30.563   2.104  22.422  -1.754  -4.493  -1.751  -4.502  -1.760  -4.494
      -22.915  -7.220   4.646  -7.764   2.559  -7.770   2.566  -7.762   2.563

    2  -7.219 -12.134   8.375   0.414   0.057   0.415   0.057   0.414   0.058
       -2.104  -5.966  -8.513  -0.882  -0.789  -0.879  -0.786  -0.885  -0.788

  chi0(G,G') at the    4 th omega  11.6620   0.0000 [eV]
       1       2       3       4       5       6       7       8       9
    1   8.351  -0.488   1.932   4.422  -2.013   4.453  -2.073   4.467  -2.033
      -15.452  -5.587   2.302  -1.495  -2.676  -1.447  -2.650  -1.492  -2.629

    2  -5.587  -4.617   3.549  -0.320  -0.488  -0.215  -0.495  -0.231  -0.480
        0.488  -3.872   1.080  -0.484   1.139  -0.520   1.165  -0.489   1.160

  chi0(G,G') at the    5 th omega  15.5494   0.0000 [eV]
       1       2       3       4       5       6       7       8       9
    1   7.835   1.095  -1.155   0.268   1.032   0.272   1.094   0.275   1.068
       -0.964  -0.191   1.494   1.146  -1.590   1.156  -1.648   1.150  -1.645

    2  -0.191   0.301   1.183   0.303   1.022   0.342   1.020   0.334   1.021
       -1.095  -4.424   1.298   0.579   0.587   0.581   0.575   0.579   0.578

  chi0(G,G') at the    6 th omega  19.4367   0.0000 [eV]
       1       2       3       4       5       6       7       8       9
    1   3.870   1.200  -0.767  -0.012   0.524  -0.081   0.544  -0.056   0.530
       -0.198   0.913   0.798   0.557  -0.647   0.526  -0.660   0.520  -0.664

    2   0.912   4.795   0.201  -0.632   0.019  -0.905   0.012  -0.842   0.007
       -1.201  -2.669   0.971   0.967  -0.721   1.028  -0.772   1.029  -0.759

  chi0(G,G') at the    7 th omega  23.3240   0.0000 [eV]
       1       2       3       4       5       6       7       8       9
    1   2.329   0.468  -0.482   0.174   0.318   0.169   0.329   0.172   0.313
       -0.038   0.448   0.501   0.170  -0.314   0.167  -0.310   0.167  -0.318

    2   0.447   2.311   0.017  -0.164   0.034  -0.185   0.055  -0.179   0.023
       -0.468  -0.056   0.729   0.004   0.320   0.000   0.322   0.006   0.333

  chi0(G,G') at the    8 th omega  27.2114   0.0000 [eV]
       1       2       3       4       5       6       7       8       9
    1   1.583   0.286  -0.330   0.140   0.226   0.137   0.231   0.139   0.227
       -0.022   0.279   0.340   0.136  -0.232   0.134  -0.234   0.134  -0.236

    2   0.279   1.346   0.006  -0.087   0.002  -0.097   0.003  -0.095   0.000
       -0.286  -0.019   0.463   0.001   0.108   0.001   0.106   0.002   0.107

  chi0(G,G') at the    9 th omega   0.0000   4.0728 [eV]
       1       2       3       4       5       6       7       8       9
    1  -9.353  -0.878   2.278  -1.162  -1.116  -1.159  -1.125  -1.163  -1.120
       -0.000  -0.878  -2.279  -1.161   1.115  -1.163   1.122  -1.159   1.122

    2  -0.878  -5.033   0.000   0.394  -0.000   0.400  -0.001   0.398   0.001
        0.878  -0.000  -2.523  -0.000  -0.001   0.002   0.002  -0.002   0.001

  chi0(G,G') at the   10 th omega   0.0000  11.1641 [eV]
       1       2       3       4       5       6       7       8       9
    1  -4.436  -0.544   1.011  -0.515  -0.573  -0.513  -0.580  -0.516  -0.576
        0.000  -0.544  -1.012  -0.515   0.572  -0.516   0.578  -0.513   0.578

    2  -0.544  -2.571   0.000   0.167  -0.000   0.172  -0.001   0.171   0.001
        0.544  -0.000  -1.199  -0.000  -0.055   0.001  -0.052  -0.001  -0.053

  chi0(G,G') at the   11 th omega   0.0000  23.5107 [eV]
       1       2       3       4       5       6       7       8       9
    1  -1.508  -0.217   0.331  -0.161  -0.206  -0.160  -0.209  -0.161  -0.208
        0.000  -0.217  -0.332  -0.161   0.206  -0.161   0.208  -0.160   0.208

    2  -0.217  -0.982   0.000   0.060  -0.000   0.064  -0.000   0.063   0.000
        0.217  -0.000  -0.415  -0.000  -0.038   0.000  -0.036  -0.000  -0.037

  chi0(G,G') at the   12 th omega   0.0000  45.0073 [eV]
       1       2       3       4       5       6       7       8       9
    1  -0.465  -0.071   0.101  -0.048  -0.065  -0.047  -0.066  -0.048  -0.065
        0.000  -0.071  -0.101  -0.048   0.065  -0.047   0.066  -0.047   0.066

    2  -0.071  -0.323   0.000   0.020  -0.000   0.021  -0.000   0.021   0.000
        0.071   0.000  -0.129  -0.000  -0.015   0.000  -0.015  -0.000  -0.015

  Average fulfillment of the sum rule on Im[epsilon] for q-point    3 :     44.00  [%]


--------------------------------------------------------------------------------
  q-point number  4        q = ( 0.250000, 0.250000, 0.000000) [r.l.u.]
--------------------------------------------------------------------------------
  chi0(G,G') at the    1 th omega   0.0000   0.0000 [eV]
       1       2       3       4       5       6       7       8       9
    1  -9.824  -1.641   0.172   0.172  -1.641   0.172  -1.641  -1.641   0.172
        0.000  -1.640  -0.171   0.171   1.640   0.171   1.640  -1.640  -0.171

    2  -1.641  -9.349   0.000  -0.225  -0.001  -0.207  -0.002  -0.084   0.002
        1.640   0.000  -3.391  -0.023   0.244   0.022   0.253   0.000  -0.115

  chi0(G,G') at the    2 th omega   3.8873   0.0000 [eV]
       1       2       3       4       5       6       7       8       9
    1 -18.016  -2.516   0.171   0.851  -3.022   0.851  -3.022  -2.516   0.171
       -5.241  -3.021  -0.850   0.170   2.516   0.170   2.516  -3.021  -0.850

    2  -3.022  -9.553   2.005  -0.360  -0.039  -0.342  -0.040  -0.848   0.032
        2.516  -3.927  -2.123  -0.127   0.408  -0.075   0.418   0.966  -0.126

  chi0(G,G') at the    3 th omega   7.7747   0.0000 [eV]
       1       2       3       4       5       6       7       8       9
    1   1.063   1.138   0.368   1.991  -2.657   1.991  -2.657   1.138   0.368
      -10.234  -2.657  -1.989   0.366  -1.138   0.366  -1.138  -2.657  -1.989

    2  -2.657 -17.129   3.539  -0.762  -0.668  -0.749  -0.669   0.406  -1.539
       -1.139  -8.023  -9.186  -1.419   0.127  -1.317   0.139  -0.930   3.168

  chi0(G,G') at the    4 th omega  11.6620   0.0000 [eV]
       1       2       3       4       5       6       7       8       9
    1   5.478   1.539   0.482  -0.781   0.223  -0.781   0.223   1.539   0.482
       -1.221   0.224   0.783   0.480  -1.540   0.480  -1.540   0.224   0.783

    2   0.223  -4.128   4.173   1.229  -0.349   1.266  -0.343  -0.447  -0.278
       -1.540  -4.676  -1.337   0.105  -0.166   0.017  -0.145   0.098   0.186

  chi0(G,G') at the    5 th omega  15.5494   0.0000 [eV]
       1       2       3       4       5       6       7       8       9
    1   2.464   1.462   0.311  -0.925   0.329  -0.925   0.329   1.462   0.311
       -0.378   0.326   0.927   0.315  -1.462   0.315  -1.462   0.326   0.927

    2   0.328   2.171   6.180  -0.146  -0.744  -0.274  -0.774  -0.858   1.892
       -1.461  -9.547   2.097   2.326  -1.783   2.545  -1.854  -1.621  -1.593

  chi0(G,G') at the    6 th omega  19.4367   0.0000 [eV]
       1       2       3       4       5       6       7       8       9
    1   1.356   0.515   0.049  -0.426   0.423  -0.426   0.423   0.515   0.049
       -0.098   0.426   0.423   0.051  -0.519   0.051  -0.519   0.426   0.423

    2   0.423   7.024   1.138   0.694   2.828   0.697   2.824  -0.154  -0.150
       -0.518  -9.558   3.357   0.175   0.622   0.038   0.603   1.970   0.560

  chi0(G,G') at the    7 th omega  23.3240   0.0000 [eV]
       1       2       3       4       5       6       7       8       9
    1   0.884   0.260  -0.109  -0.113   0.252  -0.113   0.252   0.260  -0.109
       -0.016   0.250   0.112  -0.107  -0.258  -0.107  -0.258   0.250   0.112

    2   0.252   3.989   0.021  -0.078   0.008  -0.116   0.012  -0.348  -0.006
       -0.258  -0.107   1.081  -0.018   0.224   0.007   0.213   0.029   0.063

  chi0(G,G') at the    8 th omega  27.2114   0.0000 [eV]
       1       2       3       4       5       6       7       8       9
    1   0.622   0.177  -0.065  -0.066   0.172  -0.066   0.172   0.177  -0.065
       -0.010   0.171   0.066  -0.064  -0.176  -0.064  -0.176   0.171   0.066

    2   0.172   2.217   0.009  -0.035   0.002  -0.052   0.004  -0.107  -0.001
       -0.176  -0.031   0.675  -0.002   0.095  -0.001   0.089   0.002   0.041

  chi0(G,G') at the    9 th omega   0.0000   4.0728 [eV]
       1       2       3       4       5       6       7       8       9
    1  -6.646  -1.199   0.119   0.119  -1.199   0.119  -1.199  -1.199   0.119
        0.000  -1.198  -0.118   0.118   1.198   0.118   1.198  -1.198  -0.118

    2  -1.199  -7.321   0.000  -0.149  -0.001  -0.131  -0.002  -0.007   0.002
        1.198  -0.000  -2.596  -0.020   0.153   0.019   0.162   0.000   0.041

  chi0(G,G') at the   10 th omega   0.0000  11.1641 [eV]
       1       2       3       4       5       6       7       8       9
    1  -2.347  -0.506   0.088   0.088  -0.506   0.088  -0.506  -0.506   0.088
        0.000  -0.506  -0.088   0.088   0.506   0.088   0.506  -0.506  -0.088

    2  -0.506  -3.881   0.000  -0.029  -0.001  -0.015  -0.002   0.051   0.002
        0.506  -0.000  -1.386  -0.010   0.018   0.010   0.025   0.000   0.035

  chi0(G,G') at the   11 th omega   0.0000  23.5107 [eV]
       1       2       3       4       5       6       7       8       9
    1  -0.685  -0.166   0.042   0.042  -0.166   0.042  -0.166  -0.166   0.042
       -0.000  -0.166  -0.041   0.041   0.166   0.041   0.166  -0.166  -0.041

    2  -0.166  -1.527   0.000   0.004  -0.000   0.011  -0.001   0.035   0.001
        0.166   0.000  -0.531  -0.003  -0.016   0.004  -0.013   0.000  -0.001

  chi0(G,G') at the   12 th omega   0.0000  45.0073 [eV]
       1       2       3       4       5       6       7       8       9
    1  -0.201  -0.051   0.015   0.015  -0.051   0.015  -0.051  -0.051   0.015
        0.000  -0.051  -0.014   0.014   0.051   0.014   0.051  -0.051  -0.014

    2  -0.051  -0.509   0.000   0.003  -0.000   0.006  -0.000   0.014   0.000
        0.051   0.000  -0.173  -0.001  -0.009   0.001  -0.008   0.000  -0.003

  Average fulfillment of the sum rule on Im[epsilon] for q-point    4 :     60.05  [%]


--------------------------------------------------------------------------------
  q-point number  5        q = ( 0.500000, 0.250000, 0.000000) [r.l.u.]
--------------------------------------------------------------------------------
  chi0(G,G') at the    1 th omega   0.0000   0.0000 [eV]
       1       2       3       4       5       6       7       8       9
    1 -13.761  -1.273   0.657  -1.087  -1.703  -1.093  -1.699  -1.631  -0.919
       -0.000  -1.272  -0.654  -1.089   1.692  -1.097   1.706  -1.629   0.922

    2  -1.273  -7.164  -0.000   0.303   0.001   0.320  -0.003   0.382   0.002
        1.272   0.000  -2.953  -0.006   0.195   0.007   0.205  -0.001  -0.063

  chi0(G,G') at the    2 th omega   3.8873   0.0000 [eV]
       1       2       3       4       5       6       7       8       9
    1 -19.737  -2.120   0.907  -1.510  -2.273  -1.516  -2.269  -2.301  -0.854
       -2.313  -1.869  -0.937  -1.930   1.627  -1.939   1.642  -1.965   1.126

    2  -1.870  -8.476   1.033  -0.022  -0.166  -0.004  -0.170   0.977   0.724
        2.119  -2.572  -2.722   0.345   0.308   0.360   0.318  -1.566  -0.112

  chi0(G,G') at the    3 th omega   7.7747   0.0000 [eV]
       1       2       3       4       5       6       7       8       9
    1  -7.500   2.445   2.100   3.103  -1.536   3.091  -1.526  -1.200  -8.066
      -17.550  -0.956  -6.525  -2.391  -1.003  -2.404  -0.979  -5.653   3.241

    2  -0.957  -5.508   0.963   0.401  -0.069   0.422  -0.073   1.886  -0.428
       -2.446  -7.805  -2.200  -0.422  -1.589  -0.397  -1.576  -0.022  -1.030

  chi0(G,G') at the    4 th omega  11.6620   0.0000 [eV]
       1       2       3       4       5       6       7       8       9
    1  11.791   6.045   2.197   5.252  -4.643   4.546  -4.612   2.892  -0.258
      -20.351  -4.322   7.640  -0.181  -5.025  -0.460  -5.051  -3.730  -8.617

    2  -4.328   0.644   7.379   0.428  -1.617   0.176  -1.652  -0.623  -0.442
       -6.058 -13.739   3.351  -1.823  -1.313  -1.523  -1.317  -0.916  -1.789

  chi0(G,G') at the    5 th omega  15.5494   0.0000 [eV]
       1       2       3       4       5       6       7       8       9
    1   7.198   2.274  -0.841  -0.312   0.692  -0.291   0.729   1.733   1.754
       -1.326  -0.042   1.706   0.536  -1.839   0.507  -1.869   0.788  -0.183

    2  -0.040   1.695   1.966   0.947   0.769   0.814   0.867   0.117   4.496
       -2.274  -9.698   1.773   0.751  -0.131   0.605  -0.276  -0.704  -1.067

  chi0(G,G') at the    6 th omega  19.4367   0.0000 [eV]
       1       2       3       4       5       6       7       8       9
    1   3.475   0.764  -0.495  -0.030   0.658  -0.023   0.655   0.710   0.542
       -0.084   0.693   0.512   0.054  -0.723   0.056  -0.727   0.695  -0.524

    2   0.687   3.276   0.050  -0.220   0.249  -0.222   0.254   0.512   0.017
       -0.771  -0.725   0.988   0.149   0.460   0.037   0.498  -0.074  -0.026

  chi0(G,G') at the    7 th omega  23.3240   0.0000 [eV]
       1       2       3       4       5       6       7       8       9
    1   2.130   0.448  -0.307   0.025   0.364   0.021   0.355   0.299   0.191
       -0.035   0.423   0.318   0.022  -0.365   0.029  -0.369   0.298  -0.196

    2   0.425   2.899   0.028  -0.127   0.017  -0.150   0.024  -0.486  -0.013
       -0.446  -0.122   0.827  -0.011   0.302   0.008   0.293   0.073   0.115

  chi0(G,G') at the    8 th omega  27.2114   0.0000 [eV]
       1       2       3       4       5       6       7       8       9
    1   1.453   0.271  -0.198   0.040   0.238   0.039   0.237   0.227   0.158
       -0.021   0.263   0.202   0.038  -0.242   0.041  -0.245   0.220  -0.163

    2   0.263   1.550   0.007  -0.063   0.002  -0.075   0.004  -0.133  -0.000
       -0.270  -0.022   0.496  -0.004   0.119   0.001   0.115   0.003   0.059

  chi0(G,G') at the    9 th omega   0.0000   4.0728 [eV]
       1       2       3       4       5       6       7       8       9
    1 -10.031  -1.045   0.621  -0.828  -1.231  -0.833  -1.227  -1.289  -0.880
       -0.000  -1.044  -0.618  -0.829   1.222  -0.837   1.234  -1.287   0.882

    2  -1.045  -5.499  -0.000   0.149   0.000   0.166  -0.003   0.381   0.002
        1.044  -0.000  -2.246  -0.005   0.025   0.006   0.034  -0.001   0.004

  chi0(G,G') at the   10 th omega   0.0000  11.1641 [eV]
       1       2       3       4       5       6       7       8       9
    1  -4.320  -0.559   0.405  -0.307  -0.585  -0.309  -0.583  -0.616  -0.501
        0.000  -0.558  -0.404  -0.307   0.579  -0.312   0.587  -0.615   0.502

    2  -0.559  -2.834  -0.000   0.076   0.000   0.088  -0.002   0.192   0.001
        0.558  -0.000  -1.140  -0.002  -0.060   0.003  -0.054  -0.000  -0.001

  chi0(G,G') at the   11 th omega   0.0000  23.5107 [eV]
       1       2       3       4       5       6       7       8       9
    1  -1.417  -0.212   0.161  -0.080  -0.209  -0.081  -0.208  -0.212  -0.174
        0.000  -0.212  -0.161  -0.080   0.207  -0.082   0.210  -0.212   0.174

    2  -0.212  -1.093  -0.000   0.034   0.000   0.040  -0.001   0.073   0.001
        0.212  -0.000  -0.416  -0.000  -0.043   0.001  -0.040  -0.000  -0.012

  chi0(G,G') at the   12 th omega   0.0000  45.0073 [eV]
       1       2       3       4       5       6       7       8       9
    1  -0.433  -0.069   0.053  -0.021  -0.066  -0.021  -0.066  -0.066  -0.053
       -0.000  -0.069  -0.052  -0.021   0.065  -0.022   0.066  -0.066   0.053

    2  -0.069  -0.361  -0.000   0.012   0.000   0.014  -0.000   0.025   0.000
        0.069   0.000  -0.132   0.000  -0.017   0.000  -0.016  -0.000  -0.006

  Average fulfillment of the sum rule on Im[epsilon] for q-point    5 :     41.21  [%]


--------------------------------------------------------------------------------
  q-point number  6        q = (-0.250000, 0.250000, 0.000000) [r.l.u.]
--------------------------------------------------------------------------------
  chi0(G,G') at the    1 th omega   0.0000   0.0000 [eV]
       1       2       3       4       5       6       7       8       9
    1 -12.700   0.530  -1.375  -1.559  -1.568  -1.567  -1.557  -1.375   0.530
        0.000   0.534   1.376  -1.558   1.565  -1.567   1.559  -1.376  -0.534

    2   0.530 -13.479   0.002   0.870  -0.004   0.885  -0.001  -0.025   0.006
       -0.534   0.000  -3.151  -0.017   0.108   0.019   0.122   0.001  -1.629

  chi0(G,G') at the    2 th omega   3.8873   0.0000 [eV]
       1       2       3       4       5       6       7       8       9
    1 -13.000  -1.513  -2.252  -0.119  -2.420  -0.129  -2.408  -1.218   1.456
       -9.808   1.461   1.219  -2.409   0.127  -2.418   0.120  -2.253   1.508

    2   1.456 -13.483   3.594  -0.358   0.853  -0.343   0.858  -1.827   3.411
        1.508  -9.646  -1.633   1.161   0.836   1.201   0.851   0.412  -4.027

  chi0(G,G') at the    3 th omega   7.7747   0.0000 [eV]
       1       2       3       4       5       6       7       8       9
    1 -12.320   3.493  -6.377  -0.481  -5.387  -0.504  -5.382   0.845   4.084
      -21.980   4.091  -0.844  -5.383   0.501  -5.385   0.482  -6.379  -3.500

    2   4.084 -23.702   4.379  -0.212  -1.112  -0.195  -1.098  -3.858   7.838
       -3.500 -17.862  -8.157  -0.262  -0.304  -0.207  -0.283  -2.213  -1.647

  chi0(G,G') at the    4 th omega  11.6620   0.0000 [eV]
       1       2       3       4       5       6       7       8       9
    1  10.997  -2.706  -1.285   1.982   0.324   2.012   0.436   1.140   0.388
       -5.183   0.408  -1.137   0.433  -2.021   0.327  -1.979  -1.288   2.681

    2   0.386  -2.525   2.297   0.319   0.223   0.240   0.419   4.500   0.118
        2.682  -8.917   0.818   0.531  -0.328   0.938  -0.178  -0.827   4.763

  chi0(G,G') at the    5 th omega  15.5494   0.0000 [eV]
       1       2       3       4       5       6       7       8       9
    1   5.533  -1.838   1.167   0.865   0.777   0.943   0.793   2.198  -1.054
       -0.794  -1.051  -2.200   0.788  -0.936   0.754  -0.862   1.179   1.843

    2  -1.053  17.650   1.804  -1.066   1.558  -1.025   1.342  -2.658   0.816
        1.840  -6.689   4.843  -2.353  -0.786  -2.281  -0.975   1.294  -3.583

  chi0(G,G') at the    6 th omega  19.4367   0.0000 [eV]
       1       2       3       4       5       6       7       8       9
    1   2.618  -0.563   0.528   0.369   0.528   0.400   0.526   0.818  -0.413
       -0.102  -0.416  -0.816   0.532  -0.398   0.520  -0.368   0.527   0.567

    2  -0.413   7.002   1.257   0.228   0.250   0.113   0.249  -0.135   0.672
        0.567  -1.527   1.799  -0.314   0.288  -0.229   0.325  -0.367   0.258

  chi0(G,G') at the    7 th omega  23.3240   0.0000 [eV]
       1       2       3       4       5       6       7       8       9
    1   1.651  -0.267   0.382   0.192   0.202   0.197   0.182   0.397  -0.258
       -0.028  -0.259  -0.401   0.184  -0.196   0.201  -0.195   0.387   0.268

    2  -0.258   3.481   0.017   0.023  -0.002  -0.005   0.007  -0.057  -0.002
        0.268  -0.058   0.909   0.002   0.056  -0.012   0.041  -0.002   0.056

  chi0(G,G') at the    8 th omega  27.2114   0.0000 [eV]
       1       2       3       4       5       6       7       8       9
    1   1.138  -0.170   0.244   0.152   0.153   0.155   0.146   0.251  -0.165
       -0.017  -0.166  -0.252   0.146  -0.154   0.152  -0.153   0.246   0.171

    2  -0.165   2.251   0.007  -0.013   0.001  -0.024   0.003  -0.028  -0.001
        0.171  -0.030   0.570   0.003   0.041  -0.005   0.036  -0.001   0.046

  chi0(G,G') at the    9 th omega   0.0000   4.0728 [eV]
       1       2       3       4       5       6       7       8       9
    1  -8.997   0.507  -1.134  -1.148  -1.157  -1.155  -1.146  -1.134   0.507
        0.000   0.511   1.135  -1.146   1.153  -1.155   1.149  -1.135  -0.511

    2   0.507 -10.340   0.002   0.461  -0.004   0.474  -0.001  -0.148   0.006
       -0.511   0.000  -2.431  -0.016   0.036   0.017   0.049   0.001  -1.185

  chi0(G,G') at the   10 th omega   0.0000  11.1641 [eV]
       1       2       3       4       5       6       7       8       9
    1  -3.653   0.328  -0.573  -0.498  -0.504  -0.502  -0.496  -0.573   0.328
       -0.000   0.331   0.574  -0.496   0.501  -0.503   0.499  -0.574  -0.331

    2   0.328  -5.116   0.001   0.147  -0.002   0.157  -0.001  -0.029   0.004
       -0.331  -0.000  -1.253  -0.009  -0.040   0.011  -0.031   0.001  -0.350

  chi0(G,G') at the   11 th omega   0.0000  23.5107 [eV]
       1       2       3       4       5       6       7       8       9
    1  -1.156   0.133  -0.208  -0.161  -0.164  -0.163  -0.160  -0.208   0.133
       -0.000   0.134   0.209  -0.160   0.162  -0.163   0.161  -0.209  -0.134

    2   0.133  -1.871   0.001   0.038  -0.001   0.043  -0.001   0.006   0.002
       -0.134  -0.000  -0.465  -0.003  -0.027   0.004  -0.023   0.000  -0.079

  chi0(G,G') at the   12 th omega   0.0000  45.0073 [eV]
       1       2       3       4       5       6       7       8       9
    1  -0.349   0.043  -0.066  -0.048  -0.049  -0.049  -0.048  -0.066   0.043
       -0.000   0.044   0.066  -0.048   0.049  -0.049   0.049  -0.067  -0.044

    2   0.043  -0.599   0.000   0.010  -0.000   0.012  -0.000   0.004   0.001
       -0.044   0.000  -0.150  -0.001  -0.010   0.001  -0.009   0.000  -0.020

  Average fulfillment of the sum rule on Im[epsilon] for q-point    6 :     46.24  [%]


--------------------------------------------------------------------------------
  q-point number  7        q = ( 0.500000, 0.500000, 0.000000) [r.l.u.]
--------------------------------------------------------------------------------
  chi0(G,G') at the    1 th omega   0.0000   0.0000 [eV]
       1       2       3       4       5       6       7       8       9
    1 -14.247  -1.540  -0.818  -0.816  -1.541  -0.816  -1.541  -1.540  -0.818
        0.000  -1.539   0.820  -0.819   1.539  -0.819   1.539  -1.539   0.820

    2  -1.540  -7.436   0.000   0.354  -0.001   0.371  -0.001   0.482   0.002
        1.539  -0.000  -2.195  -0.024   0.167   0.027   0.170   0.000  -0.114

  chi0(G,G') at the    2 th omega   3.8873   0.0000 [eV]
       1       2       3       4       5       6       7       8       9
    1 -15.663  -1.787  -0.967  -0.974  -2.353  -0.974  -2.353  -1.787  -0.967
       -6.362  -2.351   0.978  -0.969   1.786  -0.969   1.786  -2.351   0.978

    2  -2.353  -4.386   1.492   0.424   0.588   0.442   0.588   0.075  -0.466
        1.785  -5.096  -0.708  -0.027   0.858   0.032   0.861   0.729  -0.440

  chi0(G,G') at the    3 th omega   7.7747   0.0000 [eV]
       1       2       3       4       5       6       7       8       9
    1 -39.384  -0.693 -10.436  -0.631  -6.926  -0.631  -6.926  -0.693 -10.436
      -30.467  -6.924   0.637 -10.439   0.691 -10.439   0.691  -6.924   0.637

    2  -6.926 -12.268   4.609  -2.346   0.715  -2.327   0.714   1.421  -3.846
        0.691  -8.700  -3.971  -2.264  -1.396  -2.162  -1.391   1.116   2.836

  chi0(G,G') at the    4 th omega  11.6620   0.0000 [eV]
       1       2       3       4       5       6       7       8       9
    1   6.023   0.196   2.656   5.152  -3.394   5.152  -3.394   0.196   2.656
       -8.466  -3.385  -5.119   2.647  -0.202   2.647  -0.202  -3.385  -5.119

    2  -3.392  -4.294   0.757   1.773   0.079   1.815   0.076  -1.554  -0.719
       -0.204  -4.188  -1.042  -0.227  -0.182  -0.369  -0.155  -0.908   0.324

  chi0(G,G') at the    5 th omega  15.5494   0.0000 [eV]
       1       2       3       4       5       6       7       8       9
    1   9.313   2.714   1.872  -0.059   0.949  -0.059   0.949   2.714   1.872
       -2.491   0.948   0.053   1.874  -2.715   1.874  -2.715   0.948   0.053

    2   0.948   6.262   2.760  -0.693   1.148  -0.675   1.149  -2.191   3.734
       -2.714  -5.849   0.379  -0.725  -2.621  -0.875  -2.634  -0.628  -0.680

  chi0(G,G') at the    6 th omega  19.4367   0.0000 [eV]
       1       2       3       4       5       6       7       8       9
    1   4.660   0.946   0.791  -0.310   0.558  -0.310   0.558   0.946   0.791
       -0.362   0.563   0.310   0.790  -0.953   0.790  -0.953   0.563   0.310

    2   0.557   2.720   2.590   0.891   1.177   0.806   1.158  -0.178   0.963
       -0.952  -6.666   2.516  -0.151   0.309  -0.070   0.374   0.785   0.886

  chi0(G,G') at the    7 th omega  23.3240   0.0000 [eV]
       1       2       3       4       5       6       7       8       9
    1   2.754   0.427   0.075   0.074   0.413   0.074   0.413   0.427   0.075
       -0.044   0.410  -0.076   0.077  -0.423   0.077  -0.423   0.410  -0.076

    2   0.413   2.811   0.023  -0.140   0.008  -0.157   0.011  -0.124  -0.017
       -0.424  -0.132   0.588  -0.004   0.234  -0.001   0.222   0.066   0.049

  chi0(G,G') at the    8 th omega  27.2114   0.0000 [eV]
       1       2       3       4       5       6       7       8       9
    1   1.850   0.273   0.078   0.079   0.265   0.079   0.265   0.273   0.078
       -0.026   0.264  -0.080   0.078  -0.271   0.078  -0.271   0.264  -0.080

    2   0.265   1.645   0.005  -0.062   0.002  -0.072   0.003  -0.148  -0.001
       -0.271  -0.024   0.395  -0.001   0.107  -0.003   0.103   0.003   0.009

  chi0(G,G') at the    9 th omega   0.0000   4.0728 [eV]
       1       2       3       4       5       6       7       8       9
    1 -10.758  -1.096  -0.828  -0.827  -1.096  -0.827  -1.096  -1.096  -0.828
        0.000  -1.094   0.831  -0.830   1.095  -0.830   1.095  -1.094   0.831

    2  -1.096  -5.591   0.000   0.148  -0.001   0.164  -0.001   0.446   0.002
        1.094   0.000  -1.512  -0.021  -0.065   0.024  -0.062   0.000   0.048

  chi0(G,G') at the   10 th omega   0.0000  11.1641 [eV]
       1       2       3       4       5       6       7       8       9
    1  -4.996  -0.574  -0.393  -0.392  -0.574  -0.392  -0.574  -0.574  -0.393
        0.000  -0.573   0.394  -0.394   0.573  -0.394   0.573  -0.573   0.394

    2  -0.574  -2.896   0.000   0.061  -0.001   0.072  -0.001   0.217   0.001
        0.573   0.000  -0.782  -0.011  -0.084   0.013  -0.082   0.000   0.023

  chi0(G,G') at the   11 th omega   0.0000  23.5107 [eV]
       1       2       3       4       5       6       7       8       9
    1  -1.710  -0.216  -0.119  -0.119  -0.217  -0.119  -0.217  -0.216  -0.119
        0.000  -0.216   0.120  -0.120   0.216  -0.120   0.216  -0.216   0.120

    2  -0.216  -1.123   0.000   0.027  -0.000   0.033  -0.001   0.080   0.000
        0.216   0.000  -0.299  -0.003  -0.046   0.005  -0.045   0.000   0.001

  chi0(G,G') at the   12 th omega   0.0000  45.0073 [eV]
       1       2       3       4       5       6       7       8       9
    1  -0.531  -0.070  -0.034  -0.034  -0.070  -0.034  -0.070  -0.070  -0.034
       -0.000  -0.070   0.034  -0.034   0.070  -0.034   0.070  -0.070   0.034

    2  -0.070  -0.372   0.000   0.010  -0.000   0.012  -0.000   0.027   0.000
        0.070   0.000  -0.098  -0.001  -0.017   0.001  -0.017   0.000  -0.001

  Average fulfillment of the sum rule on Im[epsilon] for q-point    7 :     37.85  [%]


--------------------------------------------------------------------------------
[...]

 E^0_gap          3.811
 E^GW_gap         4.648
 DeltaE^GW_gap    0.837


 k =   -0.250   0.250   0.000
 Band     E0 <VxcLDA>   SigX SigC(E0)      Z dSigC/dE  Sig(E)    E-E0       E
    1  -3.921 -10.297 -15.698   6.013   0.732  -0.367  -9.849   0.447  -3.474
    1   0.000   0.000   0.000   0.799   0.000   0.000   0.585   0.585   0.585
    2   0.477 -10.443 -13.581   3.949   0.728  -0.373  -9.852   0.591   1.067
    2   0.000   0.000   0.000   0.136   0.000   0.000   0.099   0.099   0.099
    3   2.025  -9.728 -11.722   2.918   0.776  -0.289  -9.011   0.717   2.742
    3   0.000   0.000   0.000   0.015   0.000   0.000   0.011   0.011   0.011
    4   4.493 -10.407 -11.534   2.464   0.806  -0.241  -9.330   1.077   5.570
    4   0.000   0.000   0.000  -0.001   0.000   0.000  -0.001  -0.001  -0.001
    5   8.360  -9.217  -4.522  -2.369   0.823  -0.215  -7.302   1.915  10.275
    5   0.000   0.000   0.000  -0.001   0.000   0.000  -0.001  -0.001  -0.001
    6  10.702  -9.115  -3.923  -2.670   0.809  -0.236  -7.075   2.040  12.742
    6   0.000   0.000   0.000  -0.046   0.000   0.000  -0.037  -0.037  -0.037
    7  11.186  -9.501  -4.315  -2.490   0.814  -0.228  -7.307   2.194  13.381
    7   0.000   0.000   0.000  -0.049   0.000   0.000  -0.040  -0.040  -0.040
    8  11.944  -9.314  -3.545  -2.949   0.791  -0.264  -7.083   2.231  14.175
    8   0.000   0.000   0.000  -0.105   0.000   0.000  -0.083  -0.083  -0.083

 E^0_gap          3.868
 E^GW_gap         4.705
 DeltaE^GW_gap    0.838


 k =    0.500   0.500   0.000
 Band     E0 <VxcLDA>   SigX SigC(E0)      Z dSigC/dE  Sig(E)    E-E0       E
    1  -1.868 -10.391 -14.764   5.093   0.699  -0.430  -9.887   0.503  -1.364
    1   0.000   0.000   0.000   0.488   0.000   0.000   0.341   0.341   0.341
    2  -1.868 -10.391 -14.764   5.093   0.699  -0.430  -9.887   0.503  -1.365
    2   0.000   0.000   0.000   0.488   0.000   0.000   0.341   0.341   0.341
    3   2.921 -10.081 -12.052   2.944   0.785  -0.273  -9.317   0.764   3.685
    3   0.000   0.000   0.000  -0.003   0.000   0.000  -0.003  -0.003  -0.003
    4   2.921 -10.081 -12.048   2.941   0.785  -0.273  -9.316   0.765   3.686
    4   0.000   0.000   0.000  -0.003   0.000   0.000  -0.003  -0.003  -0.003
    5   6.588  -8.803  -4.666  -2.230   0.825  -0.212  -7.229   1.573   8.161
    5   0.000   0.000   0.000  -0.000   0.000   0.000  -0.000  -0.000  -0.000
    6   6.588  -8.803  -4.666  -2.231   0.825  -0.212  -7.230   1.573   8.160
    6   0.000   0.000   0.000  -0.000   0.000   0.000  -0.000  -0.000  -0.000
    7  15.848  -9.422  -2.674  -3.447   0.816  -0.225  -6.727   2.695  18.542
    7   0.000   0.000   0.000  -0.429   0.000   0.000  -0.350  -0.350  -0.350
    8  15.848  -9.422  -2.675  -3.447   0.816  -0.225  -6.729   2.693  18.541
    8   0.000   0.000   0.000  -0.425   0.000   0.000  -0.346  -0.346  -0.346

 E^0_gap          3.667
 E^GW_gap         4.475
 DeltaE^GW_gap    0.808


 k =   -0.250   0.500   0.250
 Band     E0 <VxcLDA>   SigX SigC(E0)      Z dSigC/dE  Sig(E)    E-E0       E
    1  -1.691 -10.528 -14.851   5.066   0.703  -0.422 -10.005   0.523  -1.168
    1   0.000   0.000   0.000   0.495   0.000   0.000   0.348   0.348   0.348
    2  -1.691 -10.528 -14.851   5.066   0.703  -0.422 -10.005   0.523  -1.168
    2   0.000   0.000   0.000   0.495   0.000   0.000   0.348   0.348   0.348
    3   1.901  -9.857 -11.889   2.981   0.772  -0.296  -9.125   0.732   2.633
    3   0.000   0.000   0.000   0.018   0.000   0.000   0.014   0.014   0.014
    4   1.901  -9.857 -11.889   2.981   0.772  -0.296  -9.125   0.732   2.633
    4   0.000   0.000   0.000   0.019   0.000   0.000   0.014   0.014   0.014
    5  10.216  -9.220  -4.210  -2.512   0.818  -0.223  -7.178   2.042  12.257
    5   0.000   0.000   0.000  -0.026   0.000   0.000  -0.021  -0.021  -0.021
    6  10.216  -9.220  -4.210  -2.512   0.818  -0.223  -7.178   2.042  12.258
    6   0.000   0.000   0.000  -0.026   0.000   0.000  -0.021  -0.021  -0.021
    7  10.886  -9.605  -4.076  -2.817   0.802  -0.247  -7.430   2.175  13.060
    7   0.000   0.000   0.000  -0.051   0.000   0.000  -0.041  -0.041  -0.041
    8  10.886  -9.605  -4.076  -2.817   0.802  -0.247  -7.430   2.175  13.060
    8   0.000   0.000   0.000  -0.051   0.000   0.000  -0.041  -0.041  -0.041

 E^0_gap          8.314
 E^GW_gap         9.624
 DeltaE^GW_gap    1.310


 New Fermi energy :        2.815560E-01 Ha ,    7.661529E+00 eV
 New Exchange energy :    -1.928391E+00 Ha ,   -5.247419E+01 eV

 === QP Band Gaps ===
  >>>> For spin  1
   Minimum optical gap =   2.9792 [eV], located at k-point      :   0.0000  0.0000  0.0000
   Fundamental gap     =   1.0016 [eV], Top of valence bands at :   0.0000  0.0000  0.0000
                                        Bottom of conduction at :   0.5000  0.5000  0.0000

== END DATASET(S) ==============================================================
================================================================================
  
 -outvars: echo values of variables after computation  --------
            acell      1.0263000000E+01  1.0263000000E+01  1.0263000000E+01 Bohr
              amu      2.80855000E+01
             awtr1          1
             awtr2          0
             awtr3          1
             bdgw           1       8       1       8       1       8       1       8
                            1       8       1       8       1       8       1       8
             ecut1     4.00000000E+00 Hartree
             ecut2     1.49923969E+00 Hartree
             ecut3     1.49923969E+00 Hartree
          ecuteps1     0.00000000E+00 Hartree
          ecuteps2     1.49923969E+00 Hartree
          ecuteps3     0.00000000E+00 Hartree
         ecutsigx1     0.00000000E+00 Hartree
         ecutsigx2     0.00000000E+00 Hartree
         ecutsigx3     1.49923969E+00 Hartree
          ecutwfn1     0.00000000E+00 Hartree
          ecutwfn2     1.49923969E+00 Hartree
          ecutwfn3     1.49923969E+00 Hartree
           enunit           2
           etotal1    -8.8297470721E+00
           etotal2     0.0000000000E+00
           etotal3     0.0000000000E+00
            fcart1    -5.7392199412E-30  5.7392199412E-30 -5.7392199412E-30
                       5.7392199412E-30 -5.7392199412E-30  5.7392199412E-30
            fcart2     0.0000000000E+00  0.0000000000E+00  0.0000000000E+00
                       0.0000000000E+00  0.0000000000E+00  0.0000000000E+00
            fcart3     0.0000000000E+00  0.0000000000E+00  0.0000000000E+00
                       0.0000000000E+00  0.0000000000E+00  0.0000000000E+00
-          fftalg         112
        freqremax1     0.00000000E+00 Hartree
        freqremax2     1.00000000E+00 Hartree
        freqremax3     0.00000000E+00 Hartree
           getkss1          0
           getkss2          1
           getkss3          1
           getscr1          0
           getscr2          0
           getscr3          2
        gwcalctyp1          0
        gwcalctyp2          2
        gwcalctyp3          2
           gwpara           2
         icutcoul1          6
         icutcoul2          6
         icutcoul3          3
             iscf1          5
             iscf2          7
             iscf3          7
           istwfk        1    0    1    0    0    0    1    0
           jdtset        1    2    3
              kpt      0.00000000E+00  0.00000000E+00  0.00000000E+00
                       2.50000000E-01  0.00000000E+00  0.00000000E+00
                       5.00000000E-01  0.00000000E+00  0.00000000E+00
                       2.50000000E-01  2.50000000E-01  0.00000000E+00
                       5.00000000E-01  2.50000000E-01  0.00000000E+00
                      -2.50000000E-01  2.50000000E-01  0.00000000E+00
                       5.00000000E-01  5.00000000E-01  0.00000000E+00
                      -2.50000000E-01  5.00000000E-01  2.50000000E-01
            kptgw      0.00000000E+00  0.00000000E+00  0.00000000E+00
                       2.50000000E-01  0.00000000E+00  0.00000000E+00
                       5.00000000E-01  0.00000000E+00  0.00000000E+00
                       2.50000000E-01  2.50000000E-01  0.00000000E+00
                       5.00000000E-01  2.50000000E-01  0.00000000E+00
                      -2.50000000E-01  2.50000000E-01  0.00000000E+00
                       5.00000000E-01  5.00000000E-01  0.00000000E+00
                      -2.50000000E-01  5.00000000E-01  2.50000000E-01
         kptrlatt        4    0    0      0    4    0      0    0    4
          kptrlen      2.90281476E+01
          kssform1          3
          kssform2          1
          kssform3          1
P           mkmem           2
            natom           2
            nband          10
         nbandkss1         10
         nbandkss2          0
         nbandkss3          0
           ndtset           3
          nfreqim1         -1
          nfreqim2          4
          nfreqim3         -1
          nfreqre1         -1
          nfreqre2          8
          nfreqre3         -1
            ngfft1         15      15      15
            ngfft2          8       8       8
            ngfft3          8       8       8
             nkpt           8
           nkptgw           8
           npweps1          0
           npweps2         27
           npweps3          0
           npwkss1         27
           npwkss2          0
           npwkss3          0
          npwsigx1          0
          npwsigx2          0
          npwsigx3         27
           npwwfn1          0
           npwwfn2         27
           npwwfn3         27
           nsheps1          0
           nsheps2          4
           nsheps3          0
          nshsigx1          0
          nshsigx2          0
          nshsigx3          4
            nstep          20
             nsym          48
           ntypat           1
              occ      2.000000  2.000000  2.000000  2.000000  0.000000  0.000000
                       0.000000  0.000000  0.000000  0.000000
        optdriver1          0
        optdriver2          3
        optdriver3          4
        optforces           1
         rhoqpmix      5.00000000E-01
            rprim      0.0000000000E+00  5.0000000000E-01  5.0000000000E-01
                       5.0000000000E-01  0.0000000000E+00  5.0000000000E-01
                       5.0000000000E-01  5.0000000000E-01  0.0000000000E+00
          spgroup         227
           strten1     2.2712592573E-04  2.2712592573E-04  2.2712592573E-04
                       0.0000000000E+00  0.0000000000E+00  0.0000000000E+00
           strten2     0.0000000000E+00  0.0000000000E+00  0.0000000000E+00
                       0.0000000000E+00  0.0000000000E+00  0.0000000000E+00
           strten3     0.0000000000E+00  0.0000000000E+00  0.0000000000E+00
                       0.0000000000E+00  0.0000000000E+00  0.0000000000E+00
           symrel      1  0  0   0  1  0   0  0  1      -1  0  0   0 -1  0   0  0 -1
                       0 -1  1   0 -1  0   1 -1  0       0  1 -1   0  1  0  -1  1  0
                      -1  0  0  -1  0  1  -1  1  0       1  0  0   1  0 -1   1 -1  0
                       0  1 -1   1  0 -1   0  0 -1       0 -1  1  -1  0  1   0  0  1
                      -1  0  0  -1  1  0  -1  0  1       1  0  0   1 -1  0   1  0 -1
                       0 -1  1   1 -1  0   0 -1  0       0  1 -1  -1  1  0   0  1  0
                       1  0  0   0  0  1   0  1  0      -1  0  0   0  0 -1   0 -1  0
                       0  1 -1   0  0 -1   1  0 -1       0 -1  1   0  0  1  -1  0  1
                      -1  0  1  -1  1  0  -1  0  0       1  0 -1   1 -1  0   1  0  0
                       0 -1  0   1 -1  0   0 -1  1       0  1  0  -1  1  0   0  1 -1
                       1  0 -1   0  0 -1   0  1 -1      -1  0  1   0  0  1   0 -1  1
                       0  1  0   0  0  1   1  0  0       0 -1  0   0  0 -1  -1  0  0
                       1  0 -1   0  1 -1   0  0 -1      -1  0  1   0 -1  1   0  0  1
                       0 -1  0   0 -1  1   1 -1  0       0  1  0   0  1 -1  -1  1  0
                      -1  0  1  -1  0  0  -1  1  0       1  0 -1   1  0  0   1 -1  0
                       0  1  0   1  0  0   0  0  1       0 -1  0  -1  0  0   0  0 -1
                       0  0 -1   0  1 -1   1  0 -1       0  0  1   0 -1  1  -1  0  1
                       1 -1  0   0 -1  1   0 -1  0      -1  1  0   0  1 -1   0  1  0
                       0  0  1   1  0  0   0  1  0       0  0 -1  -1  0  0   0 -1  0
                      -1  1  0  -1  0  0  -1  0  1       1 -1  0   1  0  0   1  0 -1
                       0  0  1   0  1  0   1  0  0       0  0 -1   0 -1  0  -1  0  0
                       1 -1  0   0 -1  0   0 -1  1      -1  1  0   0  1  0   0  1 -1
                       0  0 -1   1  0 -1   0  1 -1       0  0  1  -1  0  1   0 -1  1
                      -1  1  0  -1  0  1  -1  0  0       1 -1  0   1  0 -1   1  0  0
            tnons      0.0000000  0.0000000  0.0000000     0.2500000  0.2500000  0.2500000
                       0.0000000  0.0000000  0.0000000     0.2500000  0.2500000  0.2500000
                       0.0000000  0.0000000  0.0000000     0.2500000  0.2500000  0.2500000
                       0.0000000  0.0000000  0.0000000     0.2500000  0.2500000  0.2500000
                       0.0000000  0.0000000  0.0000000     0.2500000  0.2500000  0.2500000
                       0.0000000  0.0000000  0.0000000     0.2500000  0.2500000  0.2500000
                       0.0000000  0.0000000  0.0000000     0.2500000  0.2500000  0.2500000
                       0.0000000  0.0000000  0.0000000     0.2500000  0.2500000  0.2500000
                       0.0000000  0.0000000  0.0000000     0.2500000  0.2500000  0.2500000
                       0.0000000  0.0000000  0.0000000     0.2500000  0.2500000  0.2500000
                       0.0000000  0.0000000  0.0000000     0.2500000  0.2500000  0.2500000
                       0.0000000  0.0000000  0.0000000     0.2500000  0.2500000  0.2500000
                       0.0000000  0.0000000  0.0000000     0.2500000  0.2500000  0.2500000
                       0.0000000  0.0000000  0.0000000     0.2500000  0.2500000  0.2500000
                       0.0000000  0.0000000  0.0000000     0.2500000  0.2500000  0.2500000
                       0.0000000  0.0000000  0.0000000     0.2500000  0.2500000  0.2500000
                       0.0000000  0.0000000  0.0000000     0.2500000  0.2500000  0.2500000
                       0.0000000  0.0000000  0.0000000     0.2500000  0.2500000  0.2500000
                       0.0000000  0.0000000  0.0000000     0.2500000  0.2500000  0.2500000
                       0.0000000  0.0000000  0.0000000     0.2500000  0.2500000  0.2500000
                       0.0000000  0.0000000  0.0000000     0.2500000  0.2500000  0.2500000
                       0.0000000  0.0000000  0.0000000     0.2500000  0.2500000  0.2500000
                       0.0000000  0.0000000  0.0000000     0.2500000  0.2500000  0.2500000
                       0.0000000  0.0000000  0.0000000     0.2500000  0.2500000  0.2500000
           toldfe1     1.00000000E-08 Hartree
           toldfe2     0.00000000E+00 Hartree
           toldfe3     0.00000000E+00 Hartree
            typat      1  1
              wtk        0.01563    0.12500    0.06250    0.09375    0.37500    0.18750
                         0.04688    0.09375
           xangst      0.0000000000E+00  0.0000000000E+00  0.0000000000E+00
                       1.3577364229E+00  1.3577364229E+00  1.3577364229E+00
            xcart      0.0000000000E+00  0.0000000000E+00  0.0000000000E+00
                       2.5657500000E+00  2.5657500000E+00  2.5657500000E+00
             xred      0.0000000000E+00  0.0000000000E+00  0.0000000000E+00
                       2.5000000000E-01  2.5000000000E-01  2.5000000000E-01
            znucl       14.00000

================================================================================


- Timing analysis has been suppressed with timopt=0



================================================================================

 Suggested references for the acknowledgment of ABINIT usage.

 The users of ABINIT have little formal obligations with respect to the ABINIT group
 (those specified in the GNU General Public License, http://www.gnu.org/copyleft/gpl.txt).
 However, it is common practice in the scientific literature,
 to acknowledge the efforts of people that have made the research possible.
 In this spirit, please find below suggested citations of work written by ABINIT developers,
 corresponding to implementations inside of ABINIT that you have used in the present run.
 Note also that it will be of great value to readers of publications presenting these results,
 to read papers enabling them to understand the theoretical formalism and details
 of the ABINIT implementation.
 For information on why they are suggested, see also http://www.abinit.org/about/?text=acknowledgments.

 [1] ABINIT : First-principles approach of materials and nanosystem properties.
 X. Gonze, B. Amadon, P.-M. Anglade, J.-M. Beuken, F. Bottin, P. Boulanger, F. Bruneval,
 D. Caliste, R. Caracas, M. Cote, T. Deutsch, L. Genovese, Ph. Ghosez, M. Giantomassi
 S. Goedecker, D.R. Hamann, P. Hermet, F. Jollet, G. Jomard, S. Leroux, M. Mancini, S. Mazevet,
 M.J.T. Oliveira, G. Onida, Y. Pouillon, T. Rangel, G.-M. Rignanese, D. Sangalli, R. Shaltaf,
 M. Torrent, M.J. Verstraete, G. Zerah, J.W. Zwanziger
 Computer Phys. Comm. 180, 2582-2615 (2009).
 Comment : the third generic paper describing the ABINIT project.
 Note that a version of this paper, that is not formatted for Computer Phys. Comm. 
 is available at http://www.abinit.org/about/ABINIT_CPC_v10.pdf .
 The licence allows the authors to put it on the Web.

 [2] A brief introduction to the ABINIT software package.
 X. Gonze, G.-M. Rignanese, M. Verstraete, J.-M. Beuken, Y. Pouillon, R. Caracas, F. Jollet,
 M. Torrent, G. Zerah, M. Mikami, Ph. Ghosez, M. Veithen, J.-Y. Raty, V. Olevano, F. Bruneval,
 L. Reining, R. Godby, G. Onida, D.R. Hamann, and D.C. Allan.
 Z. Kristallogr. 220, 558-562 (2005).
 Comment : the second generic paper describing the ABINIT project. Note that this paper
 should be cited especially if you are using the GW part of ABINIT, as several authors
 of this part are not in the list of authors of the first or third paper.
 The .pdf of the latter paper is available at http://www.abinit.org/about/zfk_0505-06_558-562.pdf.
 Note that it should not redistributed (Copyright by Oldenburg Wissenshaftverlag,
 the licence allows the authors to put it on the Web).


 And optionally :

 [3] First-principles computation of material properties : the ABINIT software project. 
 X. Gonze, J.-M. Beuken, R. Caracas, F. Detraux, M. Fuchs, G.-M. Rignanese, L. Sindic,
 M. Verstraete, G. Zerah, F. Jollet, M. Torrent, A. Roy, M. Mikami, Ph. Ghosez, J.-Y. Raty, D.C. Allan.
 Computational Materials Science 25, 478-492 (2002). http://dx.doi.org/10.1016/S0927-0256(02)00325-7
 Comment : the original paper describing the ABINIT project.

 [4] Fast radix 2, 3, 4 and 5 kernels for Fast Fourier Transformations
 on computers with overlapping multiply-add instructions.
 S. Goedecker, SIAM J. on Scientific Computing 18, 1605 (1997).

 [5] Towards a potential-based conjugate gradient algorithm for order-N self-consistent
 total energy calculations.
 X. Gonze, Phys. Rev. B 54, 4383 (1996).
 Comment : The potential-based conjugate-gradient algorithm, used when iscf=5, is not published.
 However, many elements of this algorithm have been explained in the paper above.
-
- Proc.   0 individual time (sec): cpu=          2.6  wall=          2.6

================================================================================

 Calculation completed.
.Delivered    0 WARNINGs and   0 COMMENTs to log file.
+Overall time at end (sec) : cpu=         10.5  wall=         10.5
