
.Version 7.9.3 of ABINIT 
.(MPI version, prepared for a x86_64_linux_gnu4.7 computer) 

.Copyright (C) 1998-2014 ABINIT group . 
 ABINIT comes with ABSOLUTELY NO WARRANTY.
 It is free software, and you are welcome to redistribute it
 under certain conditions (GNU General Public License,
 see ~abinit/COPYING or http://www.gnu.org/copyleft/gpl.txt).

 ABINIT is a project of the Universite Catholique de Louvain,
 Corning Inc. and other collaborators, see ~abinit/doc/developers/contributors.txt .
 Please read ~abinit/doc/users/acknowledgments.html for suggested
 acknowledgments of the ABINIT effort.
 For more information, see http://www.abinit.org .

.Starting date : Sat 30 Aug 2014.
- ( at 10h09 )
  
- input  file    -> t76.in
- output file    -> t76_MPI2.out
- root for input  files -> t76_MPI2i
- root for output files -> t76_MPI2o


 DATASET    1 : space group Fd -3 m (#227); Bravais cF (face-center cubic)
================================================================================
 Values of the parameters that define the memory need for DATASET  1.
   intxc =         0  ionmov =         0    iscf =         7 xclevel =         1
  lmnmax =         2   lnmax =         2   mband =         5  mffmem =         1
P  mgfft =        20   mkmem =         5 mpssoang=         3     mpw =       295
  mqgrid =      3001   natom =         2    nfft =      8000    nkpt =        10
  nloalg =         4  nspden =         1 nspinor =         1  nsppol =         1
    nsym =        48  n1xccc =      2501  ntypat =         1  occopt =         1
================================================================================
P This job should need less than                       2.992 Mbytes of memory.
  Rough estimation (10% accuracy) of disk space for files :
_ WF disk file :      0.227 Mbytes ; DEN or POT disk file :      0.063 Mbytes.
================================================================================


 DATASET    2 : space group Fd -3 m (#227); Bravais cF (face-center cubic)
================================================================================
 Values of the parameters that define the memory need for DATASET  2.
   intxc =         0  ionmov =         0    iscf =        -2 xclevel =         1
  lmnmax =         2   lnmax =         2   mband =        12  mffmem =         1
P  mgfft =        20   mkmem =        32 mpssoang=         3     mpw =       298
  mqgrid =      3001   natom =         2    nfft =      8000    nkpt =        64
  nloalg =         4  nspden =         1 nspinor =         1  nsppol =         1
    nsym =        48  n1xccc =      2501  ntypat =         1  occopt =         1
================================================================================
P This job should need less than                       3.856 Mbytes of memory.
  Rough estimation (10% accuracy) of disk space for files :
_ WF disk file :      3.494 Mbytes ; DEN or POT disk file :      0.063 Mbytes.
================================================================================


 DATASET    3 : space group Fd -3 m (#227); Bravais cF (face-center cubic)
================================================================================
 Values of the parameters that define the memory need for DATASET  3.
   intxc =         0  ionmov =         0    iscf =         7 xclevel =         1
  lmnmax =         2   lnmax =         2   mband =         6  mffmem =         1
P  mgfft =        18   mkmem =        32 mpssoang=         3     mpw =       278
  mqgrid =      3001   natom =         2    nfft =      5832    nkpt =        64
  nloalg =         4  nspden =         1 nspinor =         1  nsppol =         1
    nsym =        48  n1xccc =      2501  ntypat =         1  occopt =         1
================================================================================
P This job should need less than                       3.224 Mbytes of memory.
  Rough estimation (10% accuracy) of disk space for files :
_ WF disk file :      1.631 Mbytes ; DEN or POT disk file :      0.046 Mbytes.
================================================================================

--------------------------------------------------------------------------------
------------- Echo of variables that govern the present computation ------------
--------------------------------------------------------------------------------
-
- outvars: echo of selected default values                                      
-   accesswff0 =  0 , fftalg0 =112 , wfoptalg0 =  0
-
- outvars: echo of global parameters not present in the input file              
-  max_nthreads =    0
-
 -outvars: echo values of preprocessed input variables --------
            acell      1.0217000000E+01  1.0217000000E+01  1.0217000000E+01 Bohr
              amu      2.80855000E+01
     bs_algorithm1          1
     bs_algorithm2          1
     bs_algorithm3          2
  bs_coulomb_term1         11
  bs_coulomb_term2         11
  bs_coulomb_term3         21
      bs_coupling1          1
      bs_coupling2          1
      bs_coupling3          0
     bs_freq_mesh1     0.00000000E+00  0.00000000E+00  3.67493254E-04 Hartree
     bs_freq_mesh2     0.00000000E+00  0.00000000E+00  3.67493254E-04 Hartree
     bs_freq_mesh3     0.00000000E+00  2.20495952E-01  7.34986508E-04 Hartree
   bs_haydock_tol1     2.00000000E-02  2.00000000E-02
   bs_haydock_tol2     2.00000000E-02  2.00000000E-02
   bs_haydock_tol3     5.00000000E-02  0.00000000E+00
        bs_loband1          0
        bs_loband2          0
        bs_loband3          2
      chksymbreak1          1
      chksymbreak2          0
      chksymbreak3          0
           diemac      1.20000000E+01
             ecut1     8.00000000E+00 Hartree
             ecut2     8.00000000E+00 Hartree
             ecut3     7.56385066E+00 Hartree
          ecuteps1     0.00000000E+00 Hartree
          ecuteps2     0.00000000E+00 Hartree
          ecuteps3     2.26915520E+00 Hartree
          ecutwfn1     0.00000000E+00 Hartree
          ecutwfn2     0.00000000E+00 Hartree
          ecutwfn3     7.56385066E+00 Hartree
-          fftalg         112
           getden1          0
           getden2          1
           getden3          0
           getkss          -1
          inclvkb1          1
          inclvkb2          1
          inclvkb3          2
             iscf1          7
             iscf2         -2
             iscf3          7
           jdtset        1    2    3
              kpt1    -1.25000000E-01  0.00000000E+00  0.00000000E+00
                      -1.25000000E-01  2.50000000E-01  0.00000000E+00
                      -3.75000000E-01  0.00000000E+00  0.00000000E+00
                      -1.25000000E-01  1.25000000E-01  1.25000000E-01
                      -1.25000000E-01  5.00000000E-01  0.00000000E+00
                      -2.50000000E-01  3.75000000E-01  0.00000000E+00
                      -1.25000000E-01  3.75000000E-01  1.25000000E-01
                      -1.25000000E-01  2.50000000E-01  2.50000000E-01
                      -3.75000000E-01  5.00000000E-01  0.00000000E+00
                      -2.50000000E-01  5.00000000E-01  1.25000000E-01
              kpt2     2.75000000E-02  5.25000000E-02  7.75000000E-02
                       2.77500000E-01  5.25000000E-02  7.75000000E-02
                      -4.72500000E-01  5.25000000E-02  7.75000000E-02
                      -2.22500000E-01  5.25000000E-02  7.75000000E-02
                       2.75000000E-02  3.02500000E-01  7.75000000E-02
                       2.77500000E-01  3.02500000E-01  7.75000000E-02
                      -4.72500000E-01  3.02500000E-01  7.75000000E-02
                      -2.22500000E-01  3.02500000E-01  7.75000000E-02
                       2.75000000E-02 -4.47500000E-01  7.75000000E-02
                       2.77500000E-01 -4.47500000E-01  7.75000000E-02
                      -4.72500000E-01 -4.47500000E-01  7.75000000E-02
                      -2.22500000E-01 -4.47500000E-01  7.75000000E-02
                       2.75000000E-02 -1.97500000E-01  7.75000000E-02
                       2.77500000E-01 -1.97500000E-01  7.75000000E-02
                      -4.72500000E-01 -1.97500000E-01  7.75000000E-02
                      -2.22500000E-01 -1.97500000E-01  7.75000000E-02
                       2.75000000E-02  5.25000000E-02  3.27500000E-01
                       2.77500000E-01  5.25000000E-02  3.27500000E-01
                      -4.72500000E-01  5.25000000E-02  3.27500000E-01
                      -2.22500000E-01  5.25000000E-02  3.27500000E-01
                       2.75000000E-02  3.02500000E-01  3.27500000E-01
                       2.77500000E-01  3.02500000E-01  3.27500000E-01
                      -4.72500000E-01  3.02500000E-01  3.27500000E-01
                      -2.22500000E-01  3.02500000E-01  3.27500000E-01
                       2.75000000E-02 -4.47500000E-01  3.27500000E-01
                       2.77500000E-01 -4.47500000E-01  3.27500000E-01
                      -4.72500000E-01 -4.47500000E-01  3.27500000E-01
                      -2.22500000E-01 -4.47500000E-01  3.27500000E-01
                       2.75000000E-02 -1.97500000E-01  3.27500000E-01
                       2.77500000E-01 -1.97500000E-01  3.27500000E-01
                      -4.72500000E-01 -1.97500000E-01  3.27500000E-01
                      -2.22500000E-01 -1.97500000E-01  3.27500000E-01
                       2.75000000E-02  5.25000000E-02 -4.22500000E-01
                       2.77500000E-01  5.25000000E-02 -4.22500000E-01
                      -4.72500000E-01  5.25000000E-02 -4.22500000E-01
                      -2.22500000E-01  5.25000000E-02 -4.22500000E-01
                       2.75000000E-02  3.02500000E-01 -4.22500000E-01
                       2.77500000E-01  3.02500000E-01 -4.22500000E-01
                      -4.72500000E-01  3.02500000E-01 -4.22500000E-01
                      -2.22500000E-01  3.02500000E-01 -4.22500000E-01
                       2.75000000E-02 -4.47500000E-01 -4.22500000E-01
                       2.77500000E-01 -4.47500000E-01 -4.22500000E-01
                      -4.72500000E-01 -4.47500000E-01 -4.22500000E-01
                      -2.22500000E-01 -4.47500000E-01 -4.22500000E-01
                       2.75000000E-02 -1.97500000E-01 -4.22500000E-01
                       2.77500000E-01 -1.97500000E-01 -4.22500000E-01
                      -4.72500000E-01 -1.97500000E-01 -4.22500000E-01
                      -2.22500000E-01 -1.97500000E-01 -4.22500000E-01
                       2.75000000E-02  5.25000000E-02 -1.72500000E-01
                       2.77500000E-01  5.25000000E-02 -1.72500000E-01
              kpt3     2.75000000E-02  5.25000000E-02  7.75000000E-02
                       2.77500000E-01  5.25000000E-02  7.75000000E-02
                      -4.72500000E-01  5.25000000E-02  7.75000000E-02
                      -2.22500000E-01  5.25000000E-02  7.75000000E-02
                       2.75000000E-02  3.02500000E-01  7.75000000E-02
                       2.77500000E-01  3.02500000E-01  7.75000000E-02
                      -4.72500000E-01  3.02500000E-01  7.75000000E-02
                      -2.22500000E-01  3.02500000E-01  7.75000000E-02
                       2.75000000E-02 -4.47500000E-01  7.75000000E-02
                       2.77500000E-01 -4.47500000E-01  7.75000000E-02
                      -4.72500000E-01 -4.47500000E-01  7.75000000E-02
                      -2.22500000E-01 -4.47500000E-01  7.75000000E-02
                       2.75000000E-02 -1.97500000E-01  7.75000000E-02
                       2.77500000E-01 -1.97500000E-01  7.75000000E-02
                      -4.72500000E-01 -1.97500000E-01  7.75000000E-02
                      -2.22500000E-01 -1.97500000E-01  7.75000000E-02
                       2.75000000E-02  5.25000000E-02  3.27500000E-01
                       2.77500000E-01  5.25000000E-02  3.27500000E-01
                      -4.72500000E-01  5.25000000E-02  3.27500000E-01
                      -2.22500000E-01  5.25000000E-02  3.27500000E-01
                       2.75000000E-02  3.02500000E-01  3.27500000E-01
                       2.77500000E-01  3.02500000E-01  3.27500000E-01
                      -4.72500000E-01  3.02500000E-01  3.27500000E-01
                      -2.22500000E-01  3.02500000E-01  3.27500000E-01
                       2.75000000E-02 -4.47500000E-01  3.27500000E-01
                       2.77500000E-01 -4.47500000E-01  3.27500000E-01
                      -4.72500000E-01 -4.47500000E-01  3.27500000E-01
                      -2.22500000E-01 -4.47500000E-01  3.27500000E-01
                       2.75000000E-02 -1.97500000E-01  3.27500000E-01
                       2.77500000E-01 -1.97500000E-01  3.27500000E-01
                      -4.72500000E-01 -1.97500000E-01  3.27500000E-01
                      -2.22500000E-01 -1.97500000E-01  3.27500000E-01
                       2.75000000E-02  5.25000000E-02 -4.22500000E-01
                       2.77500000E-01  5.25000000E-02 -4.22500000E-01
                      -4.72500000E-01  5.25000000E-02 -4.22500000E-01
                      -2.22500000E-01  5.25000000E-02 -4.22500000E-01
                       2.75000000E-02  3.02500000E-01 -4.22500000E-01
                       2.77500000E-01  3.02500000E-01 -4.22500000E-01
                      -4.72500000E-01  3.02500000E-01 -4.22500000E-01
                      -2.22500000E-01  3.02500000E-01 -4.22500000E-01
                       2.75000000E-02 -4.47500000E-01 -4.22500000E-01
                       2.77500000E-01 -4.47500000E-01 -4.22500000E-01
                      -4.72500000E-01 -4.47500000E-01 -4.22500000E-01
                      -2.22500000E-01 -4.47500000E-01 -4.22500000E-01
                       2.75000000E-02 -1.97500000E-01 -4.22500000E-01
                       2.77500000E-01 -1.97500000E-01 -4.22500000E-01
                      -4.72500000E-01 -1.97500000E-01 -4.22500000E-01
                      -2.22500000E-01 -1.97500000E-01 -4.22500000E-01
                       2.75000000E-02  5.25000000E-02 -1.72500000E-01
                       2.77500000E-01  5.25000000E-02 -1.72500000E-01
                       outvar_i_n : Printing only first  50 k-points.
         kptrlatt1      -4   -4    4      4   -4    4     -4    4    4
         kptrlatt2       4    0    0      0    4    0      0    0    4
         kptrlatt3       4    0    0      0    4    0      0    0    4
          kptrlen1     4.08680000E+01
          kptrlen2     2.88980399E+01
          kptrlen3     2.88980399E+01
       mdf_epsinf1     0.00000000E+00
       mdf_epsinf2     0.00000000E+00
       mdf_epsinf3     1.20000000E+01
P           mkmem1          5
P           mkmem2         32
P           mkmem3         32
            natom           2
            nband1          5
            nband2         12
            nband3          6
           nbdbuf1          0
           nbdbuf2          4
           nbdbuf3          0
           ndtset           3
            ngfft1         20      20      20
            ngfft2         20      20      20
            ngfft3         18      18      18
             nkpt1         10
             nkpt2         64
             nkpt3         64
           npweps1          0
           npweps2          0
           npweps3         59
           npwwfn1          0
           npwwfn2          0
           npwwfn3        283
           nsheps1          0
           nsheps2          0
           nsheps3          6
            nstep          50
             nsym          48
           ntypat           1
              occ1     2.000000  2.000000  2.000000  2.000000  0.000000
              occ3     2.000000  2.000000  2.000000  2.000000  0.000000  0.000000
        optdriver1          0
        optdriver2          0
        optdriver3         99
            rprim      0.0000000000E+00  5.0000000000E-01  5.0000000000E-01
                       5.0000000000E-01  0.0000000000E+00  5.0000000000E-01
                       5.0000000000E-01  5.0000000000E-01  0.0000000000E+00
           shiftk1     5.00000000E-01  5.00000000E-01  5.00000000E-01
           shiftk2     1.10000000E-01  2.10000000E-01  3.10000000E-01
           shiftk3     1.10000000E-01  2.10000000E-01  3.10000000E-01
         soenergy1     0.00000000E+00 Hartree
         soenergy2     0.00000000E+00 Hartree
         soenergy3     2.93994603E-02 Hartree
          spgroup         227
           symrel      1  0  0   0  1  0   0  0  1      -1  0  0   0 -1  0   0  0 -1
                       0 -1  1   0 -1  0   1 -1  0       0  1 -1   0  1  0  -1  1  0
                      -1  0  0  -1  0  1  -1  1  0       1  0  0   1  0 -1   1 -1  0
                       0  1 -1   1  0 -1   0  0 -1       0 -1  1  -1  0  1   0  0  1
                      -1  0  0  -1  1  0  -1  0  1       1  0  0   1 -1  0   1  0 -1
                       0 -1  1   1 -1  0   0 -1  0       0  1 -1  -1  1  0   0  1  0
                       1  0  0   0  0  1   0  1  0      -1  0  0   0  0 -1   0 -1  0
                       0  1 -1   0  0 -1   1  0 -1       0 -1  1   0  0  1  -1  0  1
                      -1  0  1  -1  1  0  -1  0  0       1  0 -1   1 -1  0   1  0  0
                       0 -1  0   1 -1  0   0 -1  1       0  1  0  -1  1  0   0  1 -1
                       1  0 -1   0  0 -1   0  1 -1      -1  0  1   0  0  1   0 -1  1
                       0  1  0   0  0  1   1  0  0       0 -1  0   0  0 -1  -1  0  0
                       1  0 -1   0  1 -1   0  0 -1      -1  0  1   0 -1  1   0  0  1
                       0 -1  0   0 -1  1   1 -1  0       0  1  0   0  1 -1  -1  1  0
                      -1  0  1  -1  0  0  -1  1  0       1  0 -1   1  0  0   1 -1  0
                       0  1  0   1  0  0   0  0  1       0 -1  0  -1  0  0   0  0 -1
                       0  0 -1   0  1 -1   1  0 -1       0  0  1   0 -1  1  -1  0  1
                       1 -1  0   0 -1  1   0 -1  0      -1  1  0   0  1 -1   0  1  0
                       0  0  1   1  0  0   0  1  0       0  0 -1  -1  0  0   0 -1  0
                      -1  1  0  -1  0  0  -1  0  1       1 -1  0   1  0  0   1  0 -1
                       0  0  1   0  1  0   1  0  0       0  0 -1   0 -1  0  -1  0  0
                       1 -1  0   0 -1  0   0 -1  1      -1  1  0   0  1  0   0  1 -1
                       0  0 -1   1  0 -1   0  1 -1       0  0  1  -1  0  1   0 -1  1
                      -1  1  0  -1  0  1  -1  0  0       1 -1  0   1  0 -1   1  0  0
           timopt          -2
            tnons      0.0000000  0.0000000  0.0000000     0.2500000  0.2500000  0.2500000
                       0.0000000  0.0000000  0.0000000     0.2500000  0.2500000  0.2500000
                       0.0000000  0.0000000  0.0000000     0.2500000  0.2500000  0.2500000
                       0.0000000  0.0000000  0.0000000     0.2500000  0.2500000  0.2500000
                       0.0000000  0.0000000  0.0000000     0.2500000  0.2500000  0.2500000
                       0.0000000  0.0000000  0.0000000     0.2500000  0.2500000  0.2500000
                       0.0000000  0.0000000  0.0000000     0.2500000  0.2500000  0.2500000
                       0.0000000  0.0000000  0.0000000     0.2500000  0.2500000  0.2500000
                       0.0000000  0.0000000  0.0000000     0.2500000  0.2500000  0.2500000
                       0.0000000  0.0000000  0.0000000     0.2500000  0.2500000  0.2500000
                       0.0000000  0.0000000  0.0000000     0.2500000  0.2500000  0.2500000
                       0.0000000  0.0000000  0.0000000     0.2500000  0.2500000  0.2500000
                       0.0000000  0.0000000  0.0000000     0.2500000  0.2500000  0.2500000
                       0.0000000  0.0000000  0.0000000     0.2500000  0.2500000  0.2500000
                       0.0000000  0.0000000  0.0000000     0.2500000  0.2500000  0.2500000
                       0.0000000  0.0000000  0.0000000     0.2500000  0.2500000  0.2500000
                       0.0000000  0.0000000  0.0000000     0.2500000  0.2500000  0.2500000
                       0.0000000  0.0000000  0.0000000     0.2500000  0.2500000  0.2500000
                       0.0000000  0.0000000  0.0000000     0.2500000  0.2500000  0.2500000
                       0.0000000  0.0000000  0.0000000     0.2500000  0.2500000  0.2500000
                       0.0000000  0.0000000  0.0000000     0.2500000  0.2500000  0.2500000
                       0.0000000  0.0000000  0.0000000     0.2500000  0.2500000  0.2500000
                       0.0000000  0.0000000  0.0000000     0.2500000  0.2500000  0.2500000
                       0.0000000  0.0000000  0.0000000     0.2500000  0.2500000  0.2500000
           tolvrs1     1.00000000E-08
           tolvrs2     0.00000000E+00
           tolvrs3     0.00000000E+00
           tolwfr1     0.00000000E+00
           tolwfr2     1.00000000E-10
           tolwfr3     0.00000000E+00
            typat      1  1
              wtk1       0.03125    0.09375    0.03125    0.09375    0.09375    0.09375
                         0.18750    0.09375    0.09375    0.18750
              wtk2       0.01563    0.01563    0.01563    0.01563    0.01563    0.01563
                         0.01563    0.01563    0.01563    0.01563    0.01563    0.01563
                         0.01563    0.01563    0.01563    0.01563    0.01563    0.01563
                         0.01563    0.01563    0.01563    0.01563    0.01563    0.01563
                         0.01563    0.01563    0.01563    0.01563    0.01563    0.01563
                         0.01563    0.01563    0.01563    0.01563    0.01563    0.01563
                         0.01563    0.01563    0.01563    0.01563    0.01563    0.01563
                         0.01563    0.01563    0.01563    0.01563    0.01563    0.01563
                         0.01563    0.01563
              wtk3       0.01563    0.01563    0.01563    0.01563    0.01563    0.01563
                         0.01563    0.01563    0.01563    0.01563    0.01563    0.01563
                         0.01563    0.01563    0.01563    0.01563    0.01563    0.01563
                         0.01563    0.01563    0.01563    0.01563    0.01563    0.01563
                         0.01563    0.01563    0.01563    0.01563    0.01563    0.01563
                         0.01563    0.01563    0.01563    0.01563    0.01563    0.01563
                         0.01563    0.01563    0.01563    0.01563    0.01563    0.01563
                         0.01563    0.01563    0.01563    0.01563    0.01563    0.01563
                         0.01563    0.01563
                       outvars : Printing only first  50 k-points.
           xangst      0.0000000000E+00  0.0000000000E+00  0.0000000000E+00
                       1.3516508850E+00  1.3516508850E+00  1.3516508850E+00
            xcart      0.0000000000E+00  0.0000000000E+00  0.0000000000E+00
                       2.5542500000E+00  2.5542500000E+00  2.5542500000E+00
             xred      0.0000000000E+00  0.0000000000E+00  0.0000000000E+00
                       2.5000000000E-01  2.5000000000E-01  2.5000000000E-01
             zcut1     3.67493260E-03 Hartree
             zcut2     3.67493260E-03 Hartree
             zcut3     3.67493254E-03 Hartree
            znucl       14.00000

================================================================================

 chkinp: Checking input parameters for consistency, jdtset=   1.

 chkinp: Checking input parameters for consistency, jdtset=   2.

 chkinp: Checking input parameters for consistency, jdtset=   3.

================================================================================
== DATASET  1 ==================================================================
-   nproc =    2

 Exchange-correlation functional for the present dataset will be:
  LDA: new Teter (4/93) with spin-polarized option - ixc=1
 Citation for XC functional:
  S. Goedecker, M. Teter, J. Huetter, PRB 54, 1703 (1996)

 Real(R)+Recip(G) space primitive vectors, cartesian coordinates (Bohr,Bohr^-1):
 R(1)=  0.0000000  5.1085000  5.1085000  G(1)= -0.0978761  0.0978761  0.0978761
 R(2)=  5.1085000  0.0000000  5.1085000  G(2)=  0.0978761 -0.0978761  0.0978761
 R(3)=  5.1085000  5.1085000  0.0000000  G(3)=  0.0978761  0.0978761 -0.0978761
 Unit cell volume ucvol=  2.6663072E+02 bohr^3
 Angles (23,13,12)=  6.00000000E+01  6.00000000E+01  6.00000000E+01 degrees

 getcut: wavevector=  0.0000  0.0000  0.0000  ngfft=  20  20  20
         ecut(hartree)=      8.000   => boxcut(ratio)=   2.17426

--- Pseudopotential description ------------------------------------------------
- pspini: atom type   1  psp file is /data/ABINIT/testf_gcc47/trunk_7.9.3-private/tests/Psps_for_tests/14si.pspnc
- pspatm: opening atomic psp file    /data/ABINIT/testf_gcc47/trunk_7.9.3-private/tests/Psps_for_tests/14si.pspnc
-  Troullier-Martins psp for element  Si        Thu Oct 27 17:31:21 EDT 1994
- 14.00000   4.00000    940714                znucl, zion, pspdat
    1    1    2    2      2001   0.00000      pspcod,pspxc,lmax,lloc,mmax,r2well
    0   5.907  14.692    1   2.0872718        l,e99.0,e99.9,nproj,rcpsp
   0.00000000   0.00000000   0.00000000   0.00000000     rms, ekb1, ekb2, epsatm
    1   2.617   4.181    1   2.0872718        l,e99.0,e99.9,nproj,rcpsp
   0.00000000   0.00000000   0.00000000   0.00000000     rms, ekb1, ekb2, epsatm
    2   0.000   0.000    0   2.0872718        l,e99.0,e99.9,nproj,rcpsp
   0.00000000   0.00000000   0.00000000   0.00000000     rms, ekb1, ekb2, epsatm
    1.80626423934776    0.22824404341771    1.17378968127746   rchrg,fchrg,qchrg
 pspatm: epsatm=    1.43386982
         --- l  ekb(1:nproj) -->
             0    3.287949
             1    1.849886
 pspatm: atomic psp has been read  and splines computed

   2.29419171E+01                                ecore*ucvol(ha*bohr**3)
--------------------------------------------------------------------------------

P newkpt: treating      5 bands with npw=     295 for ikpt=   1 by node    0
P newkpt: treating      5 bands with npw=     292 for ikpt=   2 by node    0
P newkpt: treating      5 bands with npw=     287 for ikpt=   3 by node    0
P newkpt: treating      5 bands with npw=     295 for ikpt=   4 by node    0
P newkpt: treating      5 bands with npw=     283 for ikpt=   5 by node    0
P newkpt: treating      5 bands with npw=     286 for ikpt=   6 by node    1
P newkpt: treating      5 bands with npw=     289 for ikpt=   7 by node    1
P newkpt: treating      5 bands with npw=     292 for ikpt=   8 by node    1
P newkpt: treating      5 bands with npw=     291 for ikpt=   9 by node    1
P newkpt: treating      5 bands with npw=     286 for ikpt=  10 by node    1

_setup2: Arith. and geom. avg. npw (full set) are     289.031     289.009

================================================================================

     iter   Etot(hartree)      deltaE(h)  residm     vres2
 ETOT  1  -8.8671207395135    -8.867E+00 8.225E-03 5.760E+00
 ETOT  2  -8.8724821196983    -5.361E-03 3.400E-05 1.534E-01
 ETOT  3  -8.8725561079172    -7.399E-05 1.343E-05 3.081E-03
 ETOT  4  -8.8725570696785    -9.618E-07 8.111E-07 1.113E-05
 ETOT  5  -8.8725570746436    -4.965E-09 2.878E-07 1.577E-08
 ETOT  6  -8.8725570746526    -9.017E-12 1.820E-08 1.346E-10

 At SCF step    6       vres2   =  1.35E-10 < tolvrs=  1.00E-08 =>converged.

 Cartesian components of stress tensor (hartree/bohr^3)
  sigma(1 1)=  3.02328646E-05  sigma(3 2)=  0.00000000E+00
  sigma(2 2)=  3.02328646E-05  sigma(3 1)=  0.00000000E+00
  sigma(3 3)=  3.02328646E-05  sigma(2 1)=  0.00000000E+00

================================================================================

 ----iterations are completed or convergence reached----

 Mean square residual over all n,k,spin=   4.7270E-10; max=  1.8203E-08
  -0.1250  0.0000  0.0000    1  1.82033E-08 kpt; spin; max resid(k); each band:
  4.44E-14 5.78E-14 8.52E-15 8.49E-15 1.82E-08
  -0.1250  0.2500  0.0000    1  7.04181E-12 kpt; spin; max resid(k); each band:
  5.39E-14 1.14E-13 4.27E-14 1.14E-15 7.04E-12
  -0.3750  0.0000  0.0000    1  2.54196E-13 kpt; spin; max resid(k); each band:
  6.24E-14 1.67E-13 1.43E-15 1.43E-15 2.54E-13
  -0.1250  0.1250  0.1250    1  1.72396E-13 kpt; spin; max resid(k); each band:
  9.18E-14 3.46E-14 3.56E-15 5.93E-14 1.72E-13
  -0.1250  0.5000  0.0000    1  3.76137E-12 kpt; spin; max resid(k); each band:
  2.91E-14 1.46E-13 5.56E-14 2.18E-15 3.76E-12
  -0.2500  0.3750  0.0000    1  1.12925E-13 kpt; spin; max resid(k); each band:
  1.40E-14 1.13E-13 4.34E-14 1.34E-15 9.50E-14
  -0.1250  0.3750  0.1250    1  5.41515E-09 kpt; spin; max resid(k); each band:
  7.42E-14 5.90E-14 8.11E-14 2.53E-14 5.42E-09
  -0.1250  0.2500  0.2500    1  4.36998E-13 kpt; spin; max resid(k); each band:
  1.10E-13 2.18E-14 4.15E-14 1.63E-15 4.37E-13
  -0.3750  0.5000  0.0000    1  2.82222E-12 kpt; spin; max resid(k); each band:
  7.33E-14 3.22E-14 1.45E-14 1.63E-15 2.82E-12
  -0.2500  0.5000  0.1250    1  2.25271E-13 kpt; spin; max resid(k); each band:
  3.24E-14 4.93E-14 2.17E-14 8.35E-14 2.25E-13
 reduced coordinates (array xred) for    2 atoms
       0.000000000000      0.000000000000      0.000000000000
       0.250000000000      0.250000000000      0.250000000000
 rms dE/dt=  0.0000E+00; max dE/dt=  0.0000E+00; dE/dt below (all hartree)
    1       0.000000000000      0.000000000000      0.000000000000
    2       0.000000000000      0.000000000000      0.000000000000

 cartesian coordinates (angstrom) at end:
    1      0.00000000000000     0.00000000000000     0.00000000000000
    2      1.35165088504101     1.35165088504101     1.35165088504101

 cartesian forces (hartree/bohr) at end:
    1     -0.00000000000000    -0.00000000000000    -0.00000000000000
    2     -0.00000000000000    -0.00000000000000    -0.00000000000000
 frms,max,avg= 0.0000000E+00 0.0000000E+00   0.000E+00  0.000E+00  0.000E+00 h/b

 cartesian forces (eV/Angstrom) at end:
    1     -0.00000000000000    -0.00000000000000    -0.00000000000000
    2     -0.00000000000000    -0.00000000000000    -0.00000000000000
 frms,max,avg= 0.0000000E+00 0.0000000E+00   0.000E+00  0.000E+00  0.000E+00 e/A
 length scales= 10.217000000000 10.217000000000 10.217000000000 bohr
              =  5.406603540164  5.406603540164  5.406603540164 angstroms
 prteigrs : about to open file t76_MPI2o_DS1_EIG
 Fermi (or HOMO) energy (hartree) =   0.20639   Average Vxc (hartree)=  -0.35452
 Eigenvalues (hartree) for nkpt=  10  k points:
 kpt#   1, nband=  5, wtk=  0.03125, kpt= -0.1250  0.0000  0.0000 (reduced coord)
  -0.21917   0.15754   0.20639   0.20639   0.30711
 kpt#   2, nband=  5, wtk=  0.09375, kpt= -0.1250  0.2500  0.0000 (reduced coord)
  -0.18008   0.04529   0.13033   0.18831   0.31515
 kpt#   3, nband=  5, wtk=  0.03125, kpt= -0.3750  0.0000  0.0000 (reduced coord)
  -0.16342  -0.00429   0.17658   0.17658   0.27595
 kpt#   4, nband=  5, wtk=  0.09375, kpt= -0.1250  0.1250  0.1250 (reduced coord)
  -0.19910   0.09746   0.16768   0.17054   0.29392
 kpt#   5, nband=  5, wtk=  0.09375, kpt= -0.1250  0.5000  0.0000 (reduced coord)
  -0.13615  -0.03410   0.13177   0.15876   0.29555
 kpt#   6, nband=  5, wtk=  0.09375, kpt= -0.2500  0.3750  0.0000 (reduced coord)
  -0.11740  -0.02927   0.06716   0.14656   0.28192
 kpt#   7, nband=  5, wtk=  0.18750, kpt= -0.1250  0.3750  0.1250 (reduced coord)
  -0.14389   0.00051   0.09248   0.14469   0.32094
 kpt#   8, nband=  5, wtk=  0.09375, kpt= -0.1250  0.2500  0.2500 (reduced coord)
  -0.15990   0.03449   0.11680   0.13441   0.26364
 kpt#   9, nband=  5, wtk=  0.09375, kpt= -0.3750  0.5000  0.0000 (reduced coord)
  -0.10393  -0.03546   0.08802   0.11675   0.24618
 kpt#  10, nband=  5, wtk=  0.18750, kpt= -0.2500  0.5000  0.1250 (reduced coord)
  -0.09712  -0.03937   0.06437   0.10586   0.30237
 Total charge density [el/Bohr^3]
,     Maximum=    8.5805E-02  at reduced coord.    0.1000    0.1000    0.7000
,Next maximum=    8.5805E-02  at reduced coord.    0.1500    0.1500    0.5500
,     Minimum=    3.5223E-03  at reduced coord.    0.5000    0.5000    0.5000
,Next minimum=    3.5223E-03  at reduced coord.    0.7500    0.7500    0.7500
,  Integrated=    8.0000E+00

--------------------------------------------------------------------------------
 Components of total free energy (in Hartree) :

    Kinetic energy  =  3.02548318858747E+00
    Hartree energy  =  5.38002186811259E-01
    XC energy       = -3.53865869754006E+00
    Ewald energy    = -8.43581958561899E+00
    PspCore energy  =  8.60437873148613E-02
    Loc. psp. energy= -2.43059856799666E+00
    NL   psp  energy=  1.88299061378947E+00
    >>>>>>>>> Etotal= -8.87255707465264E+00

 Other information on the energy :
    Total energy(eV)= -2.41434556378132E+02 ; Band energy (Ha)=   2.3116380114E-01
--------------------------------------------------------------------------------

 Cartesian components of stress tensor (hartree/bohr^3)
  sigma(1 1)=  3.02328646E-05  sigma(3 2)=  0.00000000E+00
  sigma(2 2)=  3.02328646E-05  sigma(3 1)=  0.00000000E+00
  sigma(3 3)=  3.02328646E-05  sigma(2 1)=  0.00000000E+00

-Cartesian components of stress tensor (GPa)         [Pressure= -8.8948E-01 GPa]
- sigma(1 1)=  8.89481436E-01  sigma(3 2)=  0.00000000E+00
- sigma(2 2)=  8.89481436E-01  sigma(3 1)=  0.00000000E+00
- sigma(3 3)=  8.89481436E-01  sigma(2 1)=  0.00000000E+00

================================================================================
== DATASET  2 ==================================================================
-   nproc =    2

 mkfilename : getden/=0, take file _DEN from output of DATASET   1.

 mkfilename : getkss/=0, take file _KSS from output of DATASET   1.

 Exchange-correlation functional for the present dataset will be:
  LDA: new Teter (4/93) with spin-polarized option - ixc=1
 Citation for XC functional:
  S. Goedecker, M. Teter, J. Huetter, PRB 54, 1703 (1996)

 Real(R)+Recip(G) space primitive vectors, cartesian coordinates (Bohr,Bohr^-1):
 R(1)=  0.0000000  5.1085000  5.1085000  G(1)= -0.0978761  0.0978761  0.0978761
 R(2)=  5.1085000  0.0000000  5.1085000  G(2)=  0.0978761 -0.0978761  0.0978761
 R(3)=  5.1085000  5.1085000  0.0000000  G(3)=  0.0978761  0.0978761 -0.0978761
 Unit cell volume ucvol=  2.6663072E+02 bohr^3
 Angles (23,13,12)=  6.00000000E+01  6.00000000E+01  6.00000000E+01 degrees

 getcut: wavevector=  0.0000  0.0000  0.0000  ngfft=  20  20  20
         ecut(hartree)=      8.000   => boxcut(ratio)=   2.17426
--------------------------------------------------------------------------------

P newkpt: treating     12 bands with npw=     290 for ikpt=   1 by node    0
P newkpt: treating     12 bands with npw=     293 for ikpt=   2 by node    0
P newkpt: treating     12 bands with npw=     284 for ikpt=   3 by node    0
P newkpt: treating     12 bands with npw=     295 for ikpt=   4 by node    0
P newkpt: treating     12 bands with npw=     295 for ikpt=   5 by node    0
P newkpt: treating     12 bands with npw=     297 for ikpt=   6 by node    0
P newkpt: treating     12 bands with npw=     289 for ikpt=   7 by node    0
P newkpt: treating     12 bands with npw=     283 for ikpt=   8 by node    0
P newkpt: treating     12 bands with npw=     282 for ikpt=   9 by node    0
P newkpt: treating     12 bands with npw=     288 for ikpt=  10 by node    0
P newkpt: treating     12 bands with npw=     292 for ikpt=  11 by node    0
P newkpt: treating     12 bands with npw=     289 for ikpt=  12 by node    0
P newkpt: treating     12 bands with npw=     293 for ikpt=  13 by node    0
P newkpt: treating     12 bands with npw=     286 for ikpt=  14 by node    0
P newkpt: treating     12 bands with npw=     287 for ikpt=  15 by node    0
P newkpt: treating     12 bands with npw=     297 for ikpt=  16 by node    0
P newkpt: treating     12 bands with npw=     293 for ikpt=  17 by node    0
P newkpt: treating     12 bands with npw=     295 for ikpt=  18 by node    0
P newkpt: treating     12 bands with npw=     288 for ikpt=  19 by node    0
P newkpt: treating     12 bands with npw=     285 for ikpt=  20 by node    0
P newkpt: treating     12 bands with npw=     297 for ikpt=  21 by node    0
P newkpt: treating     12 bands with npw=     292 for ikpt=  22 by node    0
P newkpt: treating     12 bands with npw=     287 for ikpt=  23 by node    0
P newkpt: treating     12 bands with npw=     285 for ikpt=  24 by node    0
P newkpt: treating     12 bands with npw=     285 for ikpt=  25 by node    0
P newkpt: treating     12 bands with npw=     285 for ikpt=  26 by node    0
P newkpt: treating     12 bands with npw=     285 for ikpt=  27 by node    0
P newkpt: treating     12 bands with npw=     283 for ikpt=  28 by node    0
P newkpt: treating     12 bands with npw=     288 for ikpt=  29 by node    0
P newkpt: treating     12 bands with npw=     289 for ikpt=  30 by node    0
P newkpt: treating     12 bands with npw=     282 for ikpt=  31 by node    0
P newkpt: treating     12 bands with npw=     285 for ikpt=  32 by node    0
P newkpt: treating     12 bands with npw=     283 for ikpt=  33 by node    1
P newkpt: treating     12 bands with npw=     287 for ikpt=  34 by node    1
P newkpt: treating     12 bands with npw=     293 for ikpt=  35 by node    1
P newkpt: treating     12 bands with npw=     288 for ikpt=  36 by node    1
P newkpt: treating     12 bands with npw=     285 for ikpt=  37 by node    1
P newkpt: treating     12 bands with npw=     283 for ikpt=  38 by node    1
P newkpt: treating     12 bands with npw=     287 for ikpt=  39 by node    1
P newkpt: treating     12 bands with npw=     281 for ikpt=  40 by node    1
P newkpt: treating     12 bands with npw=     294 for ikpt=  41 by node    1
P newkpt: treating     12 bands with npw=     286 for ikpt=  42 by node    1
P newkpt: treating     12 bands with npw=     283 for ikpt=  43 by node    1
P newkpt: treating     12 bands with npw=     286 for ikpt=  44 by node    1
P newkpt: treating     12 bands with npw=     285 for ikpt=  45 by node    1
P newkpt: treating     12 bands with npw=     281 for ikpt=  46 by node    1
P newkpt: treating     12 bands with npw=     288 for ikpt=  47 by node    1
P newkpt: treating     12 bands with npw=     295 for ikpt=  48 by node    1
P newkpt: treating     12 bands with npw=     293 for ikpt=  49 by node    1
P newkpt: treating     12 bands with npw=     288 for ikpt=  50 by node    1
 newkpt: prtvol=0 or 1, do not print more k-points.


================================================================================
 prteigrs : about to open file t76_MPI2o_DS2_EIG
 Non-SCF case, kpt    1 (  0.02750  0.05250  0.07750), residuals and eigenvalues=
  7.92E-11  4.52E-12  7.08E-11  8.65E-12  1.32E-11  5.86E-11  2.90E-11  5.03E-11
  1.15E-10  6.01E-10  3.27E-11  8.96E-05
 -2.2462E-01  1.9904E-01  2.0837E-01  2.1447E-01  3.0850E-01  3.1831E-01
  3.1875E-01  3.5182E-01  4.9337E-01  5.0698E-01  5.0899E-01  6.2704E-01
  prteigrs : nnsclo,ikpt=   50    1 max resid (incl. the buffer)=  8.95777E-05
 Non-SCF case, kpt    2 (  0.27750  0.05250  0.07750), residuals and eigenvalues=
  1.39E-11  2.47E-11  4.87E-11  8.19E-11  1.04E-11  2.73E-11  2.03E-11  4.99E-11
  2.13E-11  4.70E-11  3.09E-11  3.33E-10
 -1.9846E-01  8.1691E-02  1.6779E-01  1.9591E-01  3.0492E-01  3.3620E-01
  3.5498E-01  4.3660E-01  4.6818E-01  5.1676E-01  5.5625E-01  6.3832E-01
  prteigrs : nnsclo,ikpt=   50    2 max resid (incl. the buffer)=  3.33252E-10
 Non-SCF case, kpt    3 ( -0.47250  0.05250  0.07750), residuals and eigenvalues=
  1.10E-11  6.73E-11  3.80E-11  3.10E-11  1.08E-11  1.37E-11  3.23E-11  3.35E-11
  8.20E-10  7.95E-10  6.50E-07  5.83E-05
 -1.3780E-01 -4.0765E-02  1.5514E-01  1.6917E-01  2.8605E-01  3.3637E-01
  3.4737E-01  5.0333E-01  5.7150E-01  5.9044E-01  6.2614E-01  6.5671E-01
  prteigrs : nnsclo,ikpt=   50    3 max resid (incl. the buffer)=  5.82787E-05
 Non-SCF case, kpt    4 ( -0.22250  0.05250  0.07750), residuals and eigenvalues=
  5.82E-12  8.14E-12  1.17E-11  1.76E-11  9.56E-11  3.01E-11  7.20E-11  2.53E-11
  3.15E-11  1.98E-11  6.87E-11  3.86E-08
 -1.9114E-01  6.0884E-02  1.6974E-01  1.8470E-01  3.0051E-01  3.3605E-01
  3.6186E-01  4.3615E-01  4.9564E-01  5.2243E-01  5.5072E-01  6.6093E-01
  prteigrs : nnsclo,ikpt=   50    4 max resid (incl. the buffer)=  3.85687E-08
 Non-SCF case, kpt    5 (  0.02750  0.30250  0.07750), residuals and eigenvalues=
  9.69E-12  4.49E-11  5.86E-11  4.28E-11  1.37E-11  1.28E-11  2.94E-11  1.96E-11
  2.82E-11  3.62E-11  9.98E-12  2.16E-08
 -1.9076E-01  5.9805E-02  1.6910E-01  1.8521E-01  3.0027E-01  3.3633E-01
  3.6139E-01  4.3755E-01  4.9456E-01  5.2397E-01  5.5040E-01  6.6206E-01
  prteigrs : nnsclo,ikpt=   50    5 max resid (incl. the buffer)=  2.15905E-08
 Non-SCF case, kpt    6 (  0.27750  0.30250  0.07750), residuals and eigenvalues=
  1.34E-11  5.69E-11  8.44E-11  2.22E-11  6.15E-11  5.77E-11  1.75E-11  3.32E-11
  3.44E-11  2.07E-11  1.73E-09  1.13E-06
 -1.8405E-01  7.8019E-02  1.4010E-01  1.4920E-01  2.6716E-01  3.3649E-01
  4.1215E-01  4.2500E-01  5.2332E-01  5.5417E-01  6.2504E-01  6.7713E-01
  prteigrs : nnsclo,ikpt=   50    6 max resid (incl. the buffer)=  1.13026E-06
 Non-SCF case, kpt    7 ( -0.47250  0.30250  0.07750), residuals and eigenvalues=
  1.04E-11  4.15E-11  3.33E-11  9.34E-11  4.44E-11  8.18E-12  5.03E-11  1.28E-11
  5.06E-11  1.51E-10  4.70E-08  1.72E-05
 -1.2481E-01 -1.5096E-02  8.2046E-02  1.2417E-01  2.8308E-01  3.6265E-01
  4.0735E-01  4.7412E-01  5.6918E-01  6.2298E-01  6.5558E-01  7.0580E-01
  prteigrs : nnsclo,ikpt=   50    7 max resid (incl. the buffer)=  1.72317E-05
 Non-SCF case, kpt    8 ( -0.22250  0.30250  0.07750), residuals and eigenvalues=
  8.57E-12  6.58E-11  1.44E-11  2.68E-11  2.86E-11  2.35E-11  1.41E-11  1.21E-11
  8.80E-11  1.79E-09  1.12E-05  1.84E-05
 -1.4143E-01  5.0049E-03  7.1740E-02  1.5144E-01  3.1716E-01  3.6915E-01
  4.0689E-01  4.4568E-01  5.0227E-01  5.5431E-01  6.9235E-01  7.1711E-01
  prteigrs : nnsclo,ikpt=   50    8 max resid (incl. the buffer)=  1.84316E-05
 Non-SCF case, kpt    9 (  0.02750 -0.44750  0.07750), residuals and eigenvalues=
  1.05E-11  8.05E-12  1.97E-11  1.17E-11  1.25E-11  1.17E-11  7.64E-11  1.33E-11
  6.95E-10  8.42E-09  8.99E-07  5.66E-05
 -1.3795E-01 -4.0602E-02  1.5540E-01  1.6920E-01  2.8595E-01  3.3629E-01
  3.4740E-01  5.0320E-01  5.7053E-01  5.9163E-01  6.2666E-01  6.5595E-01
  prteigrs : nnsclo,ikpt=   50    9 max resid (incl. the buffer)=  5.65948E-05
 Non-SCF case, kpt   10 (  0.27750 -0.44750  0.07750), residuals and eigenvalues=
  8.23E-11  7.54E-11  1.59E-11  8.24E-12  2.74E-11  2.41E-11  2.21E-11  6.53E-11
  3.11E-11  1.01E-09  3.36E-09  5.99E-08
 -1.2153E-01 -2.4376E-02  8.1936E-02  1.2979E-01  2.9025E-01  3.8319E-01
  4.0331E-01  4.5476E-01  5.4728E-01  6.2258E-01  6.4801E-01  6.8910E-01
  prteigrs : nnsclo,ikpt=   50   10 max resid (incl. the buffer)=  5.99070E-08
 Non-SCF case, kpt   11 ( -0.47250 -0.44750  0.07750), residuals and eigenvalues=
  1.77E-11  4.07E-11  2.83E-11  2.40E-11  7.94E-12  2.00E-11  2.45E-11  8.84E-11
  2.22E-10  1.50E-09  3.16E-06  3.53E-05
 -7.3007E-02 -7.0021E-02  9.8504E-02  1.1054E-01  2.4314E-01  2.5795E-01
  5.6635E-01  5.7149E-01  6.0319E-01  6.1018E-01  6.9223E-01  7.0018E-01
  prteigrs : nnsclo,ikpt=   50   11 max resid (incl. the buffer)=  3.52911E-05
 Non-SCF case, kpt   12 ( -0.22250 -0.44750  0.07750), residuals and eigenvalues=
  1.30E-11  7.72E-11  1.32E-11  1.53E-11  5.24E-11  9.23E-11  2.82E-11  8.82E-11
  3.17E-11  1.29E-09  4.09E-07  1.24E-04
 -1.2582E-01 -1.4180E-02  8.2834E-02  1.2470E-01  2.8350E-01  3.6315E-01
  4.0599E-01  4.7244E-01  5.7075E-01  6.2113E-01  6.5621E-01  7.0576E-01
  prteigrs : nnsclo,ikpt=   50   12 max resid (incl. the buffer)=  1.23989E-04
 Non-SCF case, kpt   13 (  0.02750 -0.19750  0.07750), residuals and eigenvalues=
  9.05E-11  2.61E-11  1.84E-11  4.70E-11  1.78E-11  6.51E-11  3.18E-11  9.26E-12
  3.33E-11  6.68E-11  3.94E-10  4.15E-08
 -1.9885E-01  8.2805E-02  1.6857E-01  1.9572E-01  3.0494E-01  3.3565E-01
  3.5533E-01  4.3541E-01  4.6916E-01  5.1548E-01  5.5619E-01  6.3729E-01
  prteigrs : nnsclo,ikpt=   50   13 max resid (incl. the buffer)=  4.15220E-08
 Non-SCF case, kpt   14 (  0.27750 -0.19750  0.07750), residuals and eigenvalues=
  1.42E-11  5.03E-11  1.77E-11  4.66E-11  7.14E-11  1.16E-11  5.38E-11  7.47E-11
  5.38E-11  7.88E-09  2.92E-05  1.08E-04
 -1.5524E-01  2.1987E-02  8.3817E-02  1.6071E-01  3.2702E-01  3.5304E-01
  3.9723E-01  4.2869E-01  4.9176E-01  5.8869E-01  6.6992E-01  6.8743E-01
  prteigrs : nnsclo,ikpt=   50   14 max resid (incl. the buffer)=  1.08476E-04
 Non-SCF case, kpt   15 ( -0.47250 -0.19750  0.07750), residuals and eigenvalues=
  1.24E-11  1.27E-11  2.33E-11  3.96E-11  1.38E-11  6.32E-11  1.18E-11  2.14E-11
  4.65E-11  1.79E-09  4.43E-08  2.08E-07
 -1.2242E-01 -2.3755E-02  8.2901E-02  1.3030E-01  2.9072E-01  3.8223E-01
  4.0347E-01  4.5317E-01  5.4888E-01  6.2213E-01  6.4716E-01  6.8861E-01
  prteigrs : nnsclo,ikpt=   50   15 max resid (incl. the buffer)=  2.08259E-07
 Non-SCF case, kpt   16 ( -0.22250 -0.19750  0.07750), residuals and eigenvalues=
  1.49E-11  9.15E-12  2.53E-11  3.77E-11  5.16E-11  7.26E-11  1.20E-11  7.96E-11
  4.59E-11  2.70E-11  9.52E-10  2.11E-06
 -1.8484E-01  7.9475E-02  1.4089E-01  1.5001E-01  2.6773E-01  3.3782E-01
  4.1065E-01  4.2343E-01  5.2148E-01  5.5299E-01  6.2342E-01  6.7570E-01
  prteigrs : nnsclo,ikpt=   50   16 max resid (incl. the buffer)=  2.10793E-06
 Non-SCF case, kpt   17 (  0.02750  0.05250  0.32750), residuals and eigenvalues=
  1.27E-11  7.95E-11  5.13E-12  3.55E-11  9.36E-12  9.54E-11  3.30E-11  4.13E-11
  8.40E-10  2.06E-10  6.49E-11  6.34E-07
 -1.8334E-01  3.8448E-02  1.7164E-01  1.8506E-01  2.8996E-01  3.4090E-01
  3.5373E-01  4.6745E-01  4.9753E-01  5.2870E-01  5.4286E-01  6.8642E-01
  prteigrs : nnsclo,ikpt=   50   17 max resid (incl. the buffer)=  6.34381E-07
 Non-SCF case, kpt   18 (  0.27750  0.05250  0.32750), residuals and eigenvalues=
  4.98E-11  2.31E-11  6.88E-11  3.97E-11  1.65E-11  6.16E-12  4.40E-11  4.55E-11
  7.49E-11  5.18E-11  1.93E-08  1.56E-06
 -1.7610E-01  6.4967E-02  1.3217E-01  1.4213E-01  2.6007E-01  3.2142E-01
  4.2856E-01  4.4490E-01  5.3720E-01  5.6754E-01  6.4428E-01  6.9056E-01
  prteigrs : nnsclo,ikpt=   50   18 max resid (incl. the buffer)=  1.55561E-06
 Non-SCF case, kpt   19 ( -0.47250  0.05250  0.32750), residuals and eigenvalues=
  4.72E-11  2.67E-11  4.76E-11  7.28E-11  7.83E-11  1.36E-11  6.57E-11  1.12E-11
  3.63E-11  2.68E-10  8.00E-09  5.85E-07
 -1.1673E-01 -2.1338E-02  7.8017E-02  1.2144E-01  2.6699E-01  3.4000E-01
  4.4346E-01  4.9064E-01  5.7743E-01  6.3275E-01  6.5619E-01  7.0850E-01
  prteigrs : nnsclo,ikpt=   50   19 max resid (incl. the buffer)=  5.85325E-07
 Non-SCF case, kpt   20 ( -0.22250  0.05250  0.32750), residuals and eigenvalues=
  2.21E-11  1.91E-11  3.84E-11  5.57E-11  9.34E-12  2.89E-11  4.92E-11  2.89E-11
  1.16E-10  2.74E-10  1.34E-06  3.53E-04
 -1.3535E-01 -4.6865E-03  6.8736E-02  1.5284E-01  3.0329E-01  3.8407E-01
  4.3058E-01  4.4020E-01  4.9919E-01  5.3381E-01  6.8376E-01  7.4395E-01
  prteigrs : nnsclo,ikpt=   50   20 max resid (incl. the buffer)=  3.53154E-04
 Non-SCF case, kpt   21 (  0.02750  0.30250  0.32750), residuals and eigenvalues=
  7.33E-11  2.79E-11  9.90E-12  8.46E-11  1.74E-11  6.20E-11  2.39E-11  6.52E-11
  7.60E-11  7.26E-11  3.51E-07  2.25E-04
 -1.6812E-01  5.2284E-02  1.3132E-01  1.3371E-01  2.4788E-01  3.0393E-01
  4.5728E-01  4.6264E-01  5.5197E-01  5.7338E-01  6.6557E-01  7.1584E-01
  prteigrs : nnsclo,ikpt=   50   21 max resid (incl. the buffer)=  2.24727E-04
 Non-SCF case, kpt   22 (  0.27750  0.30250  0.32750), residuals and eigenvalues=
  1.93E-11  2.44E-11  1.11E-11  6.89E-11  5.23E-11  6.47E-11  1.91E-11  3.95E-11
  2.05E-11  4.00E-11  6.26E-11  3.98E-08
 -1.8298E-01  3.7392E-02  1.7245E-01  1.8468E-01  2.8923E-01  3.4099E-01
  3.5343E-01  4.6900E-01  4.9911E-01  5.2737E-01  5.4258E-01  6.8777E-01
  prteigrs : nnsclo,ikpt=   50   22 max resid (incl. the buffer)=  3.97656E-08
 Non-SCF case, kpt   23 ( -0.47250  0.30250  0.32750), residuals and eigenvalues=
  4.17E-11  7.33E-12  2.86E-11  1.11E-11  2.94E-11  1.07E-11  2.47E-11  4.26E-11
  1.05E-11  2.49E-10  1.90E-08  3.32E-05
 -1.4185E-01 -3.6368E-03  8.1190E-02  1.6173E-01  3.0204E-01  3.7975E-01
  4.0365E-01  4.5829E-01  4.8941E-01  5.4947E-01  6.5642E-01  7.2066E-01
  prteigrs : nnsclo,ikpt=   50   23 max resid (incl. the buffer)=  3.32473E-05
 Non-SCF case, kpt   24 ( -0.22250  0.30250  0.32750), residuals and eigenvalues=
  2.00E-11  3.05E-11  1.22E-11  4.44E-11  4.03E-11  6.71E-12  6.01E-11  4.42E-11
  1.11E-09  2.63E-09  1.03E-05  5.92E-05
 -1.0557E-01 -3.3526E-02  6.8693E-02  1.2484E-01  2.6028E-01  3.5157E-01
  4.6206E-01  4.8548E-01  5.6547E-01  5.9391E-01  6.9567E-01  7.2263E-01
  prteigrs : nnsclo,ikpt=   50   24 max resid (incl. the buffer)=  5.91873E-05
 Non-SCF case, kpt   25 (  0.02750 -0.44750  0.32750), residuals and eigenvalues=
  1.27E-11  9.65E-11  6.99E-11  5.86E-11  5.51E-11  1.95E-11  8.27E-11  1.30E-11
  3.03E-11  3.51E-11  1.22E-06  1.14E-04
 -1.0549E-01 -3.3673E-02  6.8391E-02  1.2486E-01  2.6103E-01  3.5340E-01
  4.5979E-01  4.8557E-01  5.6302E-01  5.9419E-01  6.9527E-01  7.2496E-01
  prteigrs : nnsclo,ikpt=   50   25 max resid (incl. the buffer)=  1.14030E-04
 Non-SCF case, kpt   26 (  0.27750 -0.44750  0.32750), residuals and eigenvalues=
  4.82E-11  1.17E-11  6.92E-12  5.82E-11  2.37E-11  8.11E-12  2.42E-11  5.97E-11
  4.31E-11  1.00E-10  5.33E-07  3.18E-05
 -1.3474E-01 -5.3986E-03  6.8180E-02  1.5287E-01  3.0204E-01  3.8611E-01
  4.3160E-01  4.4094E-01  4.9834E-01  5.3178E-01  6.8436E-01  7.3735E-01
  prteigrs : nnsclo,ikpt=   50   26 max resid (incl. the buffer)=  3.17653E-05
 Non-SCF case, kpt   27 ( -0.47250 -0.44750  0.32750), residuals and eigenvalues=
  7.98E-11  2.21E-11  8.47E-11  2.89E-11  6.64E-11  3.21E-11  8.04E-11  1.33E-11
  1.69E-09  4.21E-09  1.93E-07  5.29E-06
 -1.2169E-01 -3.2870E-02  8.8920E-02  1.4339E-01  2.8323E-01  3.8842E-01
  4.1375E-01  4.4091E-01  5.5189E-01  5.8308E-01  6.5513E-01  6.8707E-01
  prteigrs : nnsclo,ikpt=   50   27 max resid (incl. the buffer)=  5.29151E-06
 Non-SCF case, kpt   28 ( -0.22250 -0.44750  0.32750), residuals and eigenvalues=
  2.14E-11  2.98E-11  9.09E-12  1.55E-11  2.25E-11  6.88E-11  5.82E-11  1.80E-11
  1.35E-09  4.28E-09  6.42E-07  2.58E-04
 -8.6163E-02 -4.6659E-02  6.4697E-02  8.7247E-02  3.5829E-01  3.6098E-01
  3.8752E-01  4.4672E-01  5.6885E-01  6.2057E-01  6.8375E-01  7.3223E-01
  prteigrs : nnsclo,ikpt=   50   28 max resid (incl. the buffer)=  2.58151E-04
 Non-SCF case, kpt   29 (  0.02750 -0.19750  0.32750), residuals and eigenvalues=
  1.25E-11  2.60E-11  1.23E-11  5.09E-11  1.30E-11  4.38E-11  3.50E-11  4.76E-11
  7.95E-11  1.36E-10  1.83E-08  1.05E-05
 -1.4248E-01 -2.9137E-03  8.1791E-02  1.6191E-01  3.0291E-01  3.7782E-01
  4.0405E-01  4.5616E-01  4.9019E-01  5.5126E-01  6.5605E-01  7.1840E-01
  prteigrs : nnsclo,ikpt=   50   29 max resid (incl. the buffer)=  1.05146E-05
 Non-SCF case, kpt   30 (  0.27750 -0.19750  0.32750), residuals and eigenvalues=
  2.56E-11  3.83E-11  7.25E-11  4.75E-11  9.60E-11  7.10E-12  1.32E-11  7.22E-11
  1.04E-10  2.94E-09  2.09E-08  1.28E-06
 -1.1694E-01 -2.1050E-02  7.8388E-02  1.2159E-01  2.6592E-01  3.3817E-01
  4.4568E-01  4.9061E-01  5.7988E-01  6.3266E-01  6.5642E-01  7.0645E-01
  prteigrs : nnsclo,ikpt=   50   30 max resid (incl. the buffer)=  1.27831E-06
 Non-SCF case, kpt   31 ( -0.47250 -0.19750  0.32750), residuals and eigenvalues=
  3.12E-11  6.60E-11  6.50E-11  1.07E-11  9.27E-12  5.42E-11  7.75E-12  1.10E-11
  3.25E-11  2.52E-11  3.20E-11  9.46E-09
 -7.7817E-02 -5.5358E-02  7.1175E-02  8.0773E-02  3.3878E-01  3.4292E-01
  4.1906E-01  4.5260E-01  5.8868E-01  6.2298E-01  6.8180E-01  7.1370E-01
  prteigrs : nnsclo,ikpt=   50   31 max resid (incl. the buffer)=  9.46044E-09
 Non-SCF case, kpt   32 ( -0.22250 -0.19750  0.32750), residuals and eigenvalues=
  5.30E-11  6.68E-11  1.86E-11  2.68E-11  4.94E-12  3.02E-11  8.56E-11  4.26E-11
  4.63E-10  1.58E-08  2.16E-07  1.46E-05
 -1.2236E-01 -3.2627E-02  9.0182E-02  1.4370E-01  2.8363E-01  3.8705E-01
  4.1245E-01  4.4123E-01  5.5308E-01  5.8458E-01  6.5421E-01  6.8487E-01
  prteigrs : nnsclo,ikpt=   50   32 max resid (incl. the buffer)=  1.45672E-05
 Non-SCF case, kpt   33 (  0.02750  0.05250 -0.42250), residuals and eigenvalues=
  4.94E-11  1.68E-11  2.65E-11  3.17E-11  7.21E-11  9.47E-11  7.18E-12  3.10E-11
  9.44E-11  2.55E-09  1.37E-07  2.46E-06
 -1.4366E-01 -3.4522E-02  1.6475E-01  1.7169E-01  2.7942E-01  3.3778E-01
  3.4423E-01  4.9898E-01  5.6094E-01  5.9235E-01  6.2790E-01  6.4660E-01
  prteigrs : nnsclo,ikpt=   50   33 max resid (incl. the buffer)=  2.46470E-06
 Non-SCF case, kpt   34 (  0.27750  0.05250 -0.42250), residuals and eigenvalues=
  6.20E-11  4.09E-11  6.34E-11  5.27E-11  8.44E-11  3.14E-11  9.56E-12  9.91E-11
  1.72E-09  6.52E-09  3.03E-06  1.77E-06
 -1.1366E-01 -3.2946E-02  7.4325E-02  1.3322E-01  2.8131E-01  3.9786E-01
  4.1811E-01  4.5079E-01  5.3381E-01  5.9345E-01  6.7699E-01  6.9201E-01
  prteigrs : nnsclo,ikpt=   50   34 max resid (incl. the buffer)=  3.02700E-06
 Non-SCF case, kpt   35 ( -0.47250  0.05250 -0.42250), residuals and eigenvalues=
  3.54E-11  3.56E-11  6.01E-11  9.77E-11  4.51E-11  1.52E-11  8.25E-11  2.54E-11
  4.53E-09  9.36E-08  6.35E-06  1.18E-05
 -8.6304E-02 -5.6511E-02  1.0524E-01  1.0636E-01  2.4595E-01  2.5239E-01
  5.5537E-01  5.7425E-01  6.0924E-01  6.2979E-01  6.7076E-01  7.0108E-01
  prteigrs : nnsclo,ikpt=   50   35 max resid (incl. the buffer)=  1.18182E-05
 Non-SCF case, kpt   36 ( -0.22250  0.05250 -0.42250), residuals and eigenvalues=
  9.54E-12  3.49E-11  2.63E-11  7.67E-11  5.78E-11  1.96E-11  4.22E-11  2.01E-11
  6.01E-10  7.58E-10  2.05E-07  1.20E-06
 -1.3885E-01  7.8949E-04  9.4520E-02  1.3063E-01  2.7601E-01  3.5147E-01
  4.1298E-01  4.5663E-01  6.0443E-01  6.1023E-01  6.6236E-01  6.6673E-01
  prteigrs : nnsclo,ikpt=   50   36 max resid (incl. the buffer)=  1.19574E-06
 Non-SCF case, kpt   37 (  0.02750  0.30250 -0.42250), residuals and eigenvalues=
  2.70E-11  7.82E-11  1.01E-11  8.31E-11  1.39E-11  7.56E-11  1.87E-11  4.13E-11
  1.89E-09  1.75E-09  2.93E-06  3.83E-06
 -1.0581E-01 -3.5999E-02  6.4847E-02  1.3092E-01  2.6822E-01  3.9014E-01
  4.3914E-01  4.6486E-01  5.4143E-01  5.7330E-01  7.0856E-01  7.1430E-01
  prteigrs : nnsclo,ikpt=   50   37 max resid (incl. the buffer)=  3.83467E-06
 Non-SCF case, kpt   38 (  0.27750  0.30250 -0.42250), residuals and eigenvalues=
  1.23E-11  2.65E-11  1.29E-11  2.09E-11  6.14E-11  6.35E-11  7.60E-11  8.86E-12
  6.40E-11  9.53E-11  1.62E-06  2.33E-06
 -1.2839E-01 -1.0333E-02  6.0193E-02  1.5186E-01  2.9088E-01  4.1231E-01
  4.3969E-01  4.4994E-01  4.8460E-01  5.1148E-01  7.0862E-01  7.2837E-01
  prteigrs : nnsclo,ikpt=   50   38 max resid (incl. the buffer)=  2.32748E-06
 Non-SCF case, kpt   39 ( -0.47250  0.30250 -0.42250), residuals and eigenvalues=
  1.06E-11  3.88E-11  2.27E-11  2.11E-11  3.19E-11  6.68E-12  1.46E-11  2.81E-11
  6.42E-10  5.24E-09  2.34E-07  3.17E-07
 -1.1379E-01 -3.3157E-02  7.4520E-02  1.3397E-01  2.8097E-01  3.9835E-01
  4.1965E-01  4.4877E-01  5.3414E-01  5.9108E-01  6.7699E-01  6.9270E-01
  prteigrs : nnsclo,ikpt=   50   39 max resid (incl. the buffer)=  3.16990E-07
 Non-SCF case, kpt   40 ( -0.22250  0.30250 -0.42250), residuals and eigenvalues=
  3.57E-11  2.10E-11  6.49E-11  5.34E-11  2.10E-11  4.52E-11  5.91E-11  2.79E-11
  6.90E-11  9.31E-11  1.54E-09  6.47E-07
 -8.5730E-02 -4.7383E-02  6.1753E-02  9.0399E-02  3.5271E-01  3.7026E-01
  4.0396E-01  4.2699E-01  5.6062E-01  6.2338E-01  6.7838E-01  7.4120E-01
  prteigrs : nnsclo,ikpt=   50   40 max resid (incl. the buffer)=  6.46633E-07
 Non-SCF case, kpt   41 (  0.02750 -0.44750 -0.42250), residuals and eigenvalues=
  2.58E-11  7.00E-11  6.35E-11  9.71E-12  1.35E-11  2.37E-11  7.13E-11  9.50E-11
  4.16E-08  1.29E-07  1.40E-07  1.57E-06
 -1.0046E-01 -4.1733E-02  1.1027E-01  1.1089E-01  2.3741E-01  2.5072E-01
  5.5619E-01  5.6350E-01  6.4066E-01  6.4744E-01  6.5290E-01  6.6673E-01
  prteigrs : nnsclo,ikpt=   50   41 max resid (incl. the buffer)=  1.57030E-06
 Non-SCF case, kpt   42 (  0.27750 -0.44750 -0.42250), residuals and eigenvalues=
  3.21E-11  4.86E-11  1.46E-11  1.92E-11  4.39E-11  6.80E-11  5.57E-11  6.02E-11
  1.85E-10  4.69E-10  1.33E-06  8.95E-06
 -1.0595E-01 -3.6061E-02  6.4784E-02  1.3150E-01  2.6819E-01  3.9197E-01
  4.3934E-01  4.6269E-01  5.4175E-01  5.7085E-01  7.0812E-01  7.1563E-01
  prteigrs : nnsclo,ikpt=   50   42 max resid (incl. the buffer)=  8.95340E-06
 Non-SCF case, kpt   43 ( -0.47250 -0.44750 -0.42250), residuals and eigenvalues=
  1.09E-11  8.46E-12  3.63E-11  3.48E-11  8.86E-11  4.58E-11  7.54E-11  3.70E-11
  5.07E-11  1.87E-09  9.86E-08  1.05E-06
 -1.4407E-01 -3.4086E-02  1.6536E-01  1.7205E-01  2.7885E-01  3.3805E-01
  3.4385E-01  4.9877E-01  5.6137E-01  5.9056E-01  6.2605E-01  6.4849E-01
  prteigrs : nnsclo,ikpt=   50   43 max resid (incl. the buffer)=  1.05038E-06
 Non-SCF case, kpt   44 ( -0.22250 -0.44750 -0.42250), residuals and eigenvalues=
  4.23E-11  2.75E-11  9.23E-11  1.41E-11  2.63E-11  1.16E-11  3.03E-11  3.09E-11
  1.70E-08  1.10E-07  6.24E-07  5.70E-06
 -1.4702E-01  4.4949E-03  1.0682E-01  1.3944E-01  2.7871E-01  3.7286E-01
  3.9948E-01  4.2486E-01  5.9986E-01  6.1002E-01  6.3931E-01  6.6349E-01
  prteigrs : nnsclo,ikpt=   50   44 max resid (incl. the buffer)=  5.70065E-06
 Non-SCF case, kpt   45 (  0.02750 -0.19750 -0.42250), residuals and eigenvalues=
  4.84E-11  3.02E-11  4.41E-11  7.85E-11  4.60E-11  7.61E-11  9.56E-11  1.22E-11
  3.52E-10  1.05E-09  4.88E-07  9.04E-07
 -1.4673E-01  3.7688E-03  1.0673E-01  1.3962E-01  2.7943E-01  3.7455E-01
  3.9776E-01  4.2461E-01  5.9864E-01  6.0944E-01  6.4138E-01  6.6227E-01
  prteigrs : nnsclo,ikpt=   50   45 max resid (incl. the buffer)=  9.03751E-07
 Non-SCF case, kpt   46 (  0.27750 -0.19750 -0.42250), residuals and eigenvalues=
  5.94E-11  1.17E-11  2.56E-11  1.16E-11  5.56E-11  5.23E-11  2.59E-11  4.04E-11
  2.96E-11  6.75E-11  4.77E-09  4.85E-06
 -8.5583E-02 -4.7537E-02  6.1624E-02  9.0519E-02  3.5121E-01  3.7179E-01
  4.0545E-01  4.2549E-01  5.6062E-01  6.2303E-01  6.7867E-01  7.4132E-01
  prteigrs : nnsclo,ikpt=   50   46 max resid (incl. the buffer)=  4.85121E-06
 Non-SCF case, kpt   47 ( -0.47250 -0.19750 -0.42250), residuals and eigenvalues=
  5.57E-11  9.24E-11  8.17E-12  1.27E-11  2.90E-11  9.49E-12  5.24E-11  3.69E-11
  1.62E-10  1.16E-10  3.79E-08  1.06E-07
 -1.3913E-01  1.3612E-03  9.4852E-02  1.3061E-01  2.7495E-01  3.4977E-01
  4.1504E-01  4.5671E-01  6.0606E-01  6.1131E-01  6.6273E-01  6.6457E-01
  prteigrs : nnsclo,ikpt=   50   47 max resid (incl. the buffer)=  1.06185E-07
 Non-SCF case, kpt   48 ( -0.22250 -0.19750 -0.42250), residuals and eigenvalues=
  9.38E-12  4.60E-11  2.06E-11  2.05E-11  2.82E-11  8.40E-11  3.70E-11  3.16E-11
  1.76E-11  1.25E-08  2.53E-07  6.16E-07
 -1.7069E-01  4.2360E-02  9.7331E-02  1.8031E-01  3.2051E-01  3.6189E-01
  3.8832E-01  4.1915E-01  4.5403E-01  6.0506E-01  6.3095E-01  6.6214E-01
  prteigrs : nnsclo,ikpt=   50   48 max resid (incl. the buffer)=  6.16287E-07
 Non-SCF case, kpt   49 (  0.02750  0.05250 -0.17250), residuals and eigenvalues=
  7.93E-12  6.36E-11  1.66E-11  9.44E-12  4.09E-11  2.09E-11  3.31E-11  2.75E-11
  1.99E-11  9.61E-11  2.22E-10  9.89E-09
 -2.0672E-01  1.0557E-01  1.8394E-01  1.9872E-01  3.0291E-01  3.3194E-01
  3.4919E-01  4.2919E-01  4.6929E-01  4.9580E-01  5.5118E-01  6.1694E-01
  prteigrs : nnsclo,ikpt=   50   49 max resid (incl. the buffer)=  9.89163E-09
 Non-SCF case, kpt   50 (  0.27750  0.05250 -0.17250), residuals and eigenvalues=
  3.10E-11  3.01E-11  1.79E-11  1.86E-11  5.38E-11  4.54E-11  4.13E-11  2.92E-11
  1.35E-11  2.67E-08  1.51E-06  3.77E-06
 -1.6262E-01  2.8526E-02  9.3409E-02  1.7109E-01  3.2219E-01  3.5402E-01
  4.0293E-01  4.1454E-01  4.7744E-01  5.9581E-01  6.5177E-01  6.6941E-01
  prteigrs : nnsclo,ikpt=   50   50 max resid (incl. the buffer)=  3.76888E-06
 prteigrs : prtvol=0 or 1, do not print more k-points.

  prteigrs : nnsclo,ikpt=   50   51 max resid (incl. the buffer)=  3.70881E-06
  prteigrs : nnsclo,ikpt=   50   52 max resid (incl. the buffer)=  3.48568E-06
  prteigrs : nnsclo,ikpt=   50   53 max resid (incl. the buffer)=  1.55095E-07
  prteigrs : nnsclo,ikpt=   50   54 max resid (incl. the buffer)=  2.10624E-07
  prteigrs : nnsclo,ikpt=   50   55 max resid (incl. the buffer)=  2.72348E-08
  prteigrs : nnsclo,ikpt=   50   56 max resid (incl. the buffer)=  7.96279E-04
  prteigrs : nnsclo,ikpt=   50   57 max resid (incl. the buffer)=  2.08130E-07
  prteigrs : nnsclo,ikpt=   50   58 max resid (incl. the buffer)=  7.13124E-07
  prteigrs : nnsclo,ikpt=   50   59 max resid (incl. the buffer)=  8.14654E-06
  prteigrs : nnsclo,ikpt=   50   60 max resid (incl. the buffer)=  3.03016E-06
  prteigrs : nnsclo,ikpt=   50   61 max resid (incl. the buffer)=  8.46844E-04
  prteigrs : nnsclo,ikpt=   50   62 max resid (incl. the buffer)=  2.75236E-06
  prteigrs : nnsclo,ikpt=   50   63 max resid (incl. the buffer)=  3.55847E-06
  prteigrs : nnsclo,ikpt=   50   64 max resid (incl. the buffer)=  1.24760E-08
================================================================================

 ----iterations are completed or convergence reached----

 Mean square residual over all n,k,spin=   4.4609E-06; max=  3.5315E-04
   0.0275  0.0525  0.0775    1  8.95777E-05 kpt; spin; max resid(k); each band:
  7.92E-11 4.52E-12 7.08E-11 8.65E-12 1.32E-11 5.86E-11 2.90E-11 5.03E-11
  1.15E-10 6.01E-10 3.27E-11 8.96E-05
   0.2775  0.0525  0.0775    1  3.33252E-10 kpt; spin; max resid(k); each band:
  1.39E-11 2.47E-11 4.87E-11 8.19E-11 1.04E-11 2.73E-11 2.03E-11 4.99E-11
  2.13E-11 4.70E-11 3.09E-11 3.33E-10
  -0.4725  0.0525  0.0775    1  5.82787E-05 kpt; spin; max resid(k); each band:
  1.10E-11 6.73E-11 3.80E-11 3.10E-11 1.08E-11 1.37E-11 3.23E-11 3.35E-11
  8.20E-10 7.95E-10 6.50E-07 5.83E-05
  -0.2225  0.0525  0.0775    1  3.85687E-08 kpt; spin; max resid(k); each band:
  5.82E-12 8.14E-12 1.17E-11 1.76E-11 9.56E-11 3.01E-11 7.20E-11 2.53E-11
  3.15E-11 1.98E-11 6.87E-11 3.86E-08
   0.0275  0.3025  0.0775    1  2.15905E-08 kpt; spin; max resid(k); each band:
  9.69E-12 4.49E-11 5.86E-11 4.28E-11 1.37E-11 1.28E-11 2.94E-11 1.96E-11
  2.82E-11 3.62E-11 9.98E-12 2.16E-08
   0.2775  0.3025  0.0775    1  1.13026E-06 kpt; spin; max resid(k); each band:
  1.34E-11 5.69E-11 8.44E-11 2.22E-11 6.15E-11 5.77E-11 1.75E-11 3.32E-11
  3.44E-11 2.07E-11 1.73E-09 1.13E-06
  -0.4725  0.3025  0.0775    1  1.72317E-05 kpt; spin; max resid(k); each band:
  1.04E-11 4.15E-11 3.33E-11 9.34E-11 4.44E-11 8.18E-12 5.03E-11 1.28E-11
  5.06E-11 1.51E-10 4.70E-08 1.72E-05
  -0.2225  0.3025  0.0775    1  1.84316E-05 kpt; spin; max resid(k); each band:
  8.57E-12 6.58E-11 1.44E-11 2.68E-11 2.86E-11 2.35E-11 1.41E-11 1.21E-11
  8.80E-11 1.79E-09 1.12E-05 1.84E-05
   0.0275 -0.4475  0.0775    1  5.65948E-05 kpt; spin; max resid(k); each band:
  1.05E-11 8.05E-12 1.97E-11 1.17E-11 1.25E-11 1.17E-11 7.64E-11 1.33E-11
  6.95E-10 8.42E-09 8.99E-07 5.66E-05
   0.2775 -0.4475  0.0775    1  5.99070E-08 kpt; spin; max resid(k); each band:
  8.23E-11 7.54E-11 1.59E-11 8.24E-12 2.74E-11 2.41E-11 2.21E-11 6.53E-11
  3.11E-11 1.01E-09 3.36E-09 5.99E-08
  -0.4725 -0.4475  0.0775    1  3.52911E-05 kpt; spin; max resid(k); each band:
  1.77E-11 4.07E-11 2.83E-11 2.40E-11 7.94E-12 2.00E-11 2.45E-11 8.84E-11
  2.22E-10 1.50E-09 3.16E-06 3.53E-05
  -0.2225 -0.4475  0.0775    1  1.23989E-04 kpt; spin; max resid(k); each band:
  1.30E-11 7.72E-11 1.32E-11 1.53E-11 5.24E-11 9.23E-11 2.82E-11 8.82E-11
  3.17E-11 1.29E-09 4.09E-07 1.24E-04
   0.0275 -0.1975  0.0775    1  4.15220E-08 kpt; spin; max resid(k); each band:
  9.05E-11 2.61E-11 1.84E-11 4.70E-11 1.78E-11 6.51E-11 3.18E-11 9.26E-12
  3.33E-11 6.68E-11 3.94E-10 4.15E-08
   0.2775 -0.1975  0.0775    1  1.08476E-04 kpt; spin; max resid(k); each band:
  1.42E-11 5.03E-11 1.77E-11 4.66E-11 7.14E-11 1.16E-11 5.38E-11 7.47E-11
  5.38E-11 7.88E-09 2.92E-05 1.08E-04
  -0.4725 -0.1975  0.0775    1  2.08259E-07 kpt; spin; max resid(k); each band:
  1.24E-11 1.27E-11 2.33E-11 3.96E-11 1.38E-11 6.32E-11 1.18E-11 2.14E-11
  4.65E-11 1.79E-09 4.43E-08 2.08E-07
  -0.2225 -0.1975  0.0775    1  2.10793E-06 kpt; spin; max resid(k); each band:
  1.49E-11 9.15E-12 2.53E-11 3.77E-11 5.16E-11 7.26E-11 1.20E-11 7.96E-11
  4.59E-11 2.70E-11 9.52E-10 2.11E-06
   0.0275  0.0525  0.3275    1  6.34381E-07 kpt; spin; max resid(k); each band:
  1.27E-11 7.95E-11 5.13E-12 3.55E-11 9.36E-12 9.54E-11 3.30E-11 4.13E-11
  8.40E-10 2.06E-10 6.49E-11 6.34E-07
   0.2775  0.0525  0.3275    1  1.55561E-06 kpt; spin; max resid(k); each band:
  4.98E-11 2.31E-11 6.88E-11 3.97E-11 1.65E-11 6.16E-12 4.40E-11 4.55E-11
  7.49E-11 5.18E-11 1.93E-08 1.56E-06
  -0.4725  0.0525  0.3275    1  5.85325E-07 kpt; spin; max resid(k); each band:
  4.72E-11 2.67E-11 4.76E-11 7.28E-11 7.83E-11 1.36E-11 6.57E-11 1.12E-11
  3.63E-11 2.68E-10 8.00E-09 5.85E-07
  -0.2225  0.0525  0.3275    1  3.53154E-04 kpt; spin; max resid(k); each band:
  2.21E-11 1.91E-11 3.84E-11 5.57E-11 9.34E-12 2.89E-11 4.92E-11 2.89E-11
  1.16E-10 2.74E-10 1.34E-06 3.53E-04
   0.0275  0.3025  0.3275    1  2.24727E-04 kpt; spin; max resid(k); each band:
  7.33E-11 2.79E-11 9.90E-12 8.46E-11 1.74E-11 6.20E-11 2.39E-11 6.52E-11
  7.60E-11 7.26E-11 3.51E-07 2.25E-04
   0.2775  0.3025  0.3275    1  3.97656E-08 kpt; spin; max resid(k); each band:
  1.93E-11 2.44E-11 1.11E-11 6.89E-11 5.23E-11 6.47E-11 1.91E-11 3.95E-11
  2.05E-11 4.00E-11 6.26E-11 3.98E-08
  -0.4725  0.3025  0.3275    1  3.32473E-05 kpt; spin; max resid(k); each band:
  4.17E-11 7.33E-12 2.86E-11 1.11E-11 2.94E-11 1.07E-11 2.47E-11 4.26E-11
  1.05E-11 2.49E-10 1.90E-08 3.32E-05
  -0.2225  0.3025  0.3275    1  5.91873E-05 kpt; spin; max resid(k); each band:
  2.00E-11 3.05E-11 1.22E-11 4.44E-11 4.03E-11 6.71E-12 6.01E-11 4.42E-11
  1.11E-09 2.63E-09 1.03E-05 5.92E-05
   0.0275 -0.4475  0.3275    1  1.14030E-04 kpt; spin; max resid(k); each band:
  1.27E-11 9.65E-11 6.99E-11 5.86E-11 5.51E-11 1.95E-11 8.27E-11 1.30E-11
  3.03E-11 3.51E-11 1.22E-06 1.14E-04
   0.2775 -0.4475  0.3275    1  3.17653E-05 kpt; spin; max resid(k); each band:
  4.82E-11 1.17E-11 6.92E-12 5.82E-11 2.37E-11 8.11E-12 2.42E-11 5.97E-11
  4.31E-11 1.00E-10 5.33E-07 3.18E-05
  -0.4725 -0.4475  0.3275    1  5.29151E-06 kpt; spin; max resid(k); each band:
  7.98E-11 2.21E-11 8.47E-11 2.89E-11 6.64E-11 3.21E-11 8.04E-11 1.33E-11
  1.69E-09 4.21E-09 1.93E-07 5.29E-06
  -0.2225 -0.4475  0.3275    1  2.58151E-04 kpt; spin; max resid(k); each band:
  2.14E-11 2.98E-11 9.09E-12 1.55E-11 2.25E-11 6.88E-11 5.82E-11 1.80E-11
  1.35E-09 4.28E-09 6.42E-07 2.58E-04
   0.0275 -0.1975  0.3275    1  1.05146E-05 kpt; spin; max resid(k); each band:
  1.25E-11 2.60E-11 1.23E-11 5.09E-11 1.30E-11 4.38E-11 3.50E-11 4.76E-11
  7.95E-11 1.36E-10 1.83E-08 1.05E-05
   0.2775 -0.1975  0.3275    1  1.27831E-06 kpt; spin; max resid(k); each band:
  2.56E-11 3.83E-11 7.25E-11 4.75E-11 9.60E-11 7.10E-12 1.32E-11 7.22E-11
  1.04E-10 2.94E-09 2.09E-08 1.28E-06
  -0.4725 -0.1975  0.3275    1  9.46044E-09 kpt; spin; max resid(k); each band:
  3.12E-11 6.60E-11 6.50E-11 1.07E-11 9.27E-12 5.42E-11 7.75E-12 1.10E-11
  3.25E-11 2.52E-11 3.20E-11 9.46E-09
  -0.2225 -0.1975  0.3275    1  1.45672E-05 kpt; spin; max resid(k); each band:
  5.30E-11 6.68E-11 1.86E-11 2.68E-11 4.94E-12 3.02E-11 8.56E-11 4.26E-11
  4.63E-10 1.58E-08 2.16E-07 1.46E-05
   0.0275  0.0525 -0.4225    1  2.46470E-06 kpt; spin; max resid(k); each band:
  4.94E-11 1.68E-11 2.65E-11 3.17E-11 7.21E-11 9.47E-11 7.18E-12 3.10E-11
  9.44E-11 2.55E-09 1.37E-07 2.46E-06
   0.2775  0.0525 -0.4225    1  3.02700E-06 kpt; spin; max resid(k); each band:
  6.20E-11 4.09E-11 6.34E-11 5.27E-11 8.44E-11 3.14E-11 9.56E-12 9.91E-11
  1.72E-09 6.52E-09 3.03E-06 1.77E-06
  -0.4725  0.0525 -0.4225    1  1.18182E-05 kpt; spin; max resid(k); each band:
  3.54E-11 3.56E-11 6.01E-11 9.77E-11 4.51E-11 1.52E-11 8.25E-11 2.54E-11
  4.53E-09 9.36E-08 6.35E-06 1.18E-05
  -0.2225  0.0525 -0.4225    1  1.19574E-06 kpt; spin; max resid(k); each band:
  9.54E-12 3.49E-11 2.63E-11 7.67E-11 5.78E-11 1.96E-11 4.22E-11 2.01E-11
  6.01E-10 7.58E-10 2.05E-07 1.20E-06
   0.0275  0.3025 -0.4225    1  3.83467E-06 kpt; spin; max resid(k); each band:
  2.70E-11 7.82E-11 1.01E-11 8.31E-11 1.39E-11 7.56E-11 1.87E-11 4.13E-11
  1.89E-09 1.75E-09 2.93E-06 3.83E-06
   0.2775  0.3025 -0.4225    1  2.32748E-06 kpt; spin; max resid(k); each band:
  1.23E-11 2.65E-11 1.29E-11 2.09E-11 6.14E-11 6.35E-11 7.60E-11 8.86E-12
  6.40E-11 9.53E-11 1.62E-06 2.33E-06
  -0.4725  0.3025 -0.4225    1  3.16990E-07 kpt; spin; max resid(k); each band:
  1.06E-11 3.88E-11 2.27E-11 2.11E-11 3.19E-11 6.68E-12 1.46E-11 2.81E-11
  6.42E-10 5.24E-09 2.34E-07 3.17E-07
  -0.2225  0.3025 -0.4225    1  6.46633E-07 kpt; spin; max resid(k); each band:
  3.57E-11 2.10E-11 6.49E-11 5.34E-11 2.10E-11 4.52E-11 5.91E-11 2.79E-11
  6.90E-11 9.31E-11 1.54E-09 6.47E-07
   0.0275 -0.4475 -0.4225    1  1.57030E-06 kpt; spin; max resid(k); each band:
  2.58E-11 7.00E-11 6.35E-11 9.71E-12 1.35E-11 2.37E-11 7.13E-11 9.50E-11
  4.16E-08 1.29E-07 1.40E-07 1.57E-06
   0.2775 -0.4475 -0.4225    1  8.95340E-06 kpt; spin; max resid(k); each band:
  3.21E-11 4.86E-11 1.46E-11 1.92E-11 4.39E-11 6.80E-11 5.57E-11 6.02E-11
  1.85E-10 4.69E-10 1.33E-06 8.95E-06
  -0.4725 -0.4475 -0.4225    1  1.05038E-06 kpt; spin; max resid(k); each band:
  1.09E-11 8.46E-12 3.63E-11 3.48E-11 8.86E-11 4.58E-11 7.54E-11 3.70E-11
  5.07E-11 1.87E-09 9.86E-08 1.05E-06
  -0.2225 -0.4475 -0.4225    1  5.70065E-06 kpt; spin; max resid(k); each band:
  4.23E-11 2.75E-11 9.23E-11 1.41E-11 2.63E-11 1.16E-11 3.03E-11 3.09E-11
  1.70E-08 1.10E-07 6.24E-07 5.70E-06
   0.0275 -0.1975 -0.4225    1  9.03751E-07 kpt; spin; max resid(k); each band:
  4.84E-11 3.02E-11 4.41E-11 7.85E-11 4.60E-11 7.61E-11 9.56E-11 1.22E-11
  3.52E-10 1.05E-09 4.88E-07 9.04E-07
   0.2775 -0.1975 -0.4225    1  4.85121E-06 kpt; spin; max resid(k); each band:
  5.94E-11 1.17E-11 2.56E-11 1.16E-11 5.56E-11 5.23E-11 2.59E-11 4.04E-11
  2.96E-11 6.75E-11 4.77E-09 4.85E-06
  -0.4725 -0.1975 -0.4225    1  1.06185E-07 kpt; spin; max resid(k); each band:
  5.57E-11 9.24E-11 8.17E-12 1.27E-11 2.90E-11 9.49E-12 5.24E-11 3.69E-11
  1.62E-10 1.16E-10 3.79E-08 1.06E-07
  -0.2225 -0.1975 -0.4225    1  6.16287E-07 kpt; spin; max resid(k); each band:
  9.38E-12 4.60E-11 2.06E-11 2.05E-11 2.82E-11 8.40E-11 3.70E-11 3.16E-11
  1.76E-11 1.25E-08 2.53E-07 6.16E-07
   0.0275  0.0525 -0.1725    1  9.89163E-09 kpt; spin; max resid(k); each band:
  7.93E-12 6.36E-11 1.66E-11 9.44E-12 4.09E-11 2.09E-11 3.31E-11 2.75E-11
  1.99E-11 9.61E-11 2.22E-10 9.89E-09
   0.2775  0.0525 -0.1725    1  3.76888E-06 kpt; spin; max resid(k); each band:
  3.10E-11 3.01E-11 1.79E-11 1.86E-11 5.38E-11 4.54E-11 4.13E-11 2.92E-11
  1.35E-11 2.67E-08 1.51E-06 3.77E-06
 outwf : prtvol=0 or 1, do not print more k-points.

 reduced coordinates (array xred) for    2 atoms
       0.000000000000      0.000000000000      0.000000000000
       0.250000000000      0.250000000000      0.250000000000

 cartesian coordinates (angstrom) at end:
    1      0.00000000000000     0.00000000000000     0.00000000000000
    2      1.35165088504101     1.35165088504101     1.35165088504101
 length scales= 10.217000000000 10.217000000000 10.217000000000 bohr
              =  5.406603540164  5.406603540164  5.406603540164 angstroms
 prteigrs : about to open file t76_MPI2o_DS2_EIG
 Eigenvalues (hartree) for nkpt=  64  k points:
 kpt#   1, nband= 12, wtk=  0.01563, kpt=  0.0275  0.0525  0.0775 (reduced coord)
  -0.22462   0.19904   0.20837   0.21447   0.30850   0.31831   0.31875   0.35182
   0.49337   0.50698   0.50899   0.62704
 kpt#   2, nband= 12, wtk=  0.01563, kpt=  0.2775  0.0525  0.0775 (reduced coord)
  -0.19846   0.08169   0.16779   0.19591   0.30492   0.33620   0.35498   0.43660
   0.46818   0.51676   0.55625   0.63832
 kpt#   3, nband= 12, wtk=  0.01563, kpt= -0.4725  0.0525  0.0775 (reduced coord)
  -0.13780  -0.04076   0.15514   0.16917   0.28605   0.33637   0.34737   0.50333
   0.57150   0.59044   0.62614   0.65671
 kpt#   4, nband= 12, wtk=  0.01563, kpt= -0.2225  0.0525  0.0775 (reduced coord)
  -0.19114   0.06088   0.16974   0.18470   0.30051   0.33605   0.36186   0.43615
   0.49564   0.52243   0.55072   0.66093
 kpt#   5, nband= 12, wtk=  0.01563, kpt=  0.0275  0.3025  0.0775 (reduced coord)
  -0.19076   0.05981   0.16910   0.18521   0.30027   0.33633   0.36139   0.43755
   0.49456   0.52397   0.55040   0.66206
 kpt#   6, nband= 12, wtk=  0.01563, kpt=  0.2775  0.3025  0.0775 (reduced coord)
  -0.18405   0.07802   0.14010   0.14920   0.26716   0.33649   0.41215   0.42500
   0.52332   0.55417   0.62504   0.67713
 kpt#   7, nband= 12, wtk=  0.01563, kpt= -0.4725  0.3025  0.0775 (reduced coord)
  -0.12481  -0.01510   0.08205   0.12417   0.28308   0.36265   0.40735   0.47412
   0.56918   0.62298   0.65558   0.70580
 kpt#   8, nband= 12, wtk=  0.01563, kpt= -0.2225  0.3025  0.0775 (reduced coord)
  -0.14143   0.00500   0.07174   0.15144   0.31716   0.36915   0.40689   0.44568
   0.50227   0.55431   0.69235   0.71711
 kpt#   9, nband= 12, wtk=  0.01563, kpt=  0.0275 -0.4475  0.0775 (reduced coord)
  -0.13795  -0.04060   0.15540   0.16920   0.28595   0.33629   0.34740   0.50320
   0.57053   0.59163   0.62666   0.65595
 kpt#  10, nband= 12, wtk=  0.01563, kpt=  0.2775 -0.4475  0.0775 (reduced coord)
  -0.12153  -0.02438   0.08194   0.12979   0.29025   0.38319   0.40331   0.45476
   0.54728   0.62258   0.64801   0.68910
 kpt#  11, nband= 12, wtk=  0.01563, kpt= -0.4725 -0.4475  0.0775 (reduced coord)
  -0.07301  -0.07002   0.09850   0.11054   0.24314   0.25795   0.56635   0.57149
   0.60319   0.61018   0.69223   0.70018
 kpt#  12, nband= 12, wtk=  0.01563, kpt= -0.2225 -0.4475  0.0775 (reduced coord)
  -0.12582  -0.01418   0.08283   0.12470   0.28350   0.36315   0.40599   0.47244
   0.57075   0.62113   0.65621   0.70576
 kpt#  13, nband= 12, wtk=  0.01563, kpt=  0.0275 -0.1975  0.0775 (reduced coord)
  -0.19885   0.08280   0.16857   0.19572   0.30494   0.33565   0.35533   0.43541
   0.46916   0.51548   0.55619   0.63729
 kpt#  14, nband= 12, wtk=  0.01563, kpt=  0.2775 -0.1975  0.0775 (reduced coord)
  -0.15524   0.02199   0.08382   0.16071   0.32702   0.35304   0.39723   0.42869
   0.49176   0.58869   0.66992   0.68743
 kpt#  15, nband= 12, wtk=  0.01563, kpt= -0.4725 -0.1975  0.0775 (reduced coord)
  -0.12242  -0.02376   0.08290   0.13030   0.29072   0.38223   0.40347   0.45317
   0.54888   0.62213   0.64716   0.68861
 kpt#  16, nband= 12, wtk=  0.01563, kpt= -0.2225 -0.1975  0.0775 (reduced coord)
  -0.18484   0.07948   0.14089   0.15001   0.26773   0.33782   0.41065   0.42343
   0.52148   0.55299   0.62342   0.67570
 kpt#  17, nband= 12, wtk=  0.01563, kpt=  0.0275  0.0525  0.3275 (reduced coord)
  -0.18334   0.03845   0.17164   0.18506   0.28996   0.34090   0.35373   0.46745
   0.49753   0.52870   0.54286   0.68642
 kpt#  18, nband= 12, wtk=  0.01563, kpt=  0.2775  0.0525  0.3275 (reduced coord)
  -0.17610   0.06497   0.13217   0.14213   0.26007   0.32142   0.42856   0.44490
   0.53720   0.56754   0.64428   0.69056
 kpt#  19, nband= 12, wtk=  0.01563, kpt= -0.4725  0.0525  0.3275 (reduced coord)
  -0.11673  -0.02134   0.07802   0.12144   0.26699   0.34000   0.44346   0.49064
   0.57743   0.63275   0.65619   0.70850
 kpt#  20, nband= 12, wtk=  0.01563, kpt= -0.2225  0.0525  0.3275 (reduced coord)
  -0.13535  -0.00469   0.06874   0.15284   0.30329   0.38407   0.43058   0.44020
   0.49919   0.53381   0.68376   0.74395
 kpt#  21, nband= 12, wtk=  0.01563, kpt=  0.0275  0.3025  0.3275 (reduced coord)
  -0.16812   0.05228   0.13132   0.13371   0.24788   0.30393   0.45728   0.46264
   0.55197   0.57338   0.66557   0.71584
 kpt#  22, nband= 12, wtk=  0.01563, kpt=  0.2775  0.3025  0.3275 (reduced coord)
  -0.18298   0.03739   0.17245   0.18468   0.28923   0.34099   0.35343   0.46900
   0.49911   0.52737   0.54258   0.68777
 kpt#  23, nband= 12, wtk=  0.01563, kpt= -0.4725  0.3025  0.3275 (reduced coord)
  -0.14185  -0.00364   0.08119   0.16173   0.30204   0.37975   0.40365   0.45829
   0.48941   0.54947   0.65642   0.72066
 kpt#  24, nband= 12, wtk=  0.01563, kpt= -0.2225  0.3025  0.3275 (reduced coord)
  -0.10557  -0.03353   0.06869   0.12484   0.26028   0.35157   0.46206   0.48548
   0.56547   0.59391   0.69567   0.72263
 kpt#  25, nband= 12, wtk=  0.01563, kpt=  0.0275 -0.4475  0.3275 (reduced coord)
  -0.10549  -0.03367   0.06839   0.12486   0.26103   0.35340   0.45979   0.48557
   0.56302   0.59419   0.69527   0.72496
 kpt#  26, nband= 12, wtk=  0.01563, kpt=  0.2775 -0.4475  0.3275 (reduced coord)
  -0.13474  -0.00540   0.06818   0.15287   0.30204   0.38611   0.43160   0.44094
   0.49834   0.53178   0.68436   0.73735
 kpt#  27, nband= 12, wtk=  0.01563, kpt= -0.4725 -0.4475  0.3275 (reduced coord)
  -0.12169  -0.03287   0.08892   0.14339   0.28323   0.38842   0.41375   0.44091
   0.55189   0.58308   0.65513   0.68707
 kpt#  28, nband= 12, wtk=  0.01563, kpt= -0.2225 -0.4475  0.3275 (reduced coord)
  -0.08616  -0.04666   0.06470   0.08725   0.35829   0.36098   0.38752   0.44672
   0.56885   0.62057   0.68375   0.73223
 kpt#  29, nband= 12, wtk=  0.01563, kpt=  0.0275 -0.1975  0.3275 (reduced coord)
  -0.14248  -0.00291   0.08179   0.16191   0.30291   0.37782   0.40405   0.45616
   0.49019   0.55126   0.65605   0.71840
 kpt#  30, nband= 12, wtk=  0.01563, kpt=  0.2775 -0.1975  0.3275 (reduced coord)
  -0.11694  -0.02105   0.07839   0.12159   0.26592   0.33817   0.44568   0.49061
   0.57988   0.63266   0.65642   0.70645
 kpt#  31, nband= 12, wtk=  0.01563, kpt= -0.4725 -0.1975  0.3275 (reduced coord)
  -0.07782  -0.05536   0.07117   0.08077   0.33878   0.34292   0.41906   0.45260
   0.58868   0.62298   0.68180   0.71370
 kpt#  32, nband= 12, wtk=  0.01563, kpt= -0.2225 -0.1975  0.3275 (reduced coord)
  -0.12236  -0.03263   0.09018   0.14370   0.28363   0.38705   0.41245   0.44123
   0.55308   0.58458   0.65421   0.68487
 kpt#  33, nband= 12, wtk=  0.01563, kpt=  0.0275  0.0525 -0.4225 (reduced coord)
  -0.14366  -0.03452   0.16475   0.17169   0.27942   0.33778   0.34423   0.49898
   0.56094   0.59235   0.62790   0.64660
 kpt#  34, nband= 12, wtk=  0.01563, kpt=  0.2775  0.0525 -0.4225 (reduced coord)
  -0.11366  -0.03295   0.07432   0.13322   0.28131   0.39786   0.41811   0.45079
   0.53381   0.59345   0.67699   0.69201
 kpt#  35, nband= 12, wtk=  0.01563, kpt= -0.4725  0.0525 -0.4225 (reduced coord)
  -0.08630  -0.05651   0.10524   0.10636   0.24595   0.25239   0.55537   0.57425
   0.60924   0.62979   0.67076   0.70108
 kpt#  36, nband= 12, wtk=  0.01563, kpt= -0.2225  0.0525 -0.4225 (reduced coord)
  -0.13885   0.00079   0.09452   0.13063   0.27601   0.35147   0.41298   0.45663
   0.60443   0.61023   0.66236   0.66673
 kpt#  37, nband= 12, wtk=  0.01563, kpt=  0.0275  0.3025 -0.4225 (reduced coord)
  -0.10581  -0.03600   0.06485   0.13092   0.26822   0.39014   0.43914   0.46486
   0.54143   0.57330   0.70856   0.71430
 kpt#  38, nband= 12, wtk=  0.01563, kpt=  0.2775  0.3025 -0.4225 (reduced coord)
  -0.12839  -0.01033   0.06019   0.15186   0.29088   0.41231   0.43969   0.44994
   0.48460   0.51148   0.70862   0.72837
 kpt#  39, nband= 12, wtk=  0.01563, kpt= -0.4725  0.3025 -0.4225 (reduced coord)
  -0.11379  -0.03316   0.07452   0.13397   0.28097   0.39835   0.41965   0.44877
   0.53414   0.59108   0.67699   0.69270
 kpt#  40, nband= 12, wtk=  0.01563, kpt= -0.2225  0.3025 -0.4225 (reduced coord)
  -0.08573  -0.04738   0.06175   0.09040   0.35271   0.37026   0.40396   0.42699
   0.56062   0.62338   0.67838   0.74120
 kpt#  41, nband= 12, wtk=  0.01563, kpt=  0.0275 -0.4475 -0.4225 (reduced coord)
[...]
- bse(Init1)                     0.529   1.7      0.529   1.7              1      -1.00    
- invars2                        0.289   0.9      0.288   0.9              3      -1.00    
- bse(rdmkeps^-1)                0.280   0.9      0.280   0.9              1      -1.00    
- pspini                         0.265   0.9      0.265   0.9              3      -1.00    
- nonlop(apply)                  0.191   0.6      0.180   0.6           8592      -1.00    
- projbd                         0.179   0.6      0.192   0.6          13280      -1.00    
- bse(mkrho)                     0.093   0.3      0.093   0.3              1      -1.00    
- getghc-other                   0.082   0.3      0.084   0.3             -1      -1.00    
- abinit(2)                      0.080   0.3      0.080   0.3              1      -1.00    
- vtowfk(ssdiag)                 0.060   0.2      0.057   0.2             -1      -1.00    
- bse(rdkss)                     0.041   0.1      0.041   0.1              1      -1.00    
- fourdp                         0.029   0.1      0.027   0.1            280      -1.00    
- fourwf%(den)                   0.014   0.0      0.011   0.0            120      -1.00    
- newkpt(excl. rwwf   )          0.010   0.0      0.010   0.0             -1      -1.00    
- mkcore                         0.006   0.0      0.007   0.0              5      -1.00    
- xc:pot/=fourdp                 0.006   0.0      0.005   0.0              9      -1.00    
- vtorho(MPI)                    0.005   0.0      0.004   0.0              7      -1.00    
- setsym                         0.004   0.0      0.004   0.0              2      -1.00    
- forces                         0.003   0.0      0.003   0.0              1      -1.00    
- ewald                          0.003   0.0      0.003   0.0              3      -1.00    
- stress                         0.003   0.0      0.003   0.0              1      -1.00    
- kpgsph                         0.002   0.0      0.002   0.0            373      -1.00    
- symrhg(no FFT)                 0.002   0.0      0.002   0.0              7      -1.00    
- bse(wfd_wave_free)             0.002   0.0      0.001   0.0              1      -1.00    
- ewald2 (+vdw_dftd2)            0.001   0.0      0.001   0.0              1      -1.00    
- scfcv-scprqt                   0.001   0.0      0.000   0.0              6      -1.00    
- vtowfk(contrib)                0.001   0.0      0.001   0.0             62      -1.00    
- vtowfk  (1)                    0.000   0.0      0.000   0.0             62      -1.00    
- status                         0.000   0.0      0.000   0.0             36      -1.00    
- nonlop(forstr)                 0.000   0.0      0.001   0.0             20      -1.00    
- vtowfk3(contrib)               0.000   0.0      0.000   0.0             -1      -1.00    
- cgwf3-O(npw)                   0.000   0.0      0.000   0.0             -1      -1.00    
- bse(mk_Hur_commutator)         0.000   0.0      0.000   0.0              1      -1.00    
- inwffil(excl. calls)           0.000   0.0      0.000   0.0              2      -1.00    
- others (67)                    0.000   0.0      0.000   0.0             -1      -1.00    
-<END_TIMER>
-
- subtotal                      16.882  54.3     16.886  54.3

- For major independent code sections, cpu and wall times (sec),
- as well as % of the total time and number of calls 

-<BEGIN_TIMER mpi_nprocs = 2, omp_nthreads = 1, mpi_rank = world>
- cpu_time =          31.1, wall_time =          31.1
-
- routine                         cpu     %       wall     %      number of calls Gflops 
-                                                                  (-1=no count)
- bse(mkexcham)                 20.659  66.5     20.664  66.4              2      -1.00    
- bse(mkexceps)                  2.975   9.6      2.975   9.6              2      -1.00    
- bse(exc_haydock_driver)        2.971   9.6      2.972   9.6              2      -1.00    
- fourwf%(pot)                   2.763   8.9      2.766   8.9          17148      -1.00    
- bse(Init1)                     1.054   3.4      1.058   3.4              2      -1.00    
- invars2                        0.581   1.9      0.580   1.9              6      -1.00    
- bse(rdmkeps^-1)                0.560   1.8      0.560   1.8              2      -1.00    
- pspini                         0.531   1.7      0.531   1.7              6      -1.00    
- nonlop(apply)                  0.369   1.2      0.362   1.2          17148      -1.00    
- projbd                         0.363   1.2      0.383   1.2          26536      -1.00    
- bse(mkrho)                     0.186   0.6      0.186   0.6              2      -1.00    
- getghc-other                   0.167   0.5      0.169   0.5             -2      -1.00    
- abinit(2)                      0.160   0.5      0.160   0.5              2      -1.00    
- vtowfk(ssdiag)                 0.114   0.4      0.114   0.4             -2      -1.00    
- bse(rdkss)                     0.078   0.3      0.082   0.3              2      -1.00    
- fourdp                         0.060   0.2      0.054   0.2            552      -1.00    
- fourwf%(den)                   0.030   0.1      0.022   0.1            240      -1.00    
- newkpt(excl. rwwf   )          0.019   0.1      0.021   0.1             -2      -1.00    
- mkcore                         0.013   0.0      0.013   0.0             10      -1.00    
- xc:pot/=fourdp                 0.010   0.0      0.011   0.0             18      -1.00    
- vtorho(MPI)                    0.009   0.0      0.007   0.0             14      -1.00    
- setsym                         0.008   0.0      0.007   0.0              4      -1.00    
- ewald                          0.006   0.0      0.005   0.0              6      -1.00    
- forces                         0.006   0.0      0.005   0.0              2      -1.00    
- stress                         0.006   0.0      0.006   0.0              2      -1.00    
- bse(wfd_wave_free)             0.004   0.0      0.003   0.0              2      -1.00    
- kpgsph                         0.004   0.0      0.004   0.0            746      -1.00    
- symrhg(no FFT)                 0.004   0.0      0.005   0.0             14      -1.00    
- vtowfk(contrib)                0.003   0.0      0.002   0.0            124      -1.00    
- ewald2 (+vdw_dftd2)            0.002   0.0      0.001   0.0              2      -1.00    
- scfcv-scprqt                   0.001   0.0      0.001   0.0             12      -1.00    
- vtowfk  (1)                    0.000   0.0      0.000   0.0            124      -1.00    
- status                         0.000   0.0      0.000   0.0             72      -1.00    
- nonlop(forstr)                 0.000   0.0      0.002   0.0             40      -1.00    
- vtowfk3(contrib)               0.000   0.0      0.000   0.0             -2      -1.00    
- cgwf3-O(npw)                   0.000   0.0      0.000   0.0             -2      -1.00    
- bse(mk_Hur_commutator)         0.000   0.0      0.000   0.0              2      -1.00    
- inwffil(excl. calls)           0.000   0.0      0.000   0.0              4      -1.00    
- others (67)                    0.000   0.0      0.000   0.0             -1      -1.00    
-<END_TIMER>

- subtotal                      33.714 108.5     33.733 108.4

 Partitioning of abinit
- abinit                        31.072 100.0     31.105 100.0              2
 
- abinit(1)                      0.067   0.2      0.068   0.2              2
- abinit(2)                      0.160   0.5      0.160   0.5              2
- indefo+macroin+invars2m        0.582   1.9      0.582   1.9              2
- abinit(4)                      0.060   0.2      0.061   0.2              2
- abinit(5)                      0.035   0.1      0.040   0.1              2
- driver                        30.147  97.0     30.167  97.0              2
- abinit(6)                      0.021   0.1      0.028   0.1              2

- subtotal                      31.072 100.0     31.105 100.0

 Partitioning of driver
- driver                        30.147  97.0     30.167  97.0              2
 
- gstateimg                      4.602  14.8      4.608  14.8              4
- bse                           25.519  82.1     25.533  82.1              2
- driver(aft. select case)       0.024   0.1      0.024   0.1              6

- subtotal                      30.147  97.0     30.167  97.0

 Partitioning of gstateimg+gstate
- gstateimg                      4.602  14.8      4.608  14.8              4
 
- gstate->kpgsph                 0.030   0.1      0.031   0.1              8
- gstate(pspini)                 0.264   0.8      0.265   0.9              4
- gstate(...scfcv)               4.260  13.7      4.263  13.7              4
- gstate  (3)                    0.044   0.1      0.044   0.1              4

- subtotal                       4.602  14.8      4.608  14.8

 Partitioning of scfcv
- scfcv                          4.260  13.7      4.263  13.7              4
 
- scfcv(iniloop, setvtr  )       0.015   0.0      0.014   0.0             14
- scfcv(vtorho(f))               4.210  13.6      4.211  13.5             14
- scfcv(rhotov)                  0.010   0.0      0.011   0.0             12
- scfcv(mix pot)                 0.008   0.0      0.007   0.0             10
- scfcv(afterscfloop)            0.014   0.0      0.015   0.0              4

- subtotal                       4.260  13.7      4.263  13.7

 Partitioning of rhotov
- rhotov                         0.010   0.0      0.011   0.0             12
 
- rhotov(rhohxc)                 0.010   0.0      0.009   0.0             12

- subtotal                       0.010   0.0      0.011   0.0

 Partitioning of vtorho
- vtorho                         4.210  13.6      4.211  13.5             14
 
- vtorho(bef. vtowfk)            0.008   0.0      0.008   0.0            124
- vtowfk                         4.178  13.4      4.178  13.4            124
- vtorho(MPI)                    0.009   0.0      0.007   0.0             14
- vtorho(mkrho 2)                0.013   0.0      0.016   0.1             26

- subtotal                       4.210  13.6      4.211  13.5

 Partitioning of vtowfk
- vtowfk                         4.178  13.4      4.178  13.4            124
 
- cgwf                           4.031  13.0      4.039  13.0            370
- vtowfk(subdiago)               0.046   0.1      0.051   0.2            370
- vtowfk(pw_orthon)              0.059   0.2      0.054   0.2            370
- vtowfk(2)                      0.009   0.0      0.008   0.0             -2
- fourwf%vtowfk                  0.030   0.1      0.022   0.1            240

- subtotal                       4.178  13.4      4.178  13.4

 Partitioning of cgwf
- cgwf                           4.031  13.0      4.039  13.0            370
 
- getghc%cgwf                    3.299  10.6      3.296  10.6          17148
- cgwf-O(npw)                    0.370   1.2      0.360   1.2             -2
- projbd%cgwf                    0.363   1.2      0.383   1.2          26536

- subtotal                       4.031  13.0      4.039  13.0

 Partitioning of getghc
- getghc                         3.299  10.6      3.296  10.6          17148
 
- fourwf%getghc                  2.763   8.9      2.766   8.9          17148
- nonlop%getghc                  0.369   1.2      0.362   1.2          17148
- getghc-other                   0.167   0.5      0.169   0.5             -2

- subtotal                       3.299  10.6      3.296  10.6

 Partitioning of fourwf (upwards partitioning)
- fourwf                         2.793   9.0      2.788   9.0          17388
 
- fourwf%getghc                  2.763   8.9      2.766   8.9          17148
- fourwf%vtowfk                  0.030   0.1      0.022   0.1            240

- subtotal                       2.793   9.0      2.788   9.0

 Partitioning of bethe_salpeter
- bse                           25.519  82.1     25.533  82.1              2
 
- bse(Init1)                     1.054   3.4      1.058   3.4              2
- bse(rdkss)                     0.078   0.3      0.082   0.3              2
- bse(rdmkeps^-1)                0.560   1.8      0.560   1.8              2
- bse(mkrho)                     0.186   0.6      0.186   0.6              2
- bse(mkexcham)                 20.659  66.5     20.664  66.4              2
- bse(exc_haydock_driver)        2.971   9.6      2.972   9.6              2

- subtotal                      25.511  82.1     25.525  82.1

 Partitioning of inwffil
- inwffil                        0.019   0.1      0.021   0.1              4
 
- inwffil(call newkpt)           0.019   0.1      0.021   0.1              4

- subtotal                       0.019   0.1      0.021   0.1

 Partitioning of newkpt
- newkpt                         0.019   0.1      0.021   0.1              4
 
- newkpt(call wfconv)            0.017   0.1      0.020   0.1             74

- subtotal                       0.019   0.1      0.021   0.1

 Partitioning of newvtr
- newvtr                         0.008   0.0      0.007   0.0             10
 

- subtotal                       0.008   0.0      0.007   0.0

 Partitioning of  fourdp (upwards partitioning)
- fourdp                         0.060   0.2      0.054   0.2            552
 
- fourdp%(other)                 0.060   0.2      0.054   0.2            552

- subtotal                       0.060   0.2      0.054   0.2

 Partitioning of afterscfloop
- afterscfloop                   0.014   0.0      0.015   0.0              4
 
- afterscfloop(forstr)           0.014   0.0      0.014   0.0              4

- subtotal                       0.014   0.0      0.015   0.0

 Partitioning of forstr
- forstr                         0.014   0.0      0.014   0.0              2
 

- subtotal                       0.014   0.0      0.014   0.0

 Partitioning of forstrnps
- forstrnps                      0.002   0.0      0.003   0.0              2
 

- subtotal                       0.002   0.0      0.003   0.0

 Partitioning of exc_build_ham
- exc_build_ham                 20.659  66.5     20.664  66.4              2
 
- exc_build_ham(q=0)             0.492   1.6      0.491   1.6              2
- exc_build_ham(block-res)      20.167  64.9     20.172  64.9              2

- subtotal                      20.659  66.5     20.664  66.4

 Partitioning of exc_build_block
- exc_build_block               20.167  64.9     20.172  64.9              2
 
- exc_build_block(Coulomb)      19.973  64.3     19.977  64.2              2
- exc_build_block(exchange       0.016   0.1      0.016   0.1              2
- exc_build_block(synchro)       0.172   0.6      0.172   0.6              2

- subtotal                      20.167  64.9     20.172  64.9

 Partitioning of exc_haydock_driver
- exc_haydock_driver             2.971   9.6      2.972   9.6              2
 
- exc_haydock_driver(prep)       2.340   7.5      2.341   7.5              2
- exc_haydock_driver(wo lf       0.191   0.6      0.190   0.6              2
- exc_haydock_driver(apply       0.416   1.3      0.418   1.3              2
- exc_haydock_driver(end)        0.022   0.1      0.022   0.1              2

- subtotal                       2.971   9.6      2.972   9.6

 Partitioning of outscfcv
- outscfcv                       0.002   0.0      0.003   0.0              4
 

- subtotal                       0.001   0.0      0.001   0.0
-
-Synchronisation (=leave_test) and MPI calls 
- communic.MPI                   0.053   0.2      0.028   0.1          42324
-
- forstrnps:synchr               0.000   0.0      0.000   0.0              4
-
- subtotal                       0.000   0.0      0.000   0.0

 Additional information
- timana(1)                      0.000   0.0      0.000   0.0              2
- total timab                    0.000   0.0      0.000   0.0         127300
- fourwf                         2.793   9.0      2.788   9.0          17388
- mklocl(2)                      0.002   0.0      0.000   0.0              2
- status                         0.000   0.0      0.000   0.0             72
- nonlop(forstr)                 0.000   0.0      0.002   0.0             40
- nonlop(total)                  0.369   1.2      0.364   1.2          17188

 timana : in multi dataset mode, the more detailed analysis is not done.

================================================================================

 Suggested references for the acknowledgment of ABINIT usage.

 The users of ABINIT have little formal obligations with respect to the ABINIT group
 (those specified in the GNU General Public License, http://www.gnu.org/copyleft/gpl.txt).
 However, it is common practice in the scientific literature,
 to acknowledge the efforts of people that have made the research possible.
 In this spirit, please find below suggested citations of work written by ABINIT developers,
 corresponding to implementations inside of ABINIT that you have used in the present run.
 Note also that it will be of great value to readers of publications presenting these results,
 to read papers enabling them to understand the theoretical formalism and details
 of the ABINIT implementation.
 For information on why they are suggested, see also http://www.abinit.org/about/?text=acknowledgments.

 [1] ABINIT : First-principles approach of materials and nanosystem properties.
 X. Gonze, B. Amadon, P.-M. Anglade, J.-M. Beuken, F. Bottin, P. Boulanger, F. Bruneval,
 D. Caliste, R. Caracas, M. Cote, T. Deutsch, L. Genovese, Ph. Ghosez, M. Giantomassi
 S. Goedecker, D.R. Hamann, P. Hermet, F. Jollet, G. Jomard, S. Leroux, M. Mancini, S. Mazevet,
 M.J.T. Oliveira, G. Onida, Y. Pouillon, T. Rangel, G.-M. Rignanese, D. Sangalli, R. Shaltaf,
 M. Torrent, M.J. Verstraete, G. Zerah, J.W. Zwanziger
 Computer Phys. Comm. 180, 2582-2615 (2009).
 Comment : the third generic paper describing the ABINIT project.
 Note that a version of this paper, that is not formatted for Computer Phys. Comm. 
 is available at http://www.abinit.org/about/ABINIT_CPC_v10.pdf .
 The licence allows the authors to put it on the Web.

 [2] A brief introduction to the ABINIT software package.
 X. Gonze, G.-M. Rignanese, M. Verstraete, J.-M. Beuken, Y. Pouillon, R. Caracas, F. Jollet,
 M. Torrent, G. Zerah, M. Mikami, Ph. Ghosez, M. Veithen, J.-Y. Raty, V. Olevano, F. Bruneval,
 L. Reining, R. Godby, G. Onida, D.R. Hamann, and D.C. Allan.
 Z. Kristallogr. 220, 558-562 (2005).
 Comment : the second generic paper describing the ABINIT project. Note that this paper
 should be cited especially if you are using the GW part of ABINIT, as several authors
 of this part are not in the list of authors of the first or third paper.
 The .pdf of the latter paper is available at http://www.abinit.org/about/zfk_0505-06_558-562.pdf.
 Note that it should not redistributed (Copyright by Oldenburg Wissenshaftverlag,
 the licence allows the authors to put it on the Web).


 And optionally :

 [3] First-principles computation of material properties : the ABINIT software project. 
 X. Gonze, J.-M. Beuken, R. Caracas, F. Detraux, M. Fuchs, G.-M. Rignanese, L. Sindic,
 M. Verstraete, G. Zerah, F. Jollet, M. Torrent, A. Roy, M. Mikami, Ph. Ghosez, J.-Y. Raty, D.C. Allan.
 Computational Materials Science 25, 478-492 (2002). http://dx.doi.org/10.1016/S0927-0256(02)00325-7
 Comment : the original paper describing the ABINIT project.

 [4] Fast radix 2, 3, 4 and 5 kernels for Fast Fourier Transformations
 on computers with overlapping multiply-add instructions.
 S. Goedecker, SIAM J. on Scientific Computing 18, 1605 (1997).
-
- Proc.   0 individual time (sec): cpu=         15.6  wall=         15.6

================================================================================

 Calculation completed.
.Delivered    0 WARNINGs and   0 COMMENTs to log file.
+Overall time at end (sec) : cpu=         31.1  wall=         31.1
