
.Version 7.10.4 of ABINIT 
.(MPI version, prepared for a x86_64_linux_gnu4.7 computer) 

.Copyright (C) 1998-2014 ABINIT group . 
 ABINIT comes with ABSOLUTELY NO WARRANTY.
 It is free software, and you are welcome to redistribute it
 under certain conditions (GNU General Public License,
 see ~abinit/COPYING or http://www.gnu.org/copyleft/gpl.txt).

 ABINIT is a project of the Universite Catholique de Louvain,
 Corning Inc. and other collaborators, see ~abinit/doc/developers/contributors.txt .
 Please read ~abinit/doc/users/acknowledgments.html for suggested
 acknowledgments of the ABINIT effort.
 For more information, see http://www.abinit.org .

.Starting date : Wed 11 Mar 2015.
- ( at 12h26 )
  
- input  file    -> t92.in
- output file    -> t92_MPI4.out
- root for input  files -> t92_MPI4i
- root for output files -> t92_MPI4o


 DATASET    1 : space group Fm -3 m (#225); Bravais cF (face-center cubic)
================================================================================
 Values of the parameters that define the memory need for DATASET  1.
   intxc =         0  ionmov =         0    iscf =        17 xclevel =         1
  lmnmax =        32   lnmax =         8   mband =        20  mffmem =         1
P  mgfft =        24   mkmem =         3 mpssoang=         4     mpw =       382
  mqgrid =      3001   natom =         1    nfft =     13824    nkpt =        10
  nloalg =         4  nspden =         1 nspinor =         1  nsppol =         1
    nsym =        48  n1xccc =         1  ntypat =         1  occopt =         3
 PAW method is used; the additional fine FFT grid is defined by:
   mgfftf=        48    nfftf =    110592
================================================================================
P This job should need less than                      35.458 Mbytes of memory.
  Rough estimation (10% accuracy) of disk space for files :
_ WF disk file :      1.168 Mbytes ; DEN or POT disk file :      0.846 Mbytes.
================================================================================


 DATASET    2 : space group Fm -3 m (#225); Bravais cF (face-center cubic)
================================================================================
 Values of the parameters that define the memory need for DATASET  2.
   intxc =         0  ionmov =         0    iscf =        17 xclevel =         1
  lmnmax =        32   lnmax =         8   mband =        20  mffmem =         1
P  mgfft =        24   mkmem =         3 mpssoang=         4     mpw =       382
  mqgrid =      3001   natom =         1    nfft =     13824    nkpt =        10
  nloalg =         4  nspden =         1 nspinor =         1  nsppol =         1
    nsym =        48  n1xccc =         1  ntypat =         1  occopt =         3
 PAW method is used; the additional fine FFT grid is defined by:
   mgfftf=        48    nfftf =    110592
================================================================================
P This job should need less than                      35.458 Mbytes of memory.
  Rough estimation (10% accuracy) of disk space for files :
_ WF disk file :      1.168 Mbytes ; DEN or POT disk file :      0.846 Mbytes.
================================================================================

--------------------------------------------------------------------------------
------------- Echo of variables that govern the present computation ------------
--------------------------------------------------------------------------------
-
- outvars: echo of selected default values                                      
-   accesswff0 =  0 , fftalg0 =112 , wfoptalg0 = 10
-
- outvars: echo of global parameters not present in the input file              
-  max_nthreads =    0
-
 -outvars: echo values of preprocessed input variables --------
            acell      9.1274000000E+00  9.1274000000E+00  9.1274000000E+00 Bohr
              amu      1.40115000E+02
           diemix      1.00000000E-01
        dmatpuopt           1
        dmftbandf1          0
        dmftbandf2         20
        dmftbandi1          0
        dmftbandi2          5
        dmft_iter1          0
        dmft_iter2          1
        dmft_mxsf1     3.0000000000E-01
        dmft_mxsf2     1.0000000000E-01
        dmft_nwli1          0
        dmft_nwli2      10000
        dmft_nwlo1          0
        dmft_nwlo2        100
  dmft_read_occnd1          0
  dmft_read_occnd2          1
        dmft_rslf1          0
        dmft_rslf2          1
             ecut      1.20000000E+01 Hartree
-          fftalg         112
           getwfk          -1
              ixc           7
           jdtset        1    2
              kpt     -1.25000000E-01 -2.50000000E-01  0.00000000E+00
                      -1.25000000E-01  5.00000000E-01  0.00000000E+00
                      -2.50000000E-01 -3.75000000E-01  0.00000000E+00
                      -1.25000000E-01 -3.75000000E-01  1.25000000E-01
                      -1.25000000E-01  2.50000000E-01  0.00000000E+00
                      -2.50000000E-01  3.75000000E-01  0.00000000E+00
                      -3.75000000E-01  5.00000000E-01  0.00000000E+00
                      -2.50000000E-01  5.00000000E-01  1.25000000E-01
                      -1.25000000E-01  0.00000000E+00  0.00000000E+00
                      -3.75000000E-01  0.00000000E+00  0.00000000E+00
           kptopt           4
         kptrlatt        4   -4    4     -4    4    4     -4   -4    4
          kptrlen      3.65096000E+01
            lpawu           3
P           mkmem           3
            natom           1
            nband          20
           ndtset           2
            ngfft          24      24      24
          ngfftdg          48      48      48
             nkpt          10
            nstep1         30
            nstep2          2
             nsym          48
           ntypat           1
              occ      2.000000  2.000000  2.000000  2.000000  2.000000  2.000000
                       0.000000  0.000000  0.000000  0.000000  0.000000  0.000000
                       0.000000  0.000000  0.000000  0.000000  0.000000  0.000000
                       0.000000  0.000000
                       2.000000  2.000000  2.000000  2.000000  2.000000  2.000000
                       0.000000  0.000000  0.000000  0.000000  0.000000  0.000000
                       0.000000  0.000000  0.000000  0.000000  0.000000  0.000000
                       0.000000  0.000000
                       2.000000  2.000000  2.000000  2.000000  2.000000  2.000000
                       0.000000  0.000000  0.000000  0.000000  0.000000  0.000000
                       0.000000  0.000000  0.000000  0.000000  0.000000  0.000000
                       0.000000  0.000000
                       2.000000  2.000000  2.000000  2.000000  2.000000  2.000000
                       0.000000  0.000000  0.000000  0.000000  0.000000  0.000000
                       0.000000  0.000000  0.000000  0.000000  0.000000  0.000000
                       0.000000  0.000000
                       2.000000  2.000000  2.000000  2.000000  2.000000  2.000000
                       0.000000  0.000000  0.000000  0.000000  0.000000  0.000000
                       0.000000  0.000000  0.000000  0.000000  0.000000  0.000000
                       0.000000  0.000000
                       2.000000  2.000000  2.000000  2.000000  2.000000  2.000000
                       0.000000  0.000000  0.000000  0.000000  0.000000  0.000000
                       0.000000  0.000000  0.000000  0.000000  0.000000  0.000000
                       0.000000  0.000000
                       2.000000  2.000000  2.000000  2.000000  2.000000  2.000000
                       0.000000  0.000000  0.000000  0.000000  0.000000  0.000000
                       0.000000  0.000000  0.000000  0.000000  0.000000  0.000000
                       0.000000  0.000000
                       2.000000  2.000000  2.000000  2.000000  2.000000  2.000000
                       0.000000  0.000000  0.000000  0.000000  0.000000  0.000000
                       0.000000  0.000000  0.000000  0.000000  0.000000  0.000000
                       0.000000  0.000000
                       2.000000  2.000000  2.000000  2.000000  2.000000  2.000000
                       0.000000  0.000000  0.000000  0.000000  0.000000  0.000000
                       0.000000  0.000000  0.000000  0.000000  0.000000  0.000000
                       0.000000  0.000000
                       2.000000  2.000000  2.000000  2.000000  2.000000  2.000000
                       0.000000  0.000000  0.000000  0.000000  0.000000  0.000000
                       0.000000  0.000000  0.000000  0.000000  0.000000  0.000000
                       0.000000  0.000000
           occopt           3
-      paral_atom           0
        pawecutdg      6.00000000E+01 Hartree
        pawprtvol           3
           prtvol           4
            rprim      0.0000000000E+00  5.0000000000E-01  5.0000000000E-01
                       5.0000000000E-01  0.0000000000E+00  5.0000000000E-01
                       5.0000000000E-01  5.0000000000E-01  0.0000000000E+00
           shiftk      5.00000000E-01  5.00000000E-01  5.00000000E-01
          spgroup         225
           symrel      1  0  0   0  1  0   0  0  1      -1  0  0   0 -1  0   0  0 -1
                       0 -1  1   0 -1  0   1 -1  0       0  1 -1   0  1  0  -1  1  0
                      -1  0  0  -1  0  1  -1  1  0       1  0  0   1  0 -1   1 -1  0
                       0  1 -1   1  0 -1   0  0 -1       0 -1  1  -1  0  1   0  0  1
                      -1  0  0  -1  1  0  -1  0  1       1  0  0   1 -1  0   1  0 -1
                       0 -1  1   1 -1  0   0 -1  0       0  1 -1  -1  1  0   0  1  0
                       1  0  0   0  0  1   0  1  0      -1  0  0   0  0 -1   0 -1  0
                       0  1 -1   0  0 -1   1  0 -1       0 -1  1   0  0  1  -1  0  1
                      -1  0  1  -1  1  0  -1  0  0       1  0 -1   1 -1  0   1  0  0
                       0 -1  0   1 -1  0   0 -1  1       0  1  0  -1  1  0   0  1 -1
                       1  0 -1   0  0 -1   0  1 -1      -1  0  1   0  0  1   0 -1  1
                       0  1  0   0  0  1   1  0  0       0 -1  0   0  0 -1  -1  0  0
                       1  0 -1   0  1 -1   0  0 -1      -1  0  1   0 -1  1   0  0  1
                       0 -1  0   0 -1  1   1 -1  0       0  1  0   0  1 -1  -1  1  0
                      -1  0  1  -1  0  0  -1  1  0       1  0 -1   1  0  0   1 -1  0
                       0  1  0   1  0  0   0  0  1       0 -1  0  -1  0  0   0  0 -1
                       0  0 -1   0  1 -1   1  0 -1       0  0  1   0 -1  1  -1  0  1
                       1 -1  0   0 -1  1   0 -1  0      -1  1  0   0  1 -1   0  1  0
                       0  0  1   1  0  0   0  1  0       0  0 -1  -1  0  0   0 -1  0
                      -1  1  0  -1  0  0  -1  0  1       1 -1  0   1  0  0   1  0 -1
                       0  0  1   0  1  0   1  0  0       0  0 -1   0 -1  0  -1  0  0
                       1 -1  0   0 -1  0   0 -1  1      -1  1  0   0  1  0   0  1 -1
                       0  0 -1   1  0 -1   0  1 -1       0  0  1  -1  0  1   0 -1  1
                      -1  1  0  -1  0  1  -1  0  0       1 -1  0   1  0 -1   1  0  0
           tolvrs      1.00000000E-10
           tsmear      1.73918086E-03 Hartree
            typat      1
            upawu1     0.00000000E+00 Hartree
            upawu2     2.20495952E-01 Hartree
          usedmft1          0
          usedmft2          1
          usepawu1          1
          usepawu2         10
           useylm           1
              wtk        0.09375    0.09375    0.09375    0.18750    0.09375    0.09375
                         0.09375    0.18750    0.03125    0.03125
            znucl       58.00000

================================================================================

 chkinp: Checking input parameters for consistency, jdtset=   1.

 chkinp: Checking input parameters for consistency, jdtset=   2.

================================================================================
== DATASET  1 ==================================================================
-   nproc =    4

 Exchange-correlation functional for the present dataset will be:
  LDA: Perdew-Wang 92 LSD fit to Ceperley-Alder data - ixc=7
 Citation for XC functional:
  J.P.Perdew and Y.Wang, PRB 45, 13244 (1992)

 Real(R)+Recip(G) space primitive vectors, cartesian coordinates (Bohr,Bohr^-1):
 R(1)=  0.0000000  4.5637000  4.5637000  G(1)= -0.1095602  0.1095602  0.1095602
 R(2)=  4.5637000  0.0000000  4.5637000  G(2)=  0.1095602 -0.1095602  0.1095602
 R(3)=  4.5637000  4.5637000  0.0000000  G(3)=  0.1095602  0.1095602 -0.1095602
 Unit cell volume ucvol=  1.9009962E+02 bohr^3
 Angles (23,13,12)=  6.00000000E+01  6.00000000E+01  6.00000000E+01 degrees

 Coarse grid specifications (used for wave-functions):

 getcut: wavevector=  0.0000  0.0000  0.0000  ngfft=  24  24  24
         ecut(hartree)=     12.000   => boxcut(ratio)=   2.38464

 getcut : COMMENT -
  Note that boxcut > 2.2 ; recall that boxcut=Gcut(box)/Gcut(sphere) = 2
  is sufficient for exact treatment of convolution.
  Such a large boxcut is a waste : you could raise ecut
  e.g. ecut=   17.059570 Hartrees makes boxcut=2


 Fine grid specifications (used for densities):

 getcut: wavevector=  0.0000  0.0000  0.0000  ngfft=  48  48  48
         ecut(hartree)=     60.000   => boxcut(ratio)=   2.13289

--- Pseudopotential description ------------------------------------------------
- pspini: atom type   1  psp file is /data/ABINIT/testf_gcc47/trunk_7.10.4-private/tests/Psps_for_tests/58ce.paw
- pspatm: opening atomic psp file    /data/ABINIT/testf_gcc47/trunk_7.10.4-private/tests/Psps_for_tests/58ce.paw
- Paw atomic data for element Ce - Generated by AtomPAW + AtomPAW2Abinit v3.2.1
- 58.00000  12.00000  20090603                znucl, zion, pspdat
    7    7    3    0       511   0.00000      pspcod,pspxc,lmax,lloc,mmax,r2well
 Pseudopotential format is: paw4
 basis_size (lnmax)=  8 (lmn_size= 32), orbitals=   0   0   1   1   2   2   3   3
 Spheres core radius: rc_sph= 2.51255760
 4 radial meshes are used:
  - mesh 1: r(i)=AA*[exp(BB*(i-1))-1], size= 511 , AA= 0.30755E-03 BB= 0.17838E-01
  - mesh 2: r(i)=AA*[exp(BB*(i-1))-1], size= 506 , AA= 0.30755E-03 BB= 0.17838E-01
  - mesh 3: r(i)=AA*[exp(BB*(i-1))-1], size= 534 , AA= 0.30755E-03 BB= 0.17838E-01
  - mesh 4: r(i)=AA*[exp(BB*(i-1))-1], size= 583 , AA= 0.30755E-03 BB= 0.17838E-01
 Shapefunction is SIN type: shapef(r)=[sin(pi*r/rshp)/(pi*r/rshp)]**2
 Radius for shape functions = sphere core radius
 Radial grid used for partial waves is grid 1
 Radial grid used for projectors is grid  2
 Radial grid used for (t)core density is grid 3
 Radial grid used for Vloc is grid 4
 Radial grid used for pseudo valence density is grid 4
 Compensation charge density is taken into account in XC energy/potential
 pspatm: atomic psp has been read  and splines computed

   3.12151005E+02                                ecore*ucvol(ha*bohr**3)
--------------------------------------------------------------------------------

P newkpt: treating     20 bands with npw=     370 for ikpt=   1 by node    0
P newkpt: treating     20 bands with npw=     379 for ikpt=   2 by node    0
P newkpt: treating     20 bands with npw=     376 for ikpt=   3 by node    0
P newkpt: treating     20 bands with npw=     378 for ikpt=   4 by node    1
P newkpt: treating     20 bands with npw=     372 for ikpt=   5 by node    1
P newkpt: treating     20 bands with npw=     380 for ikpt=   6 by node    1
P newkpt: treating     20 bands with npw=     374 for ikpt=   7 by node    2
P newkpt: treating     20 bands with npw=     382 for ikpt=   8 by node    2
P newkpt: treating     20 bands with npw=     362 for ikpt=   9 by node    2
P newkpt: treating     20 bands with npw=     368 for ikpt=  10 by node    3

_setup2: Arith. and geom. avg. npw (full set) are     376.344     376.313


 ******************************************
 LDA+U Method used: FLL
 ******************************************

================================================================================

     iter   Etot(hartree)      deltaE(h)  residm     nres2
 ETOT  1  -39.392918841665    -3.939E+01 4.933E-01 1.758E+01
 ETOT  2  -39.499014563370    -1.061E-01 1.430E-02 4.417E+00
 ETOT  3  -39.495220306099     3.794E-03 6.193E-03 4.578E-01
 ETOT  4  -39.495089995044     1.303E-04 3.566E-04 1.433E-01
 ETOT  5  -39.494589159250     5.008E-04 9.895E-04 2.740E-01
 ETOT  6  -39.494254818117     3.343E-04 2.314E-04 2.225E-02
 ETOT  7  -39.494357732885    -1.029E-04 4.704E-05 4.159E-02
 ETOT  8  -39.494295289111     6.244E-05 3.987E-05 6.277E-04
 ETOT  9  -39.494299895113    -4.606E-06 1.314E-05 1.083E-04
 ETOT 10  -39.494298528486     1.367E-06 1.367E-06 8.966E-04
 ETOT 11  -39.494298678976    -1.505E-07 2.566E-07 2.211E-04
 ETOT 12  -39.494298433732     2.452E-07 1.474E-08 3.919E-04
 ETOT 13  -39.494298330652     1.031E-07 1.146E-09 5.924E-04
 ETOT 14  -39.494298782122    -4.515E-07 1.008E-08 8.010E-04
 ETOT 15  -39.494299655208    -8.731E-07 3.861E-08 9.745E-04
 ETOT 16  -39.494299803788    -1.486E-07 1.386E-09 1.044E-03
 ETOT 17  -39.494298059193     1.745E-06 4.616E-08 1.233E-03
 ETOT 18  -39.494297808921     2.503E-07 8.890E-09 7.885E-04
 ETOT 19  -39.494299145186    -1.336E-06 7.636E-08 1.295E-05
 ETOT 20  -39.494299531923    -3.867E-07 1.823E-08 3.145E-04
 ETOT 21  -39.494299737692    -2.058E-07 2.844E-09 4.437E-04
 ETOT 22  -39.494299276220     4.615E-07 1.183E-09 1.128E-04
 ETOT 23  -39.494299271315     4.905E-09 1.174E-09 4.756E-05
 ETOT 24  -39.494299129524     1.418E-07 3.121E-08 1.480E-06
 ETOT 25  -39.494299140448    -1.092E-08 1.327E-09 2.191E-06
 ETOT 26  -39.494299130696     9.752E-09 1.799E-09 8.183E-05
 ETOT 27  -39.494299159442    -2.875E-08 7.225E-10 3.241E-05
 ETOT 28  -39.494299172592    -1.315E-08 6.755E-10 1.041E-05
 ETOT 29  -39.494299169037     3.554E-09 3.764E-11 3.284E-06
 ETOT 30  -39.494299169528    -4.907E-10 1.215E-11 3.335E-06

 Cartesian components of stress tensor (hartree/bohr^3)
  sigma(1 1)=  2.48948007E-04  sigma(3 2)=  0.00000000E+00
  sigma(2 2)=  2.48948007E-04  sigma(3 1)=  0.00000000E+00
  sigma(3 3)=  2.48948007E-04  sigma(2 1)=  0.00000000E+00


 scprqt:  WARNING -
  nstep=   30 was not enough SCF cycles to converge;
  density residual=  3.335E-06 exceeds tolvrs=  1.000E-10


 PAW TEST:
 ==== Compensation charge inside spheres ============
 The following values must be close to each other ...
 Compensation charge over spherical meshes =     -0.475756255029742
 Compensation charge over fine fft grid    =     -0.475692032800445

 ==== Results concerning PAW augmentation regions ====

 Total pseudopotential strength Dij (hartree):
   2.47059  -0.82038   0.00000   0.00000   0.00000   0.00000   0.00000   0.00000   0.00000   0.00000   0.00000   0.00000 ...
  -0.82038   0.27770   0.00000   0.00000   0.00000   0.00000   0.00000   0.00000   0.00000   0.00000   0.00000   0.00000 ...
   0.00000   0.00000   0.61942   0.00000   0.00000  -0.60610   0.00000   0.00000   0.00000   0.00000   0.00000   0.00000 ...
   0.00000   0.00000   0.00000   0.61942   0.00000   0.00000  -0.60610   0.00000   0.00000   0.00000   0.00000   0.00000 ...
   0.00000   0.00000   0.00000   0.00000   0.61942   0.00000   0.00000  -0.60610   0.00000   0.00000   0.00000   0.00000 ...
   0.00000   0.00000  -0.60610   0.00000   0.00000   0.80036   0.00000   0.00000   0.00000   0.00000   0.00000   0.00000 ...
   0.00000   0.00000   0.00000  -0.60610   0.00000   0.00000   0.80036   0.00000   0.00000   0.00000   0.00000   0.00000 ...
   0.00000   0.00000   0.00000   0.00000  -0.60610   0.00000   0.00000   0.80036   0.00000   0.00000   0.00000   0.00000 ...
   0.00000   0.00000   0.00000   0.00000   0.00000   0.00000   0.00000   0.00000   0.13352   0.00000   0.00000   0.00000 ...
   0.00000   0.00000   0.00000   0.00000   0.00000   0.00000   0.00000   0.00000   0.00000   0.13352   0.00000   0.00000 ...
   0.00000   0.00000   0.00000   0.00000   0.00000   0.00000   0.00000   0.00000   0.00000   0.00000   0.13347   0.00000 ...
   0.00000   0.00000   0.00000   0.00000   0.00000   0.00000   0.00000   0.00000   0.00000   0.00000   0.00000   0.13352 ...
   ...  only 12  components have been written...


 Augmentation waves occupancies Rhoij:
   1.97259  -0.07030   0.00000   0.00000   0.00000   0.00000   0.00000   0.00000   0.00000   0.00000   0.00000   0.00000 ...
  -0.07030   1.13064   0.00000   0.00000   0.00000   0.00000   0.00000   0.00000   0.00000   0.00000   0.00000   0.00000 ...
   0.00000   0.00000   1.96815   0.00000   0.00000  -0.00212   0.00000   0.00000   0.00000   0.00000   0.00000   0.00000 ...
   0.00000   0.00000   0.00000   1.96815   0.00000   0.00000  -0.00212   0.00000   0.00000   0.00000   0.00000   0.00000 ...
   0.00000   0.00000   0.00000   0.00000   1.96815   0.00000   0.00000  -0.00212   0.00000   0.00000   0.00000   0.00000 ...
   0.00000   0.00000  -0.00212   0.00000   0.00000   0.00545   0.00000   0.00000   0.00000   0.00000   0.00000   0.00000 ...
   0.00000   0.00000   0.00000  -0.00212   0.00000   0.00000   0.00545   0.00000   0.00000   0.00000   0.00000   0.00000 ...
   0.00000   0.00000   0.00000   0.00000  -0.00212   0.00000   0.00000   0.00545   0.00000   0.00000   0.00000   0.00000 ...
   0.00000   0.00000   0.00000   0.00000   0.00000   0.00000   0.00000   0.00000   0.47226   0.00000   0.00000   0.00000 ...
   0.00000   0.00000   0.00000   0.00000   0.00000   0.00000   0.00000   0.00000   0.00000   0.47226   0.00000   0.00000 ...
   0.00000   0.00000   0.00000   0.00000   0.00000   0.00000   0.00000   0.00000   0.00000   0.00000   0.39631   0.00000 ...
   0.00000   0.00000   0.00000   0.00000   0.00000   0.00000   0.00000   0.00000   0.00000   0.00000   0.00000   0.47226 ...
   ...  only 12  components have been written...

 "PAW+U" part of augmentation waves occupancies Rhoij:
 Atom #  1 - L=3 ONLY
   0.14563   0.00000   0.07570   0.00000   0.00000   0.00000   0.00000   0.01400   0.00000   0.00725   0.00000   0.00000   0.00000   0.00000
   0.00000   0.29321   0.00000   0.00000   0.00000   0.00000   0.00000   0.00000   0.03037   0.00000   0.00000   0.00000   0.00000   0.00000
   0.07570   0.00000   0.10654   0.00000   0.00000   0.00000   0.00000   0.00725   0.00000   0.01026   0.00000   0.00000   0.00000   0.00000
   0.00000   0.00000   0.00000   0.20427   0.00000   0.00000   0.00000   0.00000   0.00000   0.00000   0.01961   0.00000   0.00000   0.00000
   0.00000   0.00000   0.00000   0.00000   0.10654   0.00000  -0.07570   0.00000   0.00000   0.00000   0.00000   0.01026   0.00000  -0.00725
   0.00000   0.00000   0.00000   0.00000   0.00000   0.04791   0.00000   0.00000   0.00000   0.00000   0.00000   0.00000   0.00464   0.00000
   0.00000   0.00000   0.00000   0.00000  -0.07570   0.00000   0.14563   0.00000   0.00000   0.00000   0.00000  -0.00725   0.00000   0.01400
   0.01400   0.00000   0.00725   0.00000   0.00000   0.00000   0.00000   0.00168   0.00000   0.00070   0.00000   0.00000   0.00000   0.00000
   0.00000   0.03037   0.00000   0.00000   0.00000   0.00000   0.00000   0.00000   0.00357   0.00000   0.00000   0.00000   0.00000   0.00000
   0.00725   0.00000   0.01026   0.00000   0.00000   0.00000   0.00000   0.00070   0.00000   0.00132   0.00000   0.00000   0.00000   0.00000
   0.00000   0.00000   0.00000   0.01961   0.00000   0.00000   0.00000   0.00000   0.00000   0.00000   0.00223   0.00000   0.00000   0.00000
   0.00000   0.00000   0.00000   0.00000   0.01026   0.00000  -0.00725   0.00000   0.00000   0.00000   0.00000   0.00132   0.00000  -0.00070
   0.00000   0.00000   0.00000   0.00000   0.00000   0.00464   0.00000   0.00000   0.00000   0.00000   0.00000   0.00000   0.00078   0.00000
   0.00000   0.00000   0.00000   0.00000  -0.00725   0.00000   0.01400   0.00000   0.00000   0.00000   0.00000  -0.00070   0.00000   0.00168

 ---------- LDA+U DATA --------------------------------------------------- 

 ====== For Atom     1, occupations for correlated orbitals. lpawu =   3


 == Occupation matrix for correlated orbitals:

 Up component only...
     0.06416    0.00000    0.03335    0.00000    0.00000    0.00000    0.00000
     0.00000    0.12862    0.00000    0.00000    0.00000    0.00000    0.00000
     0.03335    0.00000    0.04694    0.00000    0.00000    0.00000    0.00000
     0.00000    0.00000    0.00000    0.08999    0.00000    0.00000    0.00000
     0.00000    0.00000    0.00000    0.00000    0.04694    0.00000   -0.03335
     0.00000    0.00000    0.00000    0.00000    0.00000    0.02110    0.00000
     0.00000    0.00000    0.00000    0.00000   -0.03335    0.00000    0.06416



================================================================================

 ----iterations are completed or convergence reached----

 Mean square residual over all n,k,spin=   6.5752E-13; max=  1.2153E-11
  -0.1250 -0.2500  0.0000    1  3.57868E-12 kpt; spin; max resid(k); each band:
  2.42E-12 1.42E-13 6.79E-14 4.91E-14 7.10E-13 4.02E-13 1.55E-13 4.67E-13
  5.00E-14 9.17E-14 1.37E-13 3.03E-14 6.44E-13 1.10E-12 1.08E-12 9.28E-13
  1.48E-13 1.04E-12 1.45E-12 3.58E-12
  -0.1250  0.5000  0.0000    1  3.16348E-12 kpt; spin; max resid(k); each band:
  3.16E-12 3.63E-13 5.21E-14 2.35E-13 4.05E-13 2.61E-13 2.13E-13 6.92E-13
  6.80E-14 9.38E-14 5.40E-14 1.41E-14 1.14E-12 9.30E-13 3.46E-13 4.67E-14
  4.92E-13 1.05E-12 1.23E-12 2.01E-12
  -0.2500 -0.3750  0.0000    1  1.17426E-12 kpt; spin; max resid(k); each band:
  1.16E-12 2.82E-13 1.25E-13 2.07E-13 2.36E-13 1.62E-13 6.31E-13 1.47E-13
  1.39E-13 3.53E-13 2.80E-14 3.25E-14 5.89E-14 9.79E-13 4.24E-13 5.43E-13
  2.24E-13 7.19E-13 1.07E-12 1.17E-12
  -0.1250 -0.3750  0.1250    1  1.54811E-12 kpt; spin; max resid(k); each band:
  1.54E-12 3.47E-13 2.69E-13 6.77E-14 3.38E-13 2.50E-13 3.63E-13 2.73E-13
  1.30E-13 1.69E-13 3.34E-14 1.47E-13 8.80E-13 1.49E-12 8.87E-13 4.85E-13
  2.18E-13 9.40E-13 8.99E-13 1.55E-12
  -0.1250  0.2500  0.0000    1  2.85617E-12 kpt; spin; max resid(k); each band:
  2.08E-12 3.05E-13 7.27E-14 1.39E-14 6.25E-13 3.61E-13 4.24E-13 7.17E-14
  1.47E-13 1.12E-13 1.93E-13 2.01E-14 1.36E-12 2.86E-12 3.13E-13 1.15E-12
  3.46E-13 7.13E-13 1.47E-12 1.10E-12
  -0.2500  0.3750  0.0000    1  1.26093E-12 kpt; spin; max resid(k); each band:
  1.23E-12 3.43E-13 2.84E-13 3.84E-14 2.52E-13 5.35E-13 3.03E-13 6.56E-14
  8.44E-14 2.18E-13 6.88E-15 8.81E-14 9.40E-13 1.26E-12 9.59E-13 1.95E-13
  1.17E-12 7.16E-13 9.08E-13 1.07E-12
  -0.3750  0.5000  0.0000    1  1.21531E-11 kpt; spin; max resid(k); each band:
  3.87E-12 3.61E-13 1.98E-13 2.74E-13 1.40E-13 6.37E-14 3.16E-14 2.79E-13
  3.71E-13 2.00E-13 1.10E-14 1.70E-14 9.73E-15 5.20E-13 4.44E-13 7.52E-14
  4.61E-13 1.19E-12 9.01E-13 1.22E-11
  -0.2500  0.5000  0.1250    1  2.43745E-12 kpt; spin; max resid(k); each band:
  2.34E-12 3.54E-13 2.74E-13 1.40E-13 2.14E-13 3.97E-13 3.29E-13 2.14E-13
  1.22E-13 1.29E-13 1.94E-14 1.28E-13 1.35E-13 1.48E-12 4.51E-13 2.73E-13
  5.53E-13 6.96E-13 2.44E-12 1.23E-12
  -0.1250  0.0000  0.0000    1  3.74755E-12 kpt; spin; max resid(k); each band:
  2.26E-12 7.19E-14 5.89E-14 6.93E-14 8.76E-13 3.03E-13 2.10E-13 1.20E-13
  3.35E-13 9.41E-14 9.64E-14 6.02E-16 1.41E-12 5.58E-13 7.12E-13 3.93E-13
  3.14E-13 5.08E-13 1.70E-12 3.75E-12
  -0.3750  0.0000  0.0000    1  2.93993E-12 kpt; spin; max resid(k); each band:
  2.01E-12 3.58E-13 8.57E-14 1.27E-13 3.51E-13 2.13E-13 4.26E-13 3.29E-13
  1.44E-13 6.76E-14 7.41E-14 5.82E-16 4.99E-13 5.18E-13 1.18E-12 3.76E-13
  3.61E-13 2.94E-12 9.84E-13 1.22E-12
 reduced coordinates (array xred) for    1 atoms
       0.000000000000      0.000000000000      0.000000000000
 rms dE/dt=  0.0000E+00; max dE/dt=  0.0000E+00; dE/dt below (all hartree)
    1       0.000000000000      0.000000000000      0.000000000000

 cartesian coordinates (angstrom) at end:
    1      0.00000000000000     0.00000000000000     0.00000000000000

 cartesian forces (hartree/bohr) at end:
    1     -0.00000000000000    -0.00000000000000    -0.00000000000000
 frms,max,avg= 0.0000000E+00 0.0000000E+00   0.000E+00  0.000E+00  0.000E+00 h/b

 cartesian forces (eV/Angstrom) at end:
    1     -0.00000000000000    -0.00000000000000    -0.00000000000000
 frms,max,avg= 0.0000000E+00 0.0000000E+00   0.000E+00  0.000E+00  0.000E+00 e/A
 length scales=  9.127400000000  9.127400000000  9.127400000000 bohr
              =  4.830012053684  4.830012053684  4.830012053684 angstroms
 prteigrs : about to open file t92_MPI4o_DS1_EIG
 Fermi (or HOMO) energy (hartree) =   0.39519   Average Vxc (hartree)=  -0.40293
 Eigenvalues (hartree) for nkpt=  10  k points:
 kpt#   1, nband= 20, wtk=  0.09375, kpt= -0.1250 -0.2500  0.0000 (reduced coord)
  -0.87349  -0.23566  -0.20611  -0.20473   0.34338   0.37679   0.39817   0.41241
   0.41257   0.41697   0.41811   0.42643   0.44457   0.48813   0.50417   0.54856
   0.60523   0.84025   0.90887   0.98860
      occupation numbers for kpt#   1
   2.00000   2.00000   2.00000   2.00000   2.00000   1.99995   0.30555   0.00010
   0.00009   0.00001   0.00000   0.00000   0.00000   0.00000   0.00000   0.00000
   0.00000   0.00000   0.00000   0.00000
 kpt#   2, nband= 20, wtk=  0.09375, kpt= -0.1250  0.5000  0.0000 (reduced coord)
  -0.86442  -0.28102  -0.21653  -0.21050   0.33980   0.38359   0.40741   0.40971
   0.41911   0.42148   0.42573   0.42585   0.44340   0.47690   0.51921   0.67355
   0.69273   0.81267   0.84809   0.97868
      occupation numbers for kpt#   2
   2.00000   2.00000   2.00000   2.00000   2.00000   1.99747   0.00178   0.00047
   0.00000   0.00000   0.00000   0.00000   0.00000   0.00000   0.00000   0.00000
   0.00000   0.00000   0.00000   0.00000
 kpt#   3, nband= 20, wtk=  0.09375, kpt= -0.2500 -0.3750  0.0000 (reduced coord)
  -0.86616  -0.26013  -0.22087  -0.21755   0.34069   0.35712   0.40606   0.41376
   0.41529   0.41911   0.41982   0.42135   0.43193   0.50064   0.55896   0.62652
   0.65889   0.89005   0.96094   0.97253
      occupation numbers for kpt#   3
   2.00000   2.00000   2.00000   2.00000   2.00000   2.00000   0.00385   0.00005
   0.00002   0.00000   0.00000   0.00000   0.00000   0.00000   0.00000   0.00000
   0.00000   0.00000   0.00000   0.00000
 kpt#   4, nband= 20, wtk=  0.18750, kpt= -0.1250 -0.3750  0.1250 (reduced coord)
  -0.86451  -0.26778  -0.23001  -0.21263   0.36432   0.37826   0.39850   0.41121
   0.41445   0.42132   0.42296   0.42764   0.44487   0.46212   0.52732   0.61666
   0.73010   0.84990   0.89614   0.98527
      occupation numbers for kpt#   4
   2.00000   2.00000   2.00000   2.00000   2.00000   1.99988   0.25896   0.00020
   0.00003   0.00000   0.00000   0.00000   0.00000   0.00000   0.00000   0.00000
   0.00000   0.00000   0.00000   0.00000
 kpt#   5, nband= 20, wtk=  0.09375, kpt= -0.1250  0.2500  0.0000 (reduced coord)
  -0.86980  -0.25552  -0.21528  -0.20224   0.35171   0.39172   0.39796   0.41086
   0.41417   0.41655   0.41848   0.42878   0.45871   0.47166   0.49377   0.55884
   0.65768   0.81723   0.95823   0.98708
      occupation numbers for kpt#   5
   2.00000   2.00000   2.00000   2.00000   2.00000   1.76097   0.33893   0.00024
   0.00004   0.00001   0.00000   0.00000   0.00000   0.00000   0.00000   0.00000
   0.00000   0.00000   0.00000   0.00000
 kpt#   6, nband= 20, wtk=  0.09375, kpt= -0.2500  0.3750  0.0000 (reduced coord)
  -0.86227  -0.26959  -0.24240  -0.21398   0.35087   0.39419   0.40616   0.40956
   0.41537   0.41989   0.42643   0.42804   0.43721   0.48230   0.52373   0.63008
   0.73650   0.85523   0.91827   0.98728
      occupation numbers for kpt#   6
   2.00000   2.00000   2.00000   2.00000   2.00000   1.28065   0.00365   0.00051
   0.00002   0.00000   0.00000   0.00000   0.00000   0.00000   0.00000   0.00000
   0.00000   0.00000   0.00000   0.00000
 kpt#   7, nband= 20, wtk=  0.09375, kpt= -0.3750  0.5000  0.0000 (reduced coord)
  -0.86080  -0.27427  -0.23325  -0.22523   0.31310   0.33998   0.41107   0.41225
   0.41420   0.41741   0.42323   0.42343   0.42581   0.56822   0.62164   0.68983
   0.73220   0.81935   0.88721   0.97673
      occupation numbers for kpt#   7
   2.00000   2.00000   2.00000   2.00000   2.00000   2.00000   0.00022   0.00011
   0.00004   0.00001   0.00000   0.00000   0.00000   0.00000   0.00000   0.00000
   0.00000   0.00000   0.00000   0.00000
 kpt#   8, nband= 20, wtk=  0.18750, kpt= -0.2500  0.5000  0.1250 (reduced coord)
  -0.86074  -0.26618  -0.24594  -0.22450   0.34465   0.38378   0.40201   0.40859
   0.41613   0.41682   0.42540   0.42819   0.43187   0.48582   0.56216   0.66847
   0.79446   0.80825   0.92853   0.95295
      occupation numbers for kpt#   8
   2.00000   2.00000   2.00000   2.00000   2.00000   1.99718   0.03882   0.00090
   0.00001   0.00001   0.00000   0.00000   0.00000   0.00000   0.00000   0.00000
   0.00000   0.00000   0.00000   0.00000
 kpt#   9, nband= 20, wtk=  0.03125, kpt= -0.1250  0.0000  0.0000 (reduced coord)
  -0.87851  -0.21125  -0.19755  -0.19755   0.30416   0.38507   0.40601   0.40883
   0.40883   0.42284   0.42284   0.43133   0.45642   0.47327   0.47327   0.56678
   0.56678   0.81677   0.85964   0.95578
      occupation numbers for kpt#   9
   2.00000   2.00000   2.00000   2.00000   2.00000   1.99409   0.00396   0.00079
   0.00079   0.00000   0.00000   0.00000   0.00000   0.00000   0.00000   0.00000
   0.00000   0.00000   0.00000   0.00000
 kpt#  10, nband= 20, wtk=  0.03125, kpt= -0.3750  0.0000  0.0000 (reduced coord)
  -0.86754  -0.27454  -0.20563  -0.20563   0.32618   0.39470   0.40997   0.40997
   0.41626   0.42015   0.42015   0.43185   0.45968   0.45968   0.51937   0.63559
   0.63559   0.76868   0.94152   1.03856
      occupation numbers for kpt#  10
   2.00000   2.00000   2.00000   2.00000   2.00000   1.13938   0.00041   0.00041
   0.00001   0.00000   0.00000   0.00000   0.00000   0.00000   0.00000   0.00000
   0.00000   0.00000   0.00000   0.00000
 Total charge density [el/Bohr^3]
,     Maximum=    3.7206E-01  at reduced coord.    0.9583    0.9583    0.9583
,Next maximum=    3.7206E-01  at reduced coord.    0.1250    0.9583    0.9583
,     Minimum=    1.5864E-02  at reduced coord.    0.5000    0.5000    0.5000
,Next minimum=    1.5865E-02  at reduced coord.    0.5000    0.5000    0.4792
,  Integrated=    1.2000E+01

--------------------------------------------------------------------------------
 Components of total free energy (in Hartree) :

    Kinetic energy  =  9.78119735356820E+00
    Hartree energy  =  4.75277306572095E+00
    XC energy       = -5.15440051732056E+00
    Ewald energy    = -3.61669335556889E+01
    PspCore energy  =  1.64203904117001E+00
    Loc. psp. energy= -2.22208023429454E+01
    Spherical terms =  7.87274191875462E+00
    >>>>> Internal E= -3.94933850367411E+01

    -kT*entropy     = -1.04163110334112E-03
    >>>>>>>>> Etotal= -3.94944266678444E+01

 "Double-counting" decomposition of free energy:
    Band energy     = -1.69520240193024E+00
    Ewald energy    = -3.61669335556889E+01
    PspCore energy  =  1.64203904117001E+00
    Dble-C XC-energy= -3.18773377636132E+00
    Spherical terms = -8.54268456142711E-02
    >>>>> Internal E= -3.94932575384247E+01

    -kT*entropy     = -1.04163110334112E-03
    >>>> Etotal (DC)= -3.94942991695280E+01

  >Total energy in eV           = -1.07469800438933E+03
  >Total DC energy in eV        = -1.07469453498371E+03
--------------------------------------------------------------------------------

 Cartesian components of stress tensor (hartree/bohr^3)
  sigma(1 1)=  2.48948007E-04  sigma(3 2)=  0.00000000E+00
  sigma(2 2)=  2.48948007E-04  sigma(3 1)=  0.00000000E+00
  sigma(3 3)=  2.48948007E-04  sigma(2 1)=  0.00000000E+00

-Cartesian components of stress tensor (GPa)         [Pressure= -7.3243E+00 GPa]
- sigma(1 1)=  7.32430202E+00  sigma(3 2)=  0.00000000E+00
- sigma(2 2)=  7.32430202E+00  sigma(3 1)=  0.00000000E+00
- sigma(3 3)=  7.32430202E+00  sigma(2 1)=  0.00000000E+00

================================================================================
== DATASET  2 ==================================================================
-   nproc =    4

 mkfilename : getwfk/=0, take file _WFK from output of DATASET   1.

 Exchange-correlation functional for the present dataset will be:
  LDA: Perdew-Wang 92 LSD fit to Ceperley-Alder data - ixc=7
 Citation for XC functional:
  J.P.Perdew and Y.Wang, PRB 45, 13244 (1992)

 Real(R)+Recip(G) space primitive vectors, cartesian coordinates (Bohr,Bohr^-1):
 R(1)=  0.0000000  4.5637000  4.5637000  G(1)= -0.1095602  0.1095602  0.1095602
 R(2)=  4.5637000  0.0000000  4.5637000  G(2)=  0.1095602 -0.1095602  0.1095602
 R(3)=  4.5637000  4.5637000  0.0000000  G(3)=  0.1095602  0.1095602 -0.1095602
 Unit cell volume ucvol=  1.9009962E+02 bohr^3
 Angles (23,13,12)=  6.00000000E+01  6.00000000E+01  6.00000000E+01 degrees

 Coarse grid specifications (used for wave-functions):

 getcut: wavevector=  0.0000  0.0000  0.0000  ngfft=  24  24  24
         ecut(hartree)=     12.000   => boxcut(ratio)=   2.38464

 getcut : COMMENT -
  Note that boxcut > 2.2 ; recall that boxcut=Gcut(box)/Gcut(sphere) = 2
  is sufficient for exact treatment of convolution.
  Such a large boxcut is a waste : you could raise ecut
  e.g. ecut=   17.059570 Hartrees makes boxcut=2


 Fine grid specifications (used for densities):

 getcut: wavevector=  0.0000  0.0000  0.0000  ngfft=  48  48  48
         ecut(hartree)=     60.000   => boxcut(ratio)=   2.13289
--------------------------------------------------------------------------------

-inwffil : will read wavefunctions from disk file t92_MPI4o_DS1_WFK
P newkpt: treating     20 bands with npw=     370 for ikpt=   1 by node    0
P newkpt: treating     20 bands with npw=     379 for ikpt=   2 by node    0
P newkpt: treating     20 bands with npw=     376 for ikpt=   3 by node    0
P newkpt: treating     20 bands with npw=     378 for ikpt=   4 by node    1
P newkpt: treating     20 bands with npw=     372 for ikpt=   5 by node    1
P newkpt: treating     20 bands with npw=     380 for ikpt=   6 by node    1
P newkpt: treating     20 bands with npw=     374 for ikpt=   7 by node    2
P newkpt: treating     20 bands with npw=     382 for ikpt=   8 by node    2
P newkpt: treating     20 bands with npw=     362 for ikpt=   9 by node    2
P newkpt: treating     20 bands with npw=     368 for ikpt=  10 by node    3

_setup2: Arith. and geom. avg. npw (full set) are     376.344     376.313

       ( number of procs used in dmft ) =  4


 ******************************************
 DFT+DMFT Method is used
 ******************************************

 DMFT uses the Continuous Time Quantum Monte Carlo solver

================================================================================

     iter   Etot(hartree)      deltaE(h)  residm     nres2
 (Edmft  1   0.02172163410)

  == The DMFT occupations are  ==

   -------> For Correlated Atom   1

          -- polarization spin component  1
        0.06692  -0.00000   0.03369  -0.00000   0.00000   0.00000   0.00000
       -0.00000   0.13469  -0.00000   0.00000   0.00000   0.00000  -0.00000
        0.03369   0.00000   0.04953   0.00000  -0.00000   0.00000   0.00000
       -0.00000   0.00000  -0.00000   0.09302   0.00000   0.00000  -0.00000
       -0.00000   0.00000   0.00000  -0.00000   0.04953  -0.00000  -0.03369
       -0.00000   0.00000   0.00000  -0.00000  -0.00000   0.02343   0.00000
        0.00000   0.00000  -0.00000   0.00000  -0.03369   0.00000   0.06692
 ETOT  1  -39.462774809788    -3.946E+01 1.092E-11 5.959E-04
 (Edmft  2   0.02131946235)

  == The DMFT occupations are  ==

   -------> For Correlated Atom   1

          -- polarization spin component  1
        0.06665  -0.00000   0.03162  -0.00000  -0.00000   0.00000  -0.00000
       -0.00000   0.13266  -0.00000   0.00000   0.00000  -0.00000   0.00000
        0.03162  -0.00000   0.05032   0.00000  -0.00000   0.00000   0.00000
       -0.00000   0.00000   0.00000   0.09114   0.00000   0.00000  -0.00000
        0.00000   0.00000  -0.00000   0.00000   0.05032  -0.00000  -0.03162
       -0.00000   0.00000   0.00000   0.00000  -0.00000   0.02582  -0.00000
       -0.00000   0.00000   0.00000  -0.00000  -0.03162   0.00000   0.06665
 ETOT  2  -39.459853568608     2.921E-03 2.482E-10 9.227E-04

 Cartesian components of stress tensor (hartree/bohr^3)
  sigma(1 1)=  3.50593135E-04  sigma(3 2)=  0.00000000E+00
  sigma(2 2)=  3.50593135E-04  sigma(3 1)=  0.00000000E+00
  sigma(3 3)=  3.50593135E-04  sigma(2 1)=  0.00000000E+00


 scprqt:  WARNING -
  nstep=    2 was not enough SCF cycles to converge;
  density residual=  9.227E-04 exceeds tolvrs=  1.000E-10


 PAW TEST:
 ==== Compensation charge inside spheres ============
 The following values must be close to each other ...
 Compensation charge over spherical meshes =     -0.476447566240722
 Compensation charge over fine fft grid    =     -0.480994097846634

 ==== Results concerning PAW augmentation regions ====

 Total pseudopotential strength Dij (hartree):
   2.47063  -0.82040   0.00000   0.00000   0.00000   0.00000   0.00000   0.00000   0.00000   0.00000   0.00000   0.00000 ...
  -0.82040   0.27771   0.00000   0.00000   0.00000   0.00000   0.00000   0.00000   0.00000   0.00000   0.00000   0.00000 ...
   0.00000   0.00000   0.61941   0.00000   0.00000  -0.60609   0.00000   0.00000   0.00000   0.00000   0.00000   0.00000 ...
   0.00000   0.00000   0.00000   0.61941   0.00000   0.00000  -0.60609   0.00000   0.00000   0.00000   0.00000   0.00000 ...
   0.00000   0.00000   0.00000   0.00000   0.61941   0.00000   0.00000  -0.60609   0.00000   0.00000   0.00000   0.00000 ...
   0.00000   0.00000  -0.60609   0.00000   0.00000   0.80034   0.00000   0.00000   0.00000   0.00000   0.00000   0.00000 ...
   0.00000   0.00000   0.00000  -0.60609   0.00000   0.00000   0.80034   0.00000   0.00000   0.00000   0.00000   0.00000 ...
   0.00000   0.00000   0.00000   0.00000  -0.60609   0.00000   0.00000   0.80034   0.00000   0.00000   0.00000   0.00000 ...
   0.00000   0.00000   0.00000   0.00000   0.00000   0.00000   0.00000   0.00000   0.13351   0.00000   0.00000   0.00000 ...
   0.00000   0.00000   0.00000   0.00000   0.00000   0.00000   0.00000   0.00000   0.00000   0.13351   0.00000   0.00000 ...
   0.00000   0.00000   0.00000   0.00000   0.00000   0.00000   0.00000   0.00000   0.00000   0.00000   0.13346   0.00000 ...
   0.00000   0.00000   0.00000   0.00000   0.00000   0.00000   0.00000   0.00000   0.00000   0.00000   0.00000   0.13351 ...
   ...  only 12  components have been written...


 Augmentation waves occupancies Rhoij:
   1.97250  -0.07046   0.00000   0.00000   0.00000   0.00000   0.00000   0.00000   0.00000   0.00000   0.00000   0.00000 ...
  -0.07046   1.14895   0.00000   0.00000   0.00000   0.00000   0.00000   0.00000   0.00000   0.00000   0.00000   0.00000 ...
   0.00000   0.00000   1.96864   0.00000   0.00000  -0.00253   0.00000   0.00000   0.00000   0.00000   0.00000   0.00000 ...
   0.00000   0.00000   0.00000   1.96864   0.00000   0.00000  -0.00253   0.00000   0.00000   0.00000   0.00000   0.00000 ...
   0.00000   0.00000   0.00000   0.00000   1.96864   0.00000   0.00000  -0.00253   0.00000   0.00000   0.00000   0.00000 ...
   0.00000   0.00000  -0.00253   0.00000   0.00000   0.00572   0.00000   0.00000   0.00000   0.00000   0.00000   0.00000 ...
   0.00000   0.00000   0.00000  -0.00253   0.00000   0.00000   0.00572   0.00000   0.00000   0.00000   0.00000   0.00000 ...
   0.00000   0.00000   0.00000   0.00000  -0.00253   0.00000   0.00000   0.00572   0.00000   0.00000   0.00000   0.00000 ...
   0.00000   0.00000   0.00000   0.00000   0.00000   0.00000   0.00000   0.00000   0.47566   0.00000   0.00000   0.00000 ...
   0.00000   0.00000   0.00000   0.00000   0.00000   0.00000   0.00000   0.00000   0.00000   0.47566   0.00000   0.00000 ...
   0.00000   0.00000   0.00000   0.00000   0.00000   0.00000   0.00000   0.00000   0.00000   0.00000   0.40236   0.00000 ...
   0.00000   0.00000   0.00000   0.00000   0.00000   0.00000   0.00000   0.00000   0.00000   0.00000   0.00000   0.47566 ...
   ...  only 12  components have been written...

 "PAW+U" part of augmentation waves occupancies Rhoij:
 Atom #  1 - L=3 ONLY
   0.14123   0.00000   0.06718   0.00000   0.00000   0.00000   0.00000   0.01175   0.00000   0.00611   0.00000   0.00000   0.00000   0.00000
   0.00000   0.28220   0.00000   0.00000   0.00000   0.00000   0.00000   0.00000   0.02591   0.00000   0.00000   0.00000   0.00000   0.00000
   0.06718   0.00000   0.10654   0.00000   0.00000   0.00000   0.00000   0.00611   0.00000   0.00860   0.00000   0.00000   0.00000   0.00000
   0.00000   0.00000   0.00000   0.19327   0.00000   0.00000   0.00000   0.00000   0.00000   0.00000   0.01648   0.00000   0.00000   0.00000
   0.00000   0.00000   0.00000   0.00000   0.10654   0.00000  -0.06718   0.00000   0.00000   0.00000   0.00000   0.00860   0.00000  -0.00611
   0.00000   0.00000   0.00000   0.00000   0.00000   0.05450   0.00000   0.00000   0.00000   0.00000   0.00000   0.00000   0.00386   0.00000
   0.00000   0.00000   0.00000   0.00000  -0.06718   0.00000   0.14123   0.00000   0.00000   0.00000   0.00000  -0.00611   0.00000   0.01175
   0.01175   0.00000   0.00611   0.00000   0.00000   0.00000   0.00000   0.00186   0.00000   0.00068   0.00000   0.00000   0.00000   0.00000
   0.00000   0.02591   0.00000   0.00000   0.00000   0.00000   0.00000   0.00000   0.00369   0.00000   0.00000   0.00000   0.00000   0.00000
   0.00611   0.00000   0.00860   0.00000   0.00000   0.00000   0.00000   0.00068   0.00000   0.00151   0.00000   0.00000   0.00000   0.00000
   0.00000   0.00000   0.00000   0.01648   0.00000   0.00000   0.00000   0.00000   0.00000   0.00000   0.00238   0.00000   0.00000   0.00000
   0.00000   0.00000   0.00000   0.00000   0.00860   0.00000  -0.00611   0.00000   0.00000   0.00000   0.00000   0.00151   0.00000  -0.00068
   0.00000   0.00000   0.00000   0.00000   0.00000   0.00386   0.00000   0.00000   0.00000   0.00000   0.00000   0.00000   0.00098   0.00000
   0.00000   0.00000   0.00000   0.00000  -0.00611   0.00000   0.01175   0.00000   0.00000   0.00000   0.00000  -0.00068   0.00000   0.00186

 ---------- LDA+U DATA --------------------------------------------------- 

 ====== For Atom     1, occupations for correlated orbitals. lpawu =   3


 == Occupation matrix for correlated orbitals:

 Up component only...
     0.06269    0.00000    0.02968    0.00000    0.00000    0.00000    0.00000
     0.00000    0.12464    0.00000    0.00000    0.00000    0.00000    0.00000
     0.02968    0.00000    0.04736    0.00000    0.00000    0.00000    0.00000
     0.00000    0.00000    0.00000    0.08568    0.00000    0.00000    0.00000
     0.00000    0.00000    0.00000    0.00000    0.04736    0.00000   -0.02968
     0.00000    0.00000    0.00000    0.00000    0.00000    0.02437    0.00000
     0.00000    0.00000    0.00000    0.00000   -0.02968    0.00000    0.06269



================================================================================

 ----iterations are completed or convergence reached----

 Mean square residual over all n,k,spin=   9.3727E-12; max=  2.4818E-10
  -0.1250 -0.2500  0.0000    1  2.64257E-11 kpt; spin; max resid(k); each band:
  1.50E-11 1.61E-13 9.34E-14 6.44E-14 2.42E-11 4.05E-12 6.68E-12 1.34E-12
  8.45E-13 8.88E-12 3.51E-12 5.17E-12 6.11E-12 4.20E-12 6.28E-13 2.67E-12
  4.24E-12 2.95E-12 2.64E-11 8.76E-12
  -0.1250  0.5000  0.0000    1  3.28384E-11 kpt; spin; max resid(k); each band:
  5.11E-12 4.45E-13 7.58E-14 1.49E-13 3.28E-11 2.19E-12 6.89E-12 2.29E-12
  6.18E-12 2.52E-12 6.72E-12 6.47E-13 1.09E-11 2.96E-12 4.14E-12 7.15E-13
  8.46E-12 3.51E-12 1.74E-11 4.43E-12
  -0.2500 -0.3750  0.0000    1  3.39268E-11 kpt; spin; max resid(k); each band:
  4.81E-12 6.64E-13 1.07E-13 1.44E-13 1.62E-11 2.06E-11 3.56E-12 3.94E-13
  2.85E-12 5.87E-12 1.18E-12 3.04E-12 7.85E-12 6.83E-12 1.80E-12 1.82E-12
  1.59E-11 1.87E-11 3.39E-11 2.43E-11
  -0.1250 -0.3750  0.1250    1  2.48182E-10 kpt; spin; max resid(k); each band:
  1.26E-11 5.09E-13 1.81E-13 8.62E-14 1.80E-11 1.35E-11 1.05E-11 1.09E-11
  3.73E-12 7.99E-12 8.07E-13 7.02E-12 4.24E-12 6.41E-12 1.94E-12 2.87E-12
  1.68E-11 1.37E-11 7.12E-12 2.48E-10
  -0.1250  0.2500  0.0000    1  9.79271E-11 kpt; spin; max resid(k); each band:
  7.20E-12 5.98E-13 3.41E-14 7.74E-14 2.00E-11 7.03E-12 7.96E-12 2.38E-12
  2.43E-12 2.10E-12 8.74E-12 1.03E-13 4.00E-12 2.80E-12 1.07E-12 1.17E-12
  8.84E-12 2.24E-12 9.79E-11 1.11E-11
  -0.2500  0.3750  0.0000    1  9.79591E-11 kpt; spin; max resid(k); each band:
  7.38E-12 3.43E-13 2.11E-13 7.77E-14 1.22E-11 1.13E-11 2.86E-12 2.30E-12
  3.79E-12 6.94E-12 5.97E-14 6.48E-12 2.16E-12 9.92E-12 2.51E-12 2.22E-12
  4.89E-12 3.46E-11 3.31E-12 9.80E-11
  -0.3750  0.5000  0.0000    1  8.53145E-11 kpt; spin; max resid(k); each band:
  2.00E-11 3.67E-13 1.09E-13 1.61E-13 1.52E-11 1.13E-11 1.92E-13 6.39E-13
  2.78E-12 3.41E-12 2.40E-13 2.10E-12 1.21E-12 2.96E-12 1.34E-11 6.59E-12
  5.37E-12 1.32E-11 1.26E-12 8.53E-11
  -0.2500  0.5000  0.1250    1  1.13979E-10 kpt; spin; max resid(k); each band:
  1.24E-11 4.30E-13 2.19E-13 1.64E-13 4.88E-12 7.39E-12 3.91E-12 2.55E-12
  4.27E-12 6.79E-12 3.44E-13 2.38E-12 5.44E-12 2.20E-12 5.28E-12 6.15E-12
  1.59E-11 1.65E-11 1.88E-11 1.14E-10
  -0.1250  0.0000  0.0000    1  1.53518E-11 kpt; spin; max resid(k); each band:
  5.19E-12 3.79E-14 1.06E-13 1.07E-13 1.54E-11 1.83E-12 4.86E-12 2.81E-12
  1.57E-12 6.72E-13 5.76E-13 2.75E-17 3.98E-13 5.54E-13 6.60E-13 1.28E-11
  6.55E-12 5.18E-13 8.16E-12 5.61E-13
  -0.3750  0.0000  0.0000    1  9.30962E-11 kpt; spin; max resid(k); each band:
  9.03E-12 4.56E-13 1.13E-13 1.14E-13 3.77E-11 2.87E-13 5.87E-13 3.34E-12
  4.89E-12 2.63E-12 2.11E-12 2.40E-17 9.64E-13 8.95E-13 4.97E-12 2.31E-11
  6.44E-12 1.14E-12 9.31E-11 2.27E-12
 reduced coordinates (array xred) for    1 atoms
       0.000000000000      0.000000000000      0.000000000000
 rms dE/dt=  0.0000E+00; max dE/dt=  0.0000E+00; dE/dt below (all hartree)
    1       0.000000000000      0.000000000000      0.000000000000

 cartesian coordinates (angstrom) at end:
    1      0.00000000000000     0.00000000000000     0.00000000000000

 cartesian forces (hartree/bohr) at end:
    1     -0.00000000000000    -0.00000000000000    -0.00000000000000
 frms,max,avg= 0.0000000E+00 0.0000000E+00   0.000E+00  0.000E+00  0.000E+00 h/b

 cartesian forces (eV/Angstrom) at end:
    1     -0.00000000000000    -0.00000000000000    -0.00000000000000
 frms,max,avg= 0.0000000E+00 0.0000000E+00   0.000E+00  0.000E+00  0.000E+00 e/A
 length scales=  9.127400000000  9.127400000000  9.127400000000 bohr
              =  4.830012053684  4.830012053684  4.830012053684 angstroms
 prteigrs : about to open file t92_MPI4o_DS2_EIG
 Fermi (or HOMO) energy (hartree) =   0.39507   Average Vxc (hartree)=  -0.40293
 Eigenvalues (hartree) for nkpt=  10  k points:
 kpt#   1, nband= 20, wtk=  0.09375, kpt= -0.1250 -0.2500  0.0000 (reduced coord)
  -0.87358  -0.23573  -0.20618  -0.20480   0.34336   0.37671   0.39802   0.41223
   0.41240   0.41680   0.41795   0.42625   0.44446   0.48807   0.50412   0.54851
   0.60519   0.84023   0.90884   0.98858
      occupation numbers for kpt#   1
   2.00000   2.00000   2.00000   2.00000   1.99430   1.84924   0.30741   0.03756
   0.03705   0.01138   0.01438   0.01058   0.01962   0.00331   0.00173   0.00192
   0.00157   0.00313   0.00339   0.00370
 kpt#   2, nband= 20, wtk=  0.09375, kpt= -0.1250  0.5000  0.0000 (reduced coord)
  -0.86451  -0.28108  -0.21661  -0.21057   0.33978   0.38348   0.40724   0.40954
   0.41894   0.42132   0.42555   0.42566   0.44331   0.47685   0.51917   0.67351
   0.69270   0.81263   0.84806   0.97864
      occupation numbers for kpt#   2
   2.00000   2.00000   2.00000   2.00000   1.99589   1.73611   0.02914   0.02132
   0.04649   0.01110   0.02680   0.02590   0.01111   0.00188   0.00171   0.00166
   0.00204   0.00307   0.00288   0.00370
 kpt#   3, nband= 20, wtk=  0.09375, kpt= -0.2500 -0.3750  0.0000 (reduced coord)
  -0.86625  -0.26019  -0.22094  -0.21762   0.34066   0.35708   0.40591   0.41358
   0.41512   0.41894   0.41964   0.42117   0.43177   0.50058   0.55891   0.62648
   0.65885   0.89003   0.96090   0.97250
      occupation numbers for kpt#   3
   2.00000   2.00000   2.00000   2.00000   1.98621   1.96696   0.04261   0.01436
   0.02024   0.02637   0.03065   0.02397   0.03505   0.00323   0.00179   0.00182
   0.00168   0.00315   0.00347   0.00354
 kpt#   4, nband= 20, wtk=  0.18750, kpt= -0.1250 -0.3750  0.1250 (reduced coord)
  -0.86461  -0.26784  -0.23008  -0.21270   0.36428   0.37819   0.39838   0.41103
   0.41429   0.42115   0.42278   0.42747   0.44475   0.46205   0.52728   0.61662
   0.73006   0.84987   0.89611   0.98523
      occupation numbers for kpt#   4
   2.00000   2.00000   2.00000   2.00000   1.95696   1.86775   0.28006   0.01855
   0.01978   0.03238   0.03094   0.02212   0.01825   0.00572   0.00178   0.00179
   0.00201   0.00297   0.00329   0.00358
 kpt#   5, nband= 20, wtk=  0.09375, kpt= -0.1250  0.2500  0.0000 (reduced coord)
  -0.86989  -0.25558  -0.21535  -0.20231   0.35168   0.39159   0.39783   0.41070
   0.41401   0.41637   0.41832   0.42859   0.45864   0.47160   0.49372   0.55879
   0.65763   0.81720   0.95820   0.98706
      occupation numbers for kpt#   5
   2.00000   2.00000   2.00000   2.00000   1.98280   1.27300   0.35926   0.02454
   0.02183   0.03268   0.01958   0.01320   0.00861   0.00480   0.00240   0.00195
   0.00174   0.00309   0.00354   0.00364
 kpt#   6, nband= 20, wtk=  0.09375, kpt= -0.2500  0.3750  0.0000 (reduced coord)
  -0.86236  -0.26965  -0.24246  -0.21405   0.35084   0.39409   0.40599   0.40939
   0.41520   0.41975   0.42624   0.42787   0.43709   0.48226   0.52368   0.63004
   0.73647   0.85520   0.91824   0.98724
      occupation numbers for kpt#   6
   2.00000   2.00000   2.00000   2.00000   1.97048   1.07168   0.03613   0.01943
   0.01324   0.03736   0.02785   0.02776   0.01702   0.00292   0.00181   0.00181
   0.00249   0.00284   0.00331   0.00356
 kpt#   7, nband= 20, wtk=  0.09375, kpt= -0.3750  0.5000  0.0000 (reduced coord)
  -0.86090  -0.27433  -0.23332  -0.22530   0.31309   0.33996   0.41089   0.41208
   0.41403   0.41724   0.42305   0.42325   0.42563   0.56818   0.62160   0.68978
   0.73216   0.81932   0.88718   0.97669
      occupation numbers for kpt#   7
   2.00000   2.00000   2.00000   2.00000   1.99737   1.99452   0.01682   0.01988
   0.01388   0.03106   0.03017   0.02962   0.04411   0.00182   0.00172   0.00177
   0.00218   0.00280   0.00314   0.00348
 kpt#   8, nband= 20, wtk=  0.18750, kpt= -0.2500  0.5000  0.1250 (reduced coord)
  -0.86083  -0.26624  -0.24600  -0.22456   0.34462   0.38372   0.40187   0.40843
   0.41596   0.41665   0.42521   0.42801   0.43172   0.48576   0.56212   0.66843
   0.79442   0.80821   0.92849   0.95292
      occupation numbers for kpt#   8
   2.00000   2.00000   2.00000   2.00000   1.98388   1.89743   0.08862   0.02320
   0.01741   0.03136   0.03860   0.02752   0.02552   0.00328   0.00185   0.00187
   0.00264   0.00259   0.00326   0.00341
 kpt#   9, nband= 20, wtk=  0.03125, kpt= -0.1250  0.0000  0.0000 (reduced coord)
  -0.87860  -0.21132  -0.19762  -0.19762   0.30414   0.38494   0.40584   0.40866
   0.40866   0.42268   0.42268   0.43114   0.45636   0.47323   0.47323   0.56674
   0.56674   0.81674   0.85962   0.95575
      occupation numbers for kpt#   9
   2.00000   2.00000   2.00000   2.00000   1.99940   1.65560   0.05901   0.04622
   0.04619   0.00934   0.00934   0.00923   0.00616   0.00148   0.00148   0.00138
   0.00138   0.00338   0.00318   0.00360
 kpt#  10, nband= 20, wtk=  0.03125, kpt= -0.3750  0.0000  0.0000 (reduced coord)
  -0.86763  -0.27460  -0.20570  -0.20570   0.32616   0.39455   0.40980   0.40980
   0.41609   0.41998   0.41998   0.43166   0.45964   0.45964   0.51933   0.63555
   0.63555   0.76864   0.94148   1.03853
      occupation numbers for kpt#  10
   2.00000   2.00000   2.00000   2.00000   1.99680   0.71880   0.02266   0.02266
   0.04800   0.02571   0.02571   0.00919   0.00251   0.00251   0.00226   0.00170
   0.00170   0.00324   0.00327   0.00396
 Total charge density [el/Bohr^3]
,     Maximum=    3.7210E-01  at reduced coord.    0.9583    0.9583    0.9583
,Next maximum=    3.7210E-01  at reduced coord.    0.1250    0.9583    0.9583
,     Minimum=    1.5909E-02  at reduced coord.    0.5000    0.5000    0.5000
,Next minimum=    1.5911E-02  at reduced coord.    0.5000    0.5000    0.4792
,  Integrated=    1.2000E+01

--------------------------------------------------------------------------------
 Components of total free energy (in Hartree) :

    Kinetic energy  =  9.79184560341334E+00
    Hartree energy  =  4.75219139518181E+00
    XC energy       = -5.15429723599677E+00
    Ewald energy    = -3.61669335556889E+01
    PspCore energy  =  1.64203904117001E+00
    Loc. psp. energy= -2.22193093050580E+01
    Spherical terms =  7.89282033052914E+00
    >>>>> Internal E= -3.94616437264494E+01

    -kT*entropy     = -1.04428841075738E-03
    >>>>>>>>> Etotal= -3.94626880148601E+01

 "Double-counting" decomposition of free energy:
    Band energy     = -1.68286687800541E+00
    Ewald energy    = -3.61669335556889E+01
    PspCore energy  =  1.64203904117001E+00
    Dble-C XC-energy= -3.18718491780377E+00
    Spherical terms = -6.38629698687598E-02
    >>>>> Internal E= -3.94588092801968E+01

    -kT*entropy     = -1.04428841075738E-03
    >>>> Etotal (DC)= -3.94598535686076E+01

  >Total energy in eV           = -1.07383435171978E+03
  >Total DC energy in eV        = -1.07375722251477E+03
--------------------------------------------------------------------------------

 Cartesian components of stress tensor (hartree/bohr^3)
  sigma(1 1)=  3.50593135E-04  sigma(3 2)=  0.00000000E+00
  sigma(2 2)=  3.50593135E-04  sigma(3 1)=  0.00000000E+00
  sigma(3 3)=  3.50593135E-04  sigma(2 1)=  0.00000000E+00

-Cartesian components of stress tensor (GPa)         [Pressure= -1.0315E+01 GPa]
- sigma(1 1)=  1.03148044E+01  sigma(3 2)=  0.00000000E+00
- sigma(2 2)=  1.03148044E+01  sigma(3 1)=  0.00000000E+00
- sigma(3 3)=  1.03148044E+01  sigma(2 1)=  0.00000000E+00

== END DATASET(S) ==============================================================
================================================================================
  
 -outvars: echo values of variables after computation  --------
            acell      9.1274000000E+00  9.1274000000E+00  9.1274000000E+00 Bohr
              amu      1.40115000E+02
           diemix      1.00000000E-01
        dmatpuopt           1
        dmftbandf1          0
        dmftbandf2         20
        dmftbandi1          0
        dmftbandi2          5
        dmft_iter1          0
        dmft_iter2          1
        dmft_mxsf1     3.0000000000E-01
        dmft_mxsf2     1.0000000000E-01
        dmft_nwli1          0
        dmft_nwli2      10000
        dmft_nwlo1          0
        dmft_nwlo2        100
  dmft_read_occnd1          0
  dmft_read_occnd2          1
        dmft_rslf1          0
        dmft_rslf2          1
             ecut      1.20000000E+01 Hartree
           etotal1    -3.9494299170E+01
           etotal2    -3.9459853569E+01
            fcart1    -0.0000000000E+00 -0.0000000000E+00 -0.0000000000E+00
            fcart2    -0.0000000000E+00 -0.0000000000E+00 -0.0000000000E+00
-          fftalg         112
           getwfk          -1
              ixc           7
           jdtset        1    2
              kpt     -1.25000000E-01 -2.50000000E-01  0.00000000E+00
                      -1.25000000E-01  5.00000000E-01  0.00000000E+00
                      -2.50000000E-01 -3.75000000E-01  0.00000000E+00
                      -1.25000000E-01 -3.75000000E-01  1.25000000E-01
                      -1.25000000E-01  2.50000000E-01  0.00000000E+00
                      -2.50000000E-01  3.75000000E-01  0.00000000E+00
                      -3.75000000E-01  5.00000000E-01  0.00000000E+00
                      -2.50000000E-01  5.00000000E-01  1.25000000E-01
                      -1.25000000E-01  0.00000000E+00  0.00000000E+00
                      -3.75000000E-01  0.00000000E+00  0.00000000E+00
           kptopt           4
         kptrlatt        4   -4    4     -4    4    4     -4   -4    4
          kptrlen      3.65096000E+01
            lpawu           3
P           mkmem           3
            natom           1
            nband          20
           ndtset           2
            ngfft          24      24      24
          ngfftdg          48      48      48
             nkpt          10
            nstep1         30
            nstep2          2
             nsym          48
           ntypat           1
              occ1     2.000000  2.000000  2.000000  2.000000  2.000000  1.999949
                       0.305552  0.000100  0.000091  0.000007  0.000004  0.000000
                       0.000000  0.000000  0.000000  0.000000  0.000000  0.000000
                       0.000000  0.000000
                       2.000000  2.000000  2.000000  2.000000  2.000000  1.997465
                       0.001780  0.000473  0.000002  0.000001  0.000000  0.000000
                       0.000000  0.000000  0.000000  0.000000  0.000000  0.000000
                       0.000000  0.000000
                       2.000000  2.000000  2.000000  2.000000  2.000000  2.000000
                       0.003853  0.000046  0.000019  0.000002  0.000001  0.000001
                       0.000000  0.000000  0.000000  0.000000  0.000000  0.000000
                       0.000000  0.000000
                       2.000000  2.000000  2.000000  2.000000  2.000000  1.999882
                       0.258959  0.000200  0.000031  0.000001  0.000000  0.000000
                       0.000000  0.000000  0.000000  0.000000  0.000000  0.000000
                       0.000000  0.000000
                       2.000000  2.000000  2.000000  2.000000  2.000000  1.760973
                       0.338927  0.000244  0.000036  0.000009  0.000003  0.000000
                       0.000000  0.000000  0.000000  0.000000  0.000000  0.000000
                       0.000000  0.000000
                       2.000000  2.000000  2.000000  2.000000  2.000000  1.280652
                       0.003649  0.000515  0.000018  0.000001  0.000000  0.000000
                       0.000000  0.000000  0.000000  0.000000  0.000000  0.000000
                       0.000000  0.000000
                       2.000000  2.000000  2.000000  2.000000  2.000000  2.000000
                       0.000217  0.000110  0.000036  0.000006  0.000000  0.000000
                       0.000000  0.000000  0.000000  0.000000  0.000000  0.000000
                       0.000000  0.000000
                       2.000000  2.000000  2.000000  2.000000  2.000000  1.997179
                       0.038819  0.000899  0.000012  0.000008  0.000000  0.000000
                       0.000000  0.000000  0.000000  0.000000  0.000000  0.000000
                       0.000000  0.000000
                       2.000000  2.000000  2.000000  2.000000  2.000000  1.994090
                       0.003957  0.000786  0.000786  0.000000  0.000000  0.000000
                       0.000000  0.000000  0.000000  0.000000  0.000000  0.000000
                       0.000000  0.000000
                       2.000000  2.000000  2.000000  2.000000  2.000000  1.139383
                       0.000407  0.000407  0.000011  0.000001  0.000001  0.000000
                       0.000000  0.000000  0.000000  0.000000  0.000000  0.000000
                       0.000000  0.000000
              occ2     2.000000  2.000000  2.000000  2.000000  1.994303  1.849243
                       0.307408  0.037562  0.037048  0.011382  0.014379  0.010582
                       0.019617  0.003307  0.001725  0.001925  0.001570  0.003127
                       0.003389  0.003704
                       2.000000  2.000000  2.000000  2.000000  1.995888  1.736110
                       0.029143  0.021324  0.046494  0.011102  0.026798  0.025897
                       0.011113  0.001881  0.001708  0.001661  0.002037  0.003071
                       0.002885  0.003698
                       2.000000  2.000000  2.000000  2.000000  1.986211  1.966958
                       0.042610  0.014365  0.020242  0.026374  0.030646  0.023973
                       0.035054  0.003227  0.001792  0.001824  0.001678  0.003147
                       0.003466  0.003539
                       2.000000  2.000000  2.000000  2.000000  1.956963  1.867750
                       0.280056  0.018549  0.019783  0.032377  0.030936  0.022122
                       0.018254  0.005725  0.001783  0.001794  0.002009  0.002967
                       0.003289  0.003583
                       2.000000  2.000000  2.000000  2.000000  1.982797  1.272998
                       0.359262  0.024542  0.021833  0.032676  0.019576  0.013199
                       0.008610  0.004796  0.002404  0.001947  0.001738  0.003091
                       0.003543  0.003637
                       2.000000  2.000000  2.000000  2.000000  1.970483  1.071682
                       0.036133  0.019429  0.013237  0.037361  0.027852  0.027762
                       0.017022  0.002920  0.001805  0.001806  0.002486  0.002841
                       0.003306  0.003563
                       2.000000  2.000000  2.000000  2.000000  1.997372  1.994524
                       0.016817  0.019878  0.013876  0.031063  0.030174  0.029620
                       0.044114  0.001824  0.001719  0.001769  0.002181  0.002800
                       0.003136  0.003481
                       2.000000  2.000000  2.000000  2.000000  1.983878  1.897434
                       0.088625  0.023205  0.017410  0.031356  0.038603  0.027515
                       0.025522  0.003282  0.001853  0.001866  0.002639  0.002592
                       0.003260  0.003412
                       2.000000  2.000000  2.000000  2.000000  1.999395  1.655601
                       0.059012  0.046218  0.046192  0.009341  0.009341  0.009232
                       0.006159  0.001476  0.001476  0.001377  0.001377  0.003384
                       0.003181  0.003597
                       2.000000  2.000000  2.000000  2.000000  1.996798  0.718797
                       0.022655  0.022657  0.047998  0.025705  0.025706  0.009190
                       0.002511  0.002511  0.002258  0.001703  0.001703  0.003244
                       0.003275  0.003963
           occopt           3
-      paral_atom           0
        pawecutdg      6.00000000E+01 Hartree
        pawprtvol           3
           prtvol           4
            rprim      0.0000000000E+00  5.0000000000E-01  5.0000000000E-01
                       5.0000000000E-01  0.0000000000E+00  5.0000000000E-01
                       5.0000000000E-01  5.0000000000E-01  0.0000000000E+00
           shiftk      5.00000000E-01  5.00000000E-01  5.00000000E-01
          spgroup         225
           strten1     2.4894800749E-04  2.4894800749E-04  2.4894800749E-04
                       0.0000000000E+00  0.0000000000E+00  0.0000000000E+00
           strten2     3.5059313543E-04  3.5059313543E-04  3.5059313543E-04
                       0.0000000000E+00  0.0000000000E+00  0.0000000000E+00
           symrel      1  0  0   0  1  0   0  0  1      -1  0  0   0 -1  0   0  0 -1
                       0 -1  1   0 -1  0   1 -1  0       0  1 -1   0  1  0  -1  1  0
                      -1  0  0  -1  0  1  -1  1  0       1  0  0   1  0 -1   1 -1  0
                       0  1 -1   1  0 -1   0  0 -1       0 -1  1  -1  0  1   0  0  1
                      -1  0  0  -1  1  0  -1  0  1       1  0  0   1 -1  0   1  0 -1
                       0 -1  1   1 -1  0   0 -1  0       0  1 -1  -1  1  0   0  1  0
                       1  0  0   0  0  1   0  1  0      -1  0  0   0  0 -1   0 -1  0
                       0  1 -1   0  0 -1   1  0 -1       0 -1  1   0  0  1  -1  0  1
                      -1  0  1  -1  1  0  -1  0  0       1  0 -1   1 -1  0   1  0  0
                       0 -1  0   1 -1  0   0 -1  1       0  1  0  -1  1  0   0  1 -1
                       1  0 -1   0  0 -1   0  1 -1      -1  0  1   0  0  1   0 -1  1
                       0  1  0   0  0  1   1  0  0       0 -1  0   0  0 -1  -1  0  0
                       1  0 -1   0  1 -1   0  0 -1      -1  0  1   0 -1  1   0  0  1
                       0 -1  0   0 -1  1   1 -1  0       0  1  0   0  1 -1  -1  1  0
                      -1  0  1  -1  0  0  -1  1  0       1  0 -1   1  0  0   1 -1  0
                       0  1  0   1  0  0   0  0  1       0 -1  0  -1  0  0   0  0 -1
                       0  0 -1   0  1 -1   1  0 -1       0  0  1   0 -1  1  -1  0  1
                       1 -1  0   0 -1  1   0 -1  0      -1  1  0   0  1 -1   0  1  0
                       0  0  1   1  0  0   0  1  0       0  0 -1  -1  0  0   0 -1  0
                      -1  1  0  -1  0  0  -1  0  1       1 -1  0   1  0  0   1  0 -1
                       0  0  1   0  1  0   1  0  0       0  0 -1   0 -1  0  -1  0  0
                       1 -1  0   0 -1  0   0 -1  1      -1  1  0   0  1  0   0  1 -1
                       0  0 -1   1  0 -1   0  1 -1       0  0  1  -1  0  1   0 -1  1
                      -1  1  0  -1  0  1  -1  0  0       1 -1  0   1  0 -1   1  0  0
           tolvrs      1.00000000E-10
           tsmear      1.73918086E-03 Hartree
            typat      1
            upawu1     0.00000000E+00 Hartree
            upawu2     2.20495952E-01 Hartree
          usedmft1          0
          usedmft2          1
          usepawu1          1
          usepawu2         10
           useylm           1
              wtk        0.09375    0.09375    0.09375    0.18750    0.09375    0.09375
                         0.09375    0.18750    0.03125    0.03125
            znucl       58.00000

================================================================================


- Timing analysis has been suppressed with timopt=0



================================================================================

 Suggested references for the acknowledgment of ABINIT usage.

 The users of ABINIT have little formal obligations with respect to the ABINIT group
 (those specified in the GNU General Public License, http://www.gnu.org/copyleft/gpl.txt).
 However, it is common practice in the scientific literature,
 to acknowledge the efforts of people that have made the research possible.
 In this spirit, please find below suggested citations of work written by ABINIT developers,
 corresponding to implementations inside of ABINIT that you have used in the present run.
 Note also that it will be of great value to readers of publications presenting these results,
 to read papers enabling them to understand the theoretical formalism and details
 of the ABINIT implementation.
 For information on why they are suggested, see also http://www.abinit.org/about/?text=acknowledgments.

 [1] A self-consistent DFT + DMFT scheme in the projector augmented wave method: 
 applications to cerium, Ce2O3 and Pu2O3 with the Hubbard I solver and comparison to DFT + U,
 B. Amadon,  J. Phys.: Condens. Matter 24 075604 (2012).
 Comment : Describes the self-consistent implementation of DFT+DMFT in PAW

 [2] Plane-wave based electronic strcture calculations for correlated materials.
 using dynamical mean-field theory and projected local orbitals,
 B. Amadon, F. Lechermann, A. Georges, F. Jollet, T.O. Wehling, A.I. Lichenstein,
 Phys. Rev. B 77, 205112 (2008).
 Comment : to be cited in case the computation of overlap operator for Wannier90 interface within PAW is used,
 i.e. prtwant=2 and usepaw=1. The paper describes also the DFT+DMFT implementation on Wannier functions

 [3] Gamma and beta cerium: LDA+U calculations of ground-state parameters.
 B. Amadon, F. Jollet and M. Torrent, Phys. Rev. B 77, 155104 (2008).
 Comment : LDA+U calculations, usepawu/=0. Strong suggestion to cite this paper.

 [4] Implementation of the Projector Augmented-Wave Method in the ABINIT code.
 M. Torrent, F. Jollet, F. Bottin, G. Zerah, and X. Gonze Comput. Mat. Science 42, 337, (2008).
 Comment : PAW calculations. Strong suggestion to cite this paper.

 [5] ABINIT : First-principles approach of materials and nanosystem properties.
 X. Gonze, B. Amadon, P.-M. Anglade, J.-M. Beuken, F. Bottin, P. Boulanger, F. Bruneval,
 D. Caliste, R. Caracas, M. Cote, T. Deutsch, L. Genovese, Ph. Ghosez, M. Giantomassi
 S. Goedecker, D.R. Hamann, P. Hermet, F. Jollet, G. Jomard, S. Leroux, M. Mancini, S. Mazevet,
 M.J.T. Oliveira, G. Onida, Y. Pouillon, T. Rangel, G.-M. Rignanese, D. Sangalli, R. Shaltaf,
 M. Torrent, M.J. Verstraete, G. Zerah, J.W. Zwanziger
 Computer Phys. Comm. 180, 2582-2615 (2009).
 Comment : the third generic paper describing the ABINIT project.
 Note that a version of this paper, that is not formatted for Computer Phys. Comm. 
 is available at http://www.abinit.org/about/ABINIT_CPC_v10.pdf .
 The licence allows the authors to put it on the Web.

 [6] A brief introduction to the ABINIT software package.
 X. Gonze, G.-M. Rignanese, M. Verstraete, J.-M. Beuken, Y. Pouillon, R. Caracas, F. Jollet,
 M. Torrent, G. Zerah, M. Mikami, Ph. Ghosez, M. Veithen, J.-Y. Raty, V. Olevano, F. Bruneval,
 L. Reining, R. Godby, G. Onida, D.R. Hamann, and D.C. Allan.
 Z. Kristallogr. 220, 558-562 (2005).
 Comment : the second generic paper describing the ABINIT project. Note that this paper
 should be cited especially if you are using the GW part of ABINIT, as several authors
 of this part are not in the list of authors of the first or third paper.
 The .pdf of the latter paper is available at http://www.abinit.org/about/zfk_0505-06_558-562.pdf.
 Note that it should not redistributed (Copyright by Oldenburg Wissenshaftverlag,
 the licence allows the authors to put it on the Web).
-
- Proc.   0 individual time (sec): cpu=         80.1  wall=         80.1

================================================================================

 Calculation completed.
.Delivered    4 WARNINGs and   2 COMMENTs to log file.
+Overall time at end (sec) : cpu=        320.1  wall=        320.4
