
 **** DERIVATIVE DATABASE ****    
+DDB, Version number    100401

 DDB for GaAs, 2.0Ha, 2SP in the IBZ. For testing purposes only.                                                                                                                                                                                                         

    usepaw         0
     natom         2
      nkpt        32
    nsppol         1
      nsym        24
    ntypat         2
    occopt         1
     nband         4
     acell  0.10600000000000D+02  0.10600000000000D+02  0.10600000000000D+02
       amu  0.69720000000000D+02  0.74921600000000D+02
   dilatmx  0.10000000000000D+01
      ecut  0.10000000000000D+01
    ecutsm  0.00000000000000D+00
     intxc         0
      iscf         3
       ixc         3
       kpt -0.25000000000000D+00  0.50000000000000D+00  0.00000000000000D+00
            0.50000000000000D+00 -0.25000000000000D+00  0.00000000000000D+00
           -0.25000000000000D+00 -0.25000000000000D+00  0.25000000000000D+00
           -0.25000000000000D+00  0.00000000000000D+00  0.00000000000000D+00
            0.50000000000000D+00  0.25000000000000D+00  0.00000000000000D+00
           -0.25000000000000D+00  0.25000000000000D+00  0.25000000000000D+00
            0.25000000000000D+00  0.50000000000000D+00  0.00000000000000D+00
            0.50000000000000D+00  0.50000000000000D+00  0.25000000000000D+00
           -0.25000000000000D+00  0.50000000000000D+00  0.50000000000000D+00
            0.00000000000000D+00 -0.25000000000000D+00  0.00000000000000D+00
            0.25000000000000D+00 -0.25000000000000D+00  0.25000000000000D+00
            0.50000000000000D+00 -0.25000000000000D+00  0.50000000000000D+00
           -0.25000000000000D+00 -0.25000000000000D+00 -0.25000000000000D+00
            0.25000000000000D+00  0.00000000000000D+00  0.00000000000000D+00
            0.50000000000000D+00  0.00000000000000D+00  0.25000000000000D+00
           -0.25000000000000D+00  0.00000000000000D+00  0.50000000000000D+00
            0.00000000000000D+00  0.25000000000000D+00  0.00000000000000D+00
            0.25000000000000D+00  0.25000000000000D+00  0.25000000000000D+00
            0.50000000000000D+00  0.25000000000000D+00  0.50000000000000D+00
           -0.25000000000000D+00  0.25000000000000D+00 -0.25000000000000D+00
            0.00000000000000D+00  0.50000000000000D+00  0.25000000000000D+00
            0.25000000000000D+00  0.50000000000000D+00  0.50000000000000D+00
            0.50000000000000D+00  0.50000000000000D+00 -0.25000000000000D+00
            0.00000000000000D+00 -0.25000000000000D+00  0.50000000000000D+00
            0.25000000000000D+00 -0.25000000000000D+00 -0.25000000000000D+00
            0.00000000000000D+00  0.00000000000000D+00  0.25000000000000D+00
            0.25000000000000D+00  0.00000000000000D+00  0.50000000000000D+00
            0.50000000000000D+00  0.00000000000000D+00 -0.25000000000000D+00
            0.00000000000000D+00  0.25000000000000D+00  0.50000000000000D+00
            0.25000000000000D+00  0.25000000000000D+00 -0.25000000000000D+00
            0.00000000000000D+00  0.50000000000000D+00 -0.25000000000000D+00
            0.00000000000000D+00  0.00000000000000D+00 -0.25000000000000D+00
    kptnrm  0.10000000000000D+01
     ngfft         8    8    8
    nspden         1
   nspinor         1
       occ  0.20000000000000D+01  0.20000000000000D+01  0.20000000000000D+01
            0.20000000000000D+01
     rprim  0.00000000000000D+00  0.50000000000000D+00  0.50000000000000D+00
            0.50000000000000D+00  0.00000000000000D+00  0.50000000000000D+00
            0.50000000000000D+00  0.50000000000000D+00  0.00000000000000D+00
     sciss  0.00000000000000D+00
    spinat  0.00000000000000D+00  0.00000000000000D+00  0.00000000000000D+00
            0.00000000000000D+00  0.00000000000000D+00  0.00000000000000D+00
    symafm         1    1    1    1    1    1    1    1    1    1    1    1
                   1    1    1    1    1    1    1    1    1    1    1    1
    symrel         1    0    0    0    1    0    0    0    1
                   0    1   -1    1    0   -1    0    0   -1
                   0   -1    1    0   -1    0    1   -1    0
                  -1    0    0   -1    0    1   -1    1    0
                   0    1    0    0    0    1    1    0    0
                   1    0   -1    0    0   -1    0    1   -1
                   0   -1    0    1   -1    0    0   -1    1
                  -1    0    1   -1    1    0   -1    0    0
                   0    0    1    1    0    0    0    1    0
                   0    0   -1    0    1   -1    1    0   -1
                   1   -1    0    0   -1    1    0   -1    0
                  -1    1    0   -1    0    0   -1    0    1
                   1    0   -1    0    1   -1    0    0   -1
                   0    1    0    1    0    0    0    0    1
                  -1    0    1   -1    0    0   -1    1    0
                   0   -1    0    0   -1    1    1   -1    0
                  -1    1    0   -1    0    1   -1    0    0
                   1   -1    0    0   -1    0    0   -1    1
                   0    0   -1    1    0   -1    0    1   -1
                   0    0    1    0    1    0    1    0    0
                   0   -1    1    1   -1    0    0   -1    0
                  -1    0    0   -1    1    0   -1    0    1
                   1    0    0    0    0    1    0    1    0
                   0    1   -1    0    0   -1    1    0   -1
     tnons  0.00000000000000D+00  0.00000000000000D+00  0.00000000000000D+00
            0.00000000000000D+00  0.00000000000000D+00  0.00000000000000D+00
            0.00000000000000D+00  0.00000000000000D+00  0.00000000000000D+00
            0.00000000000000D+00  0.00000000000000D+00  0.00000000000000D+00
            0.00000000000000D+00  0.00000000000000D+00  0.00000000000000D+00
            0.00000000000000D+00  0.00000000000000D+00  0.00000000000000D+00
            0.00000000000000D+00  0.00000000000000D+00  0.00000000000000D+00
            0.00000000000000D+00  0.00000000000000D+00  0.00000000000000D+00
            0.00000000000000D+00  0.00000000000000D+00  0.00000000000000D+00
            0.00000000000000D+00  0.00000000000000D+00  0.00000000000000D+00
            0.00000000000000D+00  0.00000000000000D+00  0.00000000000000D+00
            0.00000000000000D+00  0.00000000000000D+00  0.00000000000000D+00
            0.00000000000000D+00  0.00000000000000D+00  0.00000000000000D+00
            0.00000000000000D+00  0.00000000000000D+00  0.00000000000000D+00
            0.00000000000000D+00  0.00000000000000D+00  0.00000000000000D+00
            0.00000000000000D+00  0.00000000000000D+00  0.00000000000000D+00
            0.00000000000000D+00  0.00000000000000D+00  0.00000000000000D+00
            0.00000000000000D+00  0.00000000000000D+00  0.00000000000000D+00
            0.00000000000000D+00  0.00000000000000D+00  0.00000000000000D+00
            0.00000000000000D+00  0.00000000000000D+00  0.00000000000000D+00
            0.00000000000000D+00  0.00000000000000D+00  0.00000000000000D+00
            0.00000000000000D+00  0.00000000000000D+00  0.00000000000000D+00
            0.00000000000000D+00  0.00000000000000D+00  0.00000000000000D+00
            0.00000000000000D+00  0.00000000000000D+00  0.00000000000000D+00
    tolwfr  0.10000000000000D+01
   tphysel  0.00000000000000D+00
    tsmear  0.40000000000000D-01
     typat         1    2
       wtk  0.31250000000000D-01  0.31250000000000D-01  0.31250000000000D-01
            0.31250000000000D-01  0.31250000000000D-01  0.31250000000000D-01
            0.31250000000000D-01  0.31250000000000D-01  0.31250000000000D-01
            0.31250000000000D-01  0.31250000000000D-01  0.31250000000000D-01
            0.31250000000000D-01  0.31250000000000D-01  0.31250000000000D-01
            0.31250000000000D-01  0.31250000000000D-01  0.31250000000000D-01
            0.31250000000000D-01  0.31250000000000D-01  0.31250000000000D-01
            0.31250000000000D-01  0.31250000000000D-01  0.31250000000000D-01
            0.31250000000000D-01  0.31250000000000D-01  0.31250000000000D-01
            0.31250000000000D-01  0.31250000000000D-01  0.31250000000000D-01
            0.31250000000000D-01  0.31250000000000D-01
      xred  0.00000000000000D+00  0.00000000000000D+00  0.00000000000000D+00
            0.25000000000000D+00  0.25000000000000D+00  0.25000000000000D+00
     znucl  0.31000000000000D+02  0.33000000000000D+02
      zion  0.30000000000000D+01  0.50000000000000D+01
 
  Description of the potentials (KB energies)
  vrsio8 (for pseudopotentials)=100401
  usepaw =  0
  dimekb =  2       lmnmax=  2
  Atom type=    1   pspso=  0   nekb=   2
  iln lpsang iproj  ekb(:)
     1     0     1     9.3973393E+00  0.0000000E+00
     2     1     1     0.0000000E+00 -5.2572534E-01
  Atom type=    2   pspso=  0   nekb=   2
  iln lpsang iproj  ekb(:)
     1     0     1     9.0194587E+00  0.0000000E+00
     2     1     1     0.0000000E+00 -9.0827370E-01
 
 **** Database of total energy derivatives ****
 Number of data blocks=    3
  
 2nd derivatives (non-stat.)  - # elements :      81
 qpt  0.00000000E+00  0.00000000E+00  0.00000000E+00   1.0
   1   1   1   1  0.16786640706116D+02  0.00000000000000D+00
   2   1   1   1  0.83933203530578D+01  0.00000000000000D+00
   3   1   1   1  0.83933203530578D+01  0.00000000000000D+00
   1   2   1   1 -0.16787006431467D+02  0.10225447770531D-16
   2   2   1   1 -0.83935032157336D+01  0.16619099400161D-17
   3   2   1   1 -0.83935032157336D+01  0.44932481609398D-17
   1   4   1   1 -0.12195106153198D+02  0.00000000000000D+00
   2   4   1   1 -0.66358684357137D-16  0.00000000000000D+00
   3   4   1   1 -0.74014868308344D-16  0.00000000000000D+00
   1   1   2   1  0.83933203530578D+01  0.00000000000000D+00
   2   1   2   1  0.16786640706116D+02  0.00000000000000D+00
   3   1   2   1  0.83933203530578D+01  0.00000000000000D+00
   1   2   2   1 -0.83935032157336D+01  0.16619099400161D-17
   2   2   2   1 -0.16787006431467D+02 -0.89350875496732D-17
   3   2   2   1 -0.83935032157336D+01 -0.50877556297596D-17
   1   4   2   1 -0.11153196817704D-16  0.00000000000000D+00
   2   4   2   1 -0.12195106153198D+02  0.00000000000000D+00
   3   4   2   1  0.74014868308344D-16  0.00000000000000D+00
   1   1   3   1  0.83933203530578D+01  0.00000000000000D+00
   2   1   3   1  0.83933203530578D+01  0.00000000000000D+00
   3   1   3   1  0.16786640706116D+02  0.00000000000000D+00
   1   2   3   1 -0.83935032157336D+01  0.44932481609398D-17
   2   2   3   1 -0.83935032157336D+01 -0.50877556297596D-17
   3   2   3   1 -0.16787006431467D+02  0.13127608358110D-16
   1   4   3   1  0.84143033233497D-17  0.00000000000000D+00
   2   4   3   1  0.61393413306086D-16  0.00000000000000D+00
   3   4   3   1 -0.12195106153198D+02  0.00000000000000D+00
   1   1   1   2 -0.16787006407968D+02 -0.10225447770531D-16
   2   1   1   2 -0.83935032039838D+01 -0.16619099400161D-17
   3   1   1   2 -0.83935032039838D+01 -0.44932481609398D-17
   1   2   1   2  0.16786671032277D+02  0.00000000000000D+00
   2   2   1   2  0.83933355161387D+01  0.00000000000000D+00
   3   2   1   2  0.83933355161387D+01  0.00000000000000D+00
   1   4   1   2 -0.37173883328782D+02  0.00000000000000D+00
   2   4   1   2 -0.20719007990624D-15  0.00000000000000D+00
   3   4   1   2 -0.29605947323338D-15  0.00000000000000D+00
   1   1   2   2 -0.83935032039838D+01 -0.16619099400161D-17
   2   1   2   2 -0.16787006407968D+02  0.89350875496732D-17
   3   1   2   2 -0.83935032039838D+01  0.50877556297596D-17
   1   2   2   2  0.83933355161387D+01  0.00000000000000D+00
   2   2   2   2  0.16786671032277D+02  0.00000000000000D+00
   3   2   2   2  0.83933355161387D+01  0.00000000000000D+00
   1   4   2   2 -0.26493529364044D-15  0.00000000000000D+00
   2   4   2   2 -0.37173883328782D+02  0.00000000000000D+00
   3   4   2   2  0.00000000000000D+00  0.00000000000000D+00
   1   1   3   2 -0.83935032039838D+01 -0.44932481609398D-17
   2   1   3   2 -0.83935032039838D+01  0.50877556297596D-17
   3   1   3   2 -0.16787006407968D+02 -0.13127608358110D-16
   1   2   3   2  0.83933355161387D+01  0.00000000000000D+00
   2   2   3   2  0.83933355161387D+01  0.00000000000000D+00
   3   2   3   2  0.16786671032277D+02  0.00000000000000D+00
   1   4   3   2  0.70564408445092D-16  0.00000000000000D+00
   2   4   3   2  0.19021286055820D-15  0.00000000000000D+00
   3   4   3   2 -0.37173883328782D+02  0.00000000000000D+00
   1   1   1   4 -0.12195106068208D+02  0.00000000000000D+00
   2   1   1   4 -0.53737229423811D-16  0.00000000000000D+00
   3   1   1   4  0.84143033233497D-17  0.00000000000000D+00
   1   2   1   4 -0.37173883161781D+02  0.00000000000000D+00
   2   2   1   4 -0.10134346721598D-15  0.00000000000000D+00
   3   2   1   4 -0.22549506478828D-15  0.00000000000000D+00
   1   4   1   4 -0.11918327910050D+03  0.00000000000000D+00
   2   4   1   4  0.39727759700167D+02  0.00000000000000D+00
   3   4   1   4  0.39727759700167D+02  0.00000000000000D+00
   1   1   2   4  0.76561839167412D-17  0.00000000000000D+00
   2   1   2   4 -0.12195106068208D+02  0.00000000000000D+00
   3   1   2   4 -0.12621455002258D-16  0.00000000000000D+00
   1   2   2   4  0.88869393327139D-16  0.00000000000000D+00
   2   2   2   4 -0.37173883161781D+02  0.00000000000000D+00
   3   2   2   4 -0.10584661267518D-15  0.00000000000000D+00
   1   4   2   4  0.39727759700167D+02  0.00000000000000D+00
   2   4   2   4 -0.11918327910050D+03  0.00000000000000D+00
   3   4   2   4  0.39727759700167D+02  0.00000000000000D+00
   1   1   3   4  0.00000000000000D+00  0.00000000000000D+00
   2   1   3   4  0.42584032588874D-16  0.00000000000000D+00
   3   1   3   4 -0.12195106068208D+02  0.00000000000000D+00
   1   2   3   4 -0.29605947323338D-15  0.00000000000000D+00
   2   2   3   4  0.13246764681645D-15  0.00000000000000D+00
   3   2   3   4 -0.37173883161781D+02  0.00000000000000D+00
   1   4   3   4  0.39727759700167D+02  0.00000000000000D+00
   2   4   3   4  0.39727759700167D+02  0.00000000000000D+00
   3   4   3   4 -0.11918327910050D+03  0.00000000000000D+00
  
 2nd derivatives (non-stat.)  - # elements :      36
 qpt  2.50000000E-01  2.50000000E-01  2.50000000E-01   1.0
   1   1   1   1  0.18464026720547D+02  0.26015913355211D-16
   2   1   1   1  0.96663350393872D+01  0.58040239671398D-17
   3   1   1   1  0.96663350393872D+01 -0.50978206499456D-16
   1   2   1   1 -0.79405617047889D+01 -0.87864433960021D+01
   2   2   1   1 -0.78594197897220D+01 -0.86909792598759D+00
   3   2   1   1 -0.78594197897220D+01 -0.86909792598760D+00
   1   1   2   1  0.96663350393872D+01  0.58040239671398D-17
   2   1   2   1  0.18464026720547D+02 -0.52494158446408D-16
   3   1   2   1  0.96663350393872D+01  0.22560236684443D-16
   1   2   2   1 -0.78594197897220D+01 -0.86909792598760D+00
   2   2   2   1 -0.79405617047889D+01 -0.87864433960021D+01
   3   2   2   1 -0.78594197897220D+01 -0.86909792598760D+00
   1   1   3   1  0.96663350393872D+01 -0.50978206499456D-16
   2   1   3   1  0.96663350393872D+01  0.22560236684443D-16
   3   1   3   1  0.18464026720547D+02  0.28227580029536D-16
   1   2   3   1 -0.78594197897220D+01 -0.86909792598759D+00
   2   2   3   1 -0.78594197897220D+01 -0.86909792598760D+00
   3   2   3   1 -0.79405617047889D+01 -0.87864433960021D+01
   1   1   1   2 -0.79405618764876D+01  0.87864444424174D+01
   2   1   1   2 -0.78594197897220D+01  0.86909792598760D+00
   3   1   1   2 -0.78594197897220D+01  0.86909792598759D+00
   1   2   1   2  0.17566297077204D+02  0.72266425986697D-16
   2   2   1   2  0.86095271199981D+01  0.16122288797611D-16
   3   2   1   2  0.86095271199981D+01 -0.14160612916516D-15
   1   1   2   2 -0.78594197897220D+01  0.86909792598759D+00
   2   1   2   2 -0.79405618764876D+01  0.87864444424174D+01
   3   1   2   2 -0.78594197897220D+01  0.86909792598760D+00
   1   2   2   2  0.86095271199981D+01  0.16122288797611D-16
   2   2   2   2  0.17566297077204D+02 -0.14581710679558D-15
   3   2   2   2  0.86095271199981D+01  0.62667324123453D-16
   1   1   3   2 -0.78594197897220D+01  0.86909792598760D+00
   2   1   3   2 -0.78594197897220D+01  0.86909792598760D+00
   3   1   3   2 -0.79405618764876D+01  0.87864444424174D+01
   1   2   3   2  0.86095271199981D+01 -0.14160612916516D-15
   2   2   3   2  0.86095271199981D+01  0.62667324123453D-16
   3   2   3   2  0.17566297077204D+02  0.78409944526488D-16
  
 2nd derivatives (non-stat.)  - # elements :      36
 qpt  2.50000000E-01  5.00000000E-01  5.00000000E-01   1.0
   1   1   1   1  0.17565771373911D+02  0.44948595745593D-16
   2   1   1   1  0.89508600892672D+01  0.39463268963670D+00
   3   1   1   1  0.89508600892672D+01  0.39463268963670D+00
   1   2   1   1 -0.74742568141563D+01 -0.78677038244608D+01
   2   2   1   1 -0.75961498599641D+01 -0.28107208931190D+00
   3   2   1   1 -0.75961498599641D+01 -0.28107208931190D+00
   1   1   2   1  0.89508601064068D+01 -0.39463264613063D+00
   2   1   2   1  0.18459284968599D+02 -0.23398672021242D-17
   3   1   2   1  0.98120544230865D+01 -0.87560023319681D-17
   1   2   2   1 -0.75199550201374D+01 -0.19226673532293D+00
   2   2   2   1  0.43333479850457D+00 -0.46402373672787D+00
   3   2   2   1 -0.73120171629244D+01 -0.34317575273006D+00
   1   1   3   1  0.89508601064068D+01 -0.39463264613063D+00
   2   1   3   1  0.98120544230865D+01 -0.87560023319681D-17
   3   1   3   1  0.18459284968599D+02  0.36572007114888D-17
   1   2   3   1 -0.75199550201375D+01 -0.19226673532293D+00
   2   2   3   1 -0.73120171629244D+01 -0.34317575273006D+00
   3   2   3   1  0.43333479850457D+00 -0.46402373672787D+00
   1   1   1   2 -0.74742567698907D+01  0.78677038240638D+01
   2   1   1   2 -0.75199550377028D+01  0.19226671522299D+00
   3   1   1   2 -0.75199550377029D+01  0.19226671522299D+00
   1   2   1   2  0.16637052869574D+02  0.12485721040443D-15
   2   2   1   2  0.79309838277815D+01 -0.64876944039402D+00
   3   2   1   2  0.79309838277815D+01 -0.64876944039402D+00
   1   1   2   2 -0.75961498263857D+01  0.28107207405135D+00
   2   1   2   2  0.43333477006678D+00  0.46402369478562D+00
   3   1   2   2 -0.73120171629244D+01  0.34317575273006D+00
   1   2   2   2  0.79309838527313D+01  0.64876942153729D+00
   2   2   2   2  0.16304357375455D+02 -0.64996311170116D-17
   3   2   2   2  0.77241894113611D+01 -0.24322228699911D-16
   1   1   3   2 -0.75961498263857D+01  0.28107207405135D+00
   2   1   3   2 -0.73120171629244D+01  0.34317575273006D+00
   3   1   3   2  0.43333477006679D+00  0.46402369478561D+00
   1   2   3   2  0.79309838527313D+01  0.64876942153729D+00
   2   2   3   2  0.77241894113611D+01 -0.24322228699911D-16
   3   2   3   2  0.16304357375455D+02  0.10158890865247D-16

 List of bloks and their characteristics 
  
 2nd derivatives (non-stat.)  - # elements :      81
 qpt  0.00000000E+00  0.00000000E+00  0.00000000E+00   1.0
  
 2nd derivatives (non-stat.)  - # elements :      36
 qpt  2.50000000E-01  2.50000000E-01  2.50000000E-01   1.0
  
 2nd derivatives (non-stat.)  - # elements :      36
 qpt  2.50000000E-01  5.00000000E-01  5.00000000E-01   1.0
