
.Version 7.9.3 of ABINIT 
.(MPI version, prepared for a x86_64_linux_gnu4.7 computer) 

.Copyright (C) 1998-2014 ABINIT group . 
 ABINIT comes with ABSOLUTELY NO WARRANTY.
 It is free software, and you are welcome to redistribute it
 under certain conditions (GNU General Public License,
 see ~abinit/COPYING or http://www.gnu.org/copyleft/gpl.txt).

 ABINIT is a project of the Universite Catholique de Louvain,
 Corning Inc. and other collaborators, see ~abinit/doc/developers/contributors.txt .
 Please read ~abinit/doc/users/acknowledgments.html for suggested
 acknowledgments of the ABINIT effort.
 For more information, see http://www.abinit.org .

.Starting date : Sat 30 Aug 2014.
- ( at 22h31 )
  
- input  file    -> t36.in
- output file    -> t36.out
- root for input  files -> t36i
- root for output files -> t36o


 DATASET    1 : space group P1 (#  1); Bravais aP (primitive triclinic)
================================================================================
 Values of the parameters that define the memory need for DATASET  1.
   intxc =         0  ionmov =         0    iscf =         5 xclevel =         1
  lmnmax =         3   lnmax =         3   mband =         5  mffmem =         1
P  mgfft =        24   mkmem =         2 mpssoang=         3     mpw =       182
  mqgrid =      3001   natom =         2    nfft =      6144    nkpt =         2
  nloalg =         4  nspden =         1 nspinor =         1  nsppol =         1
    nsym =         1  n1xccc =         0  ntypat =         1  occopt =         4
================================================================================
P This job should need less than                       2.540 Mbytes of memory.
  Rough estimation (10% accuracy) of disk space for files :
_ WF disk file :      0.030 Mbytes ; DEN or POT disk file :      0.049 Mbytes.
================================================================================


 DATASET    2 : space group P1 (#  1); Bravais aP (primitive triclinic)
================================================================================
 Values of the parameters that define the memory need for DATASET  2.
   intxc =         0  ionmov =         0    iscf =        -2 xclevel =         1
  lmnmax =         3   lnmax =         3   mband =         5  mffmem =         1
P  mgfft =        24   mkmem =         2 mpssoang=         3     mpw =       359
  mqgrid =      3001   natom =         2    nfft =      6144    nkpt =         2
  nloalg =         4  nspden =         1 nspinor =         1  nsppol =         1
    nsym =         1  n1xccc =         0  ntypat =         1  occopt =         4
================================================================================
P This job should need less than                       2.160 Mbytes of memory.
  Rough estimation (10% accuracy) of disk space for files :
_ WF disk file :      0.057 Mbytes ; DEN or POT disk file :      0.049 Mbytes.
================================================================================


 DATASET    3 : space group P1 (#  1); Bravais aP (primitive triclinic)
================================================================================
 Values of the parameters that define the memory need for DATASET  3 (RF).
   intxc =         0    iscf =         3 xclevel =         1  lmnmax =         3
   lnmax =         3   mband =         5  mffmem =         1   mgfft =        24
P  mkmem =         2  mkqmem =         2  mk1mem =         2 mpssoang=         3
     mpw =       364  mqgrid =      3001   natom =         2    nfft =      6144
    nkpt =         2  nloalg =         4  nspden =         1 nspinor =         1
  nsppol =         1    nsym =         1  n1xccc =         0  ntypat =         1
  occopt =         4
================================================================================
P This job should need less than                       3.412 Mbytes of memory.
  Rough estimation (10% accuracy) of disk space for files :
_ WF disk file :      0.058 Mbytes ; DEN or POT disk file :      0.049 Mbytes.
================================================================================


 DATASET    4 : space group P1 (#  1); Bravais aP (primitive triclinic)
================================================================================
 Values of the parameters that define the memory need for DATASET  4.
   intxc =         0  ionmov =         0    iscf =         5 xclevel =         1
  lmnmax =         3   lnmax =         3   mband =        10  mffmem =         1
P  mgfft =        48   mkmem =         1 mpssoang=         3     mpw =       362
  mqgrid =      3001   natom =         4    nfft =     12288    nkpt =         1
  nloalg =         4  nspden =         1 nspinor =         1  nsppol =         1
    nsym =         1  n1xccc =         0  ntypat =         1  occopt =         4
================================================================================
P This job should need less than                       3.887 Mbytes of memory.
  Rough estimation (10% accuracy) of disk space for files :
_ WF disk file :      0.057 Mbytes ; DEN or POT disk file :      0.096 Mbytes.
================================================================================


 DATASET    5 : space group P1 (#  1); Bravais aP (primitive triclinic)
================================================================================
 Values of the parameters that define the memory need for DATASET  5.
   intxc =         0  ionmov =         0    iscf =         5 xclevel =         1
  lmnmax =         3   lnmax =         3   mband =        10  mffmem =         1
P  mgfft =        48   mkmem =         1 mpssoang=         3     mpw =       362
  mqgrid =      3001   natom =         4    nfft =     12288    nkpt =         1
  nloalg =         4  nspden =         1 nspinor =         1  nsppol =         1
    nsym =         1  n1xccc =         0  ntypat =         1  occopt =         4
================================================================================
P This job should need less than                       3.887 Mbytes of memory.
  Rough estimation (10% accuracy) of disk space for files :
_ WF disk file :      0.057 Mbytes ; DEN or POT disk file :      0.096 Mbytes.
================================================================================

--------------------------------------------------------------------------------
------------- Echo of variables that govern the present computation ------------
--------------------------------------------------------------------------------
-
- outvars: echo of selected default values                                      
-   accesswff0 =  0 , fftalg0 =112 , wfoptalg0 =  0
-
- outvars: echo of global parameters not present in the input file              
-  max_nthreads =    0
-
 -outvars: echo values of preprocessed input variables --------
            acell1     1.1000000000E+01  1.1000000000E+01  1.6000000000E+01 Bohr
            acell2     1.1000000000E+01  1.1000000000E+01  1.6000000000E+01 Bohr
            acell3     1.1000000000E+01  1.1000000000E+01  1.6000000000E+01 Bohr
            acell4     1.1000000000E+01  1.1000000000E+01  3.2000000000E+01 Bohr
            acell5     1.1000000000E+01  1.1000000000E+01  3.2000000000E+01 Bohr
              amu      1.00000000E+00
           diemac      1.00000000E+00
           diemix1     3.33333333E-01
           diemix2     3.33333333E-01
           diemix3     3.50000000E-01
           diemix4     3.33333333E-01
           diemix5     3.33333333E-01
             ecut      2.50000000E+00 Hartree
-          fftalg         112
           getden1          0
           getden2          1
           getden3          0
           getden4          0
           getden5          0
           getwfk1          0
           getwfk2          1
           getwfk3          1
           getwfk4          0
           getwfk5          4
           getwfq1          0
           getwfq2          0
           getwfq3          2
           getwfq4          0
           getwfq5          0
             iscf1          5
             iscf2         -2
             iscf3          3
             iscf4          5
             iscf5          5
           istwfk1       2    4
           istwfk2       4    0
           istwfk3       1    1
           istwfk4       2
           istwfk5       2
           jdtset        1    2    3    4    5
              kpt1     0.00000000E+00  0.00000000E+00  0.00000000E+00
                       0.00000000E+00  0.00000000E+00  5.00000000E-01
              kpt2     0.00000000E+00  0.00000000E+00  0.00000000E+00
                       0.00000000E+00  0.00000000E+00  5.00000000E-01
              kpt3     0.00000000E+00  0.00000000E+00  0.00000000E+00
                       0.00000000E+00  0.00000000E+00  5.00000000E-01
              kpt4     0.00000000E+00  0.00000000E+00  0.00000000E+00
              kpt5     0.00000000E+00  0.00000000E+00  0.00000000E+00
           kptopt           0
P           mkmem1          2
P           mkmem2          2
P           mkmem3          2
P           mkmem4          1
P           mkmem5          1
P          mkqmem1          2
P          mkqmem2          2
P          mkqmem3          2
P          mkqmem4          1
P          mkqmem5          1
P          mk1mem1          2
P          mk1mem2          2
P          mk1mem3          2
P          mk1mem4          1
P          mk1mem5          1
            natom1          2
            natom2          2
            natom3          2
            natom4          4
            natom5          4
            nband1          5
            nband2          5
            nband3          5
            nband4         10
            nband5         10
           ndtset           5
            ngfft1         16      16      24
            ngfft2         16      16      24
            ngfft3         16      16      24
            ngfft4         16      16      48
            ngfft5         16      16      48
             nkpt1          2
             nkpt2          2
             nkpt3          2
             nkpt4          1
             nkpt5          1
             nqpt1          0
             nqpt2          1
             nqpt3          1
             nqpt4          0
             nqpt5          0
            nstep1         40
            nstep2         40
            nstep3         10
            nstep4         40
            nstep5         40
             nsym           1
           ntypat           1
              occ1     2.000000  2.000000  2.000000  0.000000  0.000000
                       2.000000  2.000000  2.000000  0.000000  0.000000
              occ3     2.000000  2.000000  2.000000  0.000000  0.000000
                       2.000000  2.000000  2.000000  0.000000  0.000000
              occ4     2.000000  2.000000  2.000000  2.000000  2.000000  2.000000
                       0.000000  0.000000  0.000000  0.000000
              occ5     2.000000  2.000000  2.000000  2.000000  2.000000  2.000000
                       0.000000  0.000000  0.000000  0.000000
           occopt           4
        optdriver1          0
        optdriver2          0
        optdriver3          1
        optdriver4          0
        optdriver5          0
              qpt1     0.00000000E+00  0.00000000E+00  0.00000000E+00
              qpt2     0.00000000E+00  0.00000000E+00  5.00000000E-01
              qpt3     0.00000000E+00  0.00000000E+00  5.00000000E-01
              qpt4     0.00000000E+00  0.00000000E+00  0.00000000E+00
              qpt5     0.00000000E+00  0.00000000E+00  0.00000000E+00
          rfatpol1          1       1
          rfatpol2          1       1
          rfatpol3          2       2
          rfatpol4          1       1
          rfatpol5          1       1
            rfdir1          0       0       0
            rfdir2          0       0       0
            rfdir3          1       0       0
            rfdir4          0       0       0
            rfdir5          0       0       0
           rfphon1          0
           rfphon2          0
           rfphon3          1
           rfphon4          0
           rfphon5          0
          spgroup           1
           toldfe1     0.00000000E+00 Hartree
           toldfe2     0.00000000E+00 Hartree
           toldfe3     1.00000000E-10 Hartree
           toldfe4     0.00000000E+00 Hartree
           toldfe5     0.00000000E+00 Hartree
           tolvrs1     1.00000000E-20
           tolvrs2     0.00000000E+00
           tolvrs3     0.00000000E+00
           tolvrs4     1.00000000E-20
           tolvrs5     1.00000000E-20
           tolwfr1     0.00000000E+00
           tolwfr2     1.00000000E-26
           tolwfr3     0.00000000E+00
           tolwfr4     0.00000000E+00
           tolwfr5     0.00000000E+00
           tsmear      8.00000000E-02 Hartree
            typat1     1  1
            typat2     1  1
            typat3     1  1
            typat4     1  1  1  1
            typat5     1  1  1  1
              wtk1       0.50000    0.50000
              wtk2       1.00000    1.00000
              wtk3       0.50000    0.50000
              wtk4       1.00000
              wtk5       1.00000
           xangst1     0.0000000000E+00  0.0000000000E+00 -1.5240303607E+00
                       0.0000000000E+00  0.0000000000E+00  1.5240303607E+00
           xangst2     0.0000000000E+00  0.0000000000E+00 -1.5240303607E+00
                       0.0000000000E+00  0.0000000000E+00  1.5240303607E+00
           xangst3     0.0000000000E+00  0.0000000000E+00 -1.5240303607E+00
                       0.0000000000E+00  0.0000000000E+00  1.5240303607E+00
           xangst4     0.0000000000E+00  0.0000000000E+00 -1.5240303607E+00
                       0.0000000000E+00  0.0000000000E+00  1.5240303607E+00
                       0.0000000000E+00  0.0000000000E+00  6.9428049767E+00
                       0.0000000000E+00  0.0000000000E+00  9.9908656982E+00
           xangst5     0.0000000000E+00  0.0000000000E+00 -1.5240303607E+00
                       5.8209492945E-04  0.0000000000E+00  1.5240303607E+00
                       0.0000000000E+00  0.0000000000E+00  6.9428049767E+00
                      -5.8209492945E-04  0.0000000000E+00  9.9908656982E+00
            xcart1     0.0000000000E+00  0.0000000000E+00 -2.8800000000E+00
                       0.0000000000E+00  0.0000000000E+00  2.8800000000E+00
            xcart2     0.0000000000E+00  0.0000000000E+00 -2.8800000000E+00
                       0.0000000000E+00  0.0000000000E+00  2.8800000000E+00
            xcart3     0.0000000000E+00  0.0000000000E+00 -2.8800000000E+00
                       0.0000000000E+00  0.0000000000E+00  2.8800000000E+00
            xcart4     0.0000000000E+00  0.0000000000E+00 -2.8800000000E+00
                       0.0000000000E+00  0.0000000000E+00  2.8800000000E+00
                       0.0000000000E+00  0.0000000000E+00  1.3120000000E+01
                       0.0000000000E+00  0.0000000000E+00  1.8880000000E+01
            xcart5     0.0000000000E+00  0.0000000000E+00 -2.8800000000E+00
                       1.1000000000E-03  0.0000000000E+00  2.8800000000E+00
                       0.0000000000E+00  0.0000000000E+00  1.3120000000E+01
                      -1.1000000000E-03  0.0000000000E+00  1.8880000000E+01
             xred1     0.0000000000E+00  0.0000000000E+00 -1.8000000000E-01
                       0.0000000000E+00  0.0000000000E+00  1.8000000000E-01
             xred2     0.0000000000E+00  0.0000000000E+00 -1.8000000000E-01
                       0.0000000000E+00  0.0000000000E+00  1.8000000000E-01
             xred3     0.0000000000E+00  0.0000000000E+00 -1.8000000000E-01
                       0.0000000000E+00  0.0000000000E+00  1.8000000000E-01
             xred4     0.0000000000E+00  0.0000000000E+00 -9.0000000000E-02
                       0.0000000000E+00  0.0000000000E+00  9.0000000000E-02
                       0.0000000000E+00  0.0000000000E+00  4.1000000000E-01
                       0.0000000000E+00  0.0000000000E+00  5.9000000000E-01
             xred5     0.0000000000E+00  0.0000000000E+00 -9.0000000000E-02
                       1.0000000000E-04  0.0000000000E+00  9.0000000000E-02
                       0.0000000000E+00  0.0000000000E+00  4.1000000000E-01
                      -1.0000000000E-04  0.0000000000E+00  5.9000000000E-01
            znucl       13.00000

================================================================================

 chkinp: Checking input parameters for consistency, jdtset=   1.

 chkinp: Checking input parameters for consistency, jdtset=   2.

 chkinp: Checking input parameters for consistency, jdtset=   3.

 chkinp: Checking input parameters for consistency, jdtset=   4.

 chkinp: Checking input parameters for consistency, jdtset=   5.

================================================================================
== DATASET  1 ==================================================================
-   nproc =    1

 Exchange-correlation functional for the present dataset will be:
  LDA: new Teter (4/93) with spin-polarized option - ixc=1
 Citation for XC functional:
  S. Goedecker, M. Teter, J. Huetter, PRB 54, 1703 (1996)

 Real(R)+Recip(G) space primitive vectors, cartesian coordinates (Bohr,Bohr^-1):
 R(1)= 11.0000000  0.0000000  0.0000000  G(1)=  0.0909091  0.0000000  0.0000000
 R(2)=  0.0000000 11.0000000  0.0000000  G(2)=  0.0000000  0.0909091  0.0000000
 R(3)=  0.0000000  0.0000000 16.0000000  G(3)=  0.0000000  0.0000000  0.0625000
 Unit cell volume ucvol=  1.9360000E+03 bohr^3
 Angles (23,13,12)=  9.00000000E+01  9.00000000E+01  9.00000000E+01 degrees

 getcut: wavevector=  0.0000  0.0000  0.0000  ngfft=  16  16  24
         ecut(hartree)=      2.500   => boxcut(ratio)=   2.04358

--- Pseudopotential description ------------------------------------------------
- pspini: atom type   1  psp file is /home/gonze/ABINIT/ABINITv7.9.3/trunk/7.9.3-private/tests/Psps_for_tests/13al.981214.fhi
- pspatm: opening atomic psp file    /home/gonze/ABINIT/ABINITv7.9.3/trunk/7.9.3-private/tests/Psps_for_tests/13al.981214.fhi
- Aluminum, fhi98PP : Hamann-type, LDA CA PerdewWang, l=2 local
- 13.00000   3.00000    981214                znucl, zion, pspdat
    6    7    2    2       493   0.00000      pspcod,pspxc,lmax,lloc,mmax,r2well
  No XC core correction.
  1.024700          amesh (Hamman grid)
 pspatm: epsatm=    1.36305739
         --- l  ekb(1:nproj) -->
             0    1.768744
             1    0.900554
 pspatm: atomic psp has been read  and splines computed

   1.63566886E+01                                ecore*ucvol(ha*bohr**3)
--------------------------------------------------------------------------------

P newkpt: treating      5 bands with npw=     180 for ikpt=   1 by node    0
P newkpt: treating      5 bands with npw=     182 for ikpt=   2 by node    0

_setup2: Arith. and geom. avg. npw (full set) are     361.500     361.491

================================================================================

     iter   Etot(hartree)      deltaE(h)  residm     vres2
 ETOT  1  -3.9567382561827    -3.957E+00 4.908E-04 7.833E-01
 ETOT  2  -3.9580271277641    -1.289E-03 3.373E-08 3.488E-01
 ETOT  3  -3.9583130830147    -2.860E-04 5.489E-06 8.204E-02
 ETOT  4  -3.9583475352551    -3.445E-05 1.754E-07 3.841E-02
 ETOT  5  -3.9583542967871    -6.762E-06 9.530E-08 1.820E-02
 ETOT  6  -3.9583599513940    -5.655E-06 8.588E-08 7.998E-03
 ETOT  7  -3.9583622982670    -2.347E-06 1.695E-08 1.733E-03
 ETOT  8  -3.9583628574104    -5.591E-07 1.973E-09 3.069E-05
 ETOT  9  -3.9583629019094    -4.450E-08 7.388E-10 1.060E-05
 ETOT 10  -3.9583629145247    -1.262E-08 3.020E-10 2.982E-06
 ETOT 11  -3.9583629166078    -2.083E-09 1.889E-11 2.683E-06
 ETOT 12  -3.9583629178553    -1.247E-09 1.623E-11 8.571E-07
 ETOT 13  -3.9583629182444    -3.891E-10 2.472E-12 1.231E-07
 ETOT 14  -3.9583629182665    -2.213E-11 3.060E-13 4.307E-08
 ETOT 15  -3.9583629182890    -2.246E-11 7.348E-13 1.701E-08
 ETOT 16  -3.9583629183045    -1.553E-11 1.868E-13 2.007E-09
 ETOT 17  -3.9583629183055    -1.022E-12 1.666E-14 4.314E-10
 ETOT 18  -3.9583629183057    -2.016E-13 3.178E-15 1.310E-10
 ETOT 19  -3.9583629183058    -9.948E-14 2.228E-15 4.942E-11
 ETOT 20  -3.9583629183058    -1.421E-14 1.124E-16 1.676E-11
 ETOT 21  -3.9583629183058    -1.998E-14 9.056E-17 4.682E-12
 ETOT 22  -3.9583629183059    -6.661E-15 3.678E-17 4.145E-13
 ETOT 23  -3.9583629183058     1.288E-14 1.112E-18 2.600E-13
 ETOT 24  -3.9583629183058    -3.997E-15 4.916E-18 1.042E-13
 ETOT 25  -3.9583629183058    -1.332E-15 8.849E-19 1.253E-14
 ETOT 26  -3.9583629183059    -7.994E-15 3.224E-20 7.278E-15
 ETOT 27  -3.9583629183059    -5.773E-15 5.936E-20 2.770E-15
 ETOT 28  -3.9583629183058     1.510E-14 3.164E-20 5.526E-16
 ETOT 29  -3.9583629183058     9.770E-15 2.430E-21 1.356E-16
 ETOT 30  -3.9583629183058    -1.021E-14 5.370E-22 3.976E-17
 ETOT 31  -3.9583629183059    -1.599E-14 4.825E-22 1.046E-17
 ETOT 32  -3.9583629183059     4.885E-15 4.457E-23 3.185E-18
 ETOT 33  -3.9583629183058     1.421E-14 3.958E-23 8.966E-19
 ETOT 34  -3.9583629183058     7.105E-15 1.091E-23 1.588E-19
 ETOT 35  -3.9583629183059    -2.220E-14 2.820E-25 1.406E-19
 ETOT 36  -3.9583629183058     7.994E-15 1.138E-24 5.257E-20
 ETOT 37  -3.9583629183059    -6.217E-15 3.731E-25 6.362E-21

 At SCF step   37       vres2   =  6.36E-21 < tolvrs=  1.00E-20 =>converged.

 Cartesian components of stress tensor (hartree/bohr^3)
  sigma(1 1)=  5.63543351E-05  sigma(3 2)=  0.00000000E+00
  sigma(2 2)=  5.63543351E-05  sigma(3 1)=  0.00000000E+00
  sigma(3 3)=  7.57080290E-05  sigma(2 1)=  0.00000000E+00

================================================================================

 ----iterations are completed or convergence reached----

 Mean square residual over all n,k,spin=   1.9916E-25; max=  3.7311E-25
   0.0000  0.0000  0.0000    1  3.44121E-25 kpt; spin; max resid(k); each band:
  2.57E-25 3.44E-25 1.24E-25 1.07E-25 1.25E-25
   0.0000  0.0000  0.5000    1  3.73105E-25 kpt; spin; max resid(k); each band:
  2.42E-25 3.73E-25 1.71E-25 1.19E-25 1.30E-25
 reduced coordinates (array xred) for    2 atoms
       0.000000000000      0.000000000000     -0.180000000000
       0.000000000000      0.000000000000      0.180000000000
 rms dE/dt=  9.6337E-02; max dE/dt=  1.6686E-01; dE/dt below (all hartree)
    1      -0.000000000000      0.000000000000     -0.166860533715
    2       0.000000000000      0.000000000000      0.166860533715

 cartesian coordinates (angstrom) at end:
    1      0.00000000000000     0.00000000000000    -1.52403036073920
    2      0.00000000000000     0.00000000000000     1.52403036073920

 cartesian forces (hartree/bohr) at end:
    1      0.00000000000001     0.00000000000000     0.01042878335720
    2     -0.00000000000001    -0.00000000000000    -0.01042878335720
 frms,max,avg= 6.0210609E-03 1.0428783E-02   0.000E+00  0.000E+00  0.000E+00 h/b

 cartesian forces (eV/Angstrom) at end:
    1      0.00000000000030     0.00000000000006     0.53626955681209
    2     -0.00000000000030    -0.00000000000006    -0.53626955681209
 frms,max,avg= 3.0961537E-01 5.3626956E-01   0.000E+00  0.000E+00  0.000E+00 e/A
 length scales= 11.000000000000 11.000000000000 16.000000000000 bohr
              =  5.820949294490  5.820949294490  8.466835337440 angstroms
 prteigrs : about to open file t36o_DS1_EIG
 Fermi (or HOMO) energy (hartree) =  -0.07707   Average Vxc (hartree)=  -0.13648
 Eigenvalues (hartree) for nkpt=   2  k points:
 kpt#   1, nband=  5, wtk=  0.50000, kpt=  0.0000  0.0000  0.0000 (reduced coord)
  -0.25992  -0.19129  -0.09239  -0.05814  -0.05814
      occupation numbers for kpt#   1
   2.01380   2.12510   1.17566   0.47820   0.47820
 kpt#   2, nband=  5, wtk=  0.50000, kpt=  0.0000  0.0000  0.5000 (reduced coord)
  -0.25822  -0.19808  -0.07047  -0.05633  -0.05633
      occupation numbers for kpt#   2
   2.01494   2.11182   0.70527   0.44851   0.44851
 Total charge density [el/Bohr^3]
,     Maximum=    2.9785E-02  at reduced coord.    0.0000    0.0000    0.9583
,Next maximum=    2.9785E-02  at reduced coord.    0.0000    0.0000    0.0417
,     Minimum=    3.0457E-05  at reduced coord.    0.5000    0.5000    0.5000
,Next minimum=    3.0498E-05  at reduced coord.    0.5000    0.5000    0.0833
,  Integrated=    6.0000E+00

--------------------------------------------------------------------------------
 Components of total free energy (in Hartree) :

    Kinetic energy  =  1.12843373027535E+00
    Hartree energy  =  9.62957767235971E-01
    XC energy       = -1.20599282023666E+00
    Ewald energy    = -2.26231457505637E+00
    PspCore energy  =  8.44870280673896E-03
    Loc. psp. energy= -3.62240544085270E+00
    NL   psp  energy=  1.07072597218831E+00
    >>>>> Internal E= -3.92014666363936E+00

    -kT*entropy     = -3.82162546664922E-02
    >>>>>>>>> Etotal= -3.95836291830585E+00

 Other information on the energy :
    Total energy(eV)= -1.07712532827210E+02 ; Band energy (Ha)=  -1.0664940117E+00
--------------------------------------------------------------------------------

 Cartesian components of stress tensor (hartree/bohr^3)
  sigma(1 1)=  5.63543351E-05  sigma(3 2)=  0.00000000E+00
  sigma(2 2)=  5.63543351E-05  sigma(3 1)=  0.00000000E+00
  sigma(3 3)=  7.57080290E-05  sigma(2 1)=  0.00000000E+00

-Cartesian components of stress tensor (GPa)         [Pressure= -1.8478E+00 GPa]
- sigma(1 1)=  1.65800150E+00  sigma(3 2)=  0.00000000E+00
- sigma(2 2)=  1.65800150E+00  sigma(3 1)=  0.00000000E+00
- sigma(3 3)=  2.22740674E+00  sigma(2 1)=  0.00000000E+00

================================================================================
== DATASET  2 ==================================================================
-   nproc =    1

 mkfilename : getwfk/=0, take file _WFK from output of DATASET   1.

 mkfilename : getden/=0, take file _DEN from output of DATASET   1.

 Exchange-correlation functional for the present dataset will be:
  LDA: new Teter (4/93) with spin-polarized option - ixc=1
 Citation for XC functional:
  S. Goedecker, M. Teter, J. Huetter, PRB 54, 1703 (1996)

 Real(R)+Recip(G) space primitive vectors, cartesian coordinates (Bohr,Bohr^-1):
 R(1)= 11.0000000  0.0000000  0.0000000  G(1)=  0.0909091  0.0000000  0.0000000
 R(2)=  0.0000000 11.0000000  0.0000000  G(2)=  0.0000000  0.0909091  0.0000000
 R(3)=  0.0000000  0.0000000 16.0000000  G(3)=  0.0000000  0.0000000  0.0625000
 Unit cell volume ucvol=  1.9360000E+03 bohr^3
 Angles (23,13,12)=  9.00000000E+01  9.00000000E+01  9.00000000E+01 degrees

 getcut: wavevector=  0.0000  0.0000  0.0000  ngfft=  16  16  24
         ecut(hartree)=      2.500   => boxcut(ratio)=   2.04358
--------------------------------------------------------------------------------

-inwffil : will read wavefunctions from disk file t36o_DS1_WFK
- newkpt: read input wf with ikpt,npw=   2     182, make ikpt,npw=   1     182
- newkpt: read input wf with ikpt,npw=   1     180, make ikpt,npw=   2     359


================================================================================
 prteigrs : about to open file t36o_DS2_EIG
 Non-SCF case, kpt    1 (  0.00000  0.00000  0.50000), residuals and eigenvalues=
  1.13E-27  2.20E-28  1.04E-27  1.14E-27  8.10E-28
 -2.5822E-01 -1.9808E-01 -7.0471E-02 -5.6327E-02 -5.6327E-02
 Non-SCF case, kpt    2 (  0.00000  0.00000  1.00000), residuals and eigenvalues=
  7.35E-28  1.36E-28  6.43E-28  1.43E-27  1.23E-27
 -2.5992E-01 -1.9129E-01 -9.2387E-02 -5.8135E-02 -5.8135E-02
================================================================================

 ----iterations are completed or convergence reached----

 Mean square residual over all n,k,spin=   8.5163E-28; max=  1.4320E-27
   0.0000  0.0000  0.5000    1  1.14291E-27 kpt; spin; max resid(k); each band:
  1.13E-27 2.20E-28 1.04E-27 1.14E-27 8.10E-28
   0.0000  0.0000  1.0000    1  1.43201E-27 kpt; spin; max resid(k); each band:
  7.35E-28 1.36E-28 6.43E-28 1.43E-27 1.23E-27
 reduced coordinates (array xred) for    2 atoms
       0.000000000000      0.000000000000     -0.180000000000
       0.000000000000      0.000000000000      0.180000000000

 cartesian coordinates (angstrom) at end:
    1      0.00000000000000     0.00000000000000    -1.52403036073920
    2      0.00000000000000     0.00000000000000     1.52403036073920
 length scales= 11.000000000000 11.000000000000 16.000000000000 bohr
              =  5.820949294490  5.820949294490  8.466835337440 angstroms
 prteigrs : about to open file t36o_DS2_EIG
 Eigenvalues (hartree) for nkpt=   2  k points:
 kpt#   1, nband=  5, wtk=  1.00000, kpt=  0.0000  0.0000  0.5000 (reduced coord)
  -0.25822  -0.19808  -0.07047  -0.05633  -0.05633
 kpt#   2, nband=  5, wtk=  1.00000, kpt=  0.0000  0.0000  1.0000 (reduced coord)
  -0.25992  -0.19129  -0.09239  -0.05814  -0.05814
 Total charge density [el/Bohr^3]
,     Maximum=    2.9785E-02  at reduced coord.    0.0000    0.0000    0.9583
,Next maximum=    2.9785E-02  at reduced coord.    0.0000    0.0000    0.0417
,     Minimum=    3.0457E-05  at reduced coord.    0.5000    0.5000    0.5000
,Next minimum=    3.0498E-05  at reduced coord.    0.5000    0.5000    0.0833
,  Integrated=    6.0000E+00

================================================================================
== DATASET  3 ==================================================================
-   nproc =    1

 mkfilename : getwfk/=0, take file _WFK from output of DATASET   1.

 mkfilename : getwfq/=0, take file _WFQ from output of DATASET   2.

 Exchange-correlation functional for the present dataset will be:
  LDA: new Teter (4/93) with spin-polarized option - ixc=1
 Citation for XC functional:
  S. Goedecker, M. Teter, J. Huetter, PRB 54, 1703 (1996)

 Real(R)+Recip(G) space primitive vectors, cartesian coordinates (Bohr,Bohr^-1):
 R(1)= 11.0000000  0.0000000  0.0000000  G(1)=  0.0909091  0.0000000  0.0000000
 R(2)=  0.0000000 11.0000000  0.0000000  G(2)=  0.0000000  0.0909091  0.0000000
 R(3)=  0.0000000  0.0000000 16.0000000  G(3)=  0.0000000  0.0000000  0.0625000
 Unit cell volume ucvol=  1.9360000E+03 bohr^3
 Angles (23,13,12)=  9.00000000E+01  9.00000000E+01  9.00000000E+01 degrees
 setup1 : take into account q-point for computing boxcut.

 getcut: wavevector=  0.0000  0.0000  0.5000  ngfft=  16  16  24
         ecut(hartree)=      2.500   => boxcut(ratio)=   2.01963
--------------------------------------------------------------------------------

-inwffil : will read wavefunctions from disk file t36o_DS1_WFK
- newkpt: read input wf with ikpt,npw=   1     180, make ikpt,npw=   1     359
- newkpt: read input wf with ikpt,npw=   2     182, make ikpt,npw=   2     364


 ==>  initialize data related to q vector <== 

 The list of irreducible perturbations for this q vector is:
    1)    idir= 1    ipert=   2

================================================================================

--------------------------------------------------------------------------------
 Perturbation wavevector (in red.coord.)   0.000000  0.000000  0.500000
 Perturbation : displacement of atom   2   along direction   1
 The set of symmetries contains only one element for this perturbation.
 symkpt : not enough symmetry to change the number of k points.

--------------------------------------------------------------------------------

-inwffil : will read wavefunctions from disk file t36o_DS1_WFK
- newkpt: read input wf with ikpt,npw=   1     180, make ikpt,npw=   1     359
- newkpt: read input wf with ikpt,npw=   2     182, make ikpt,npw=   2     364

--------------------------------------------------------------------------------

-inwffil : will read wavefunctions from disk file t36o_DS2_WFQ
- newkpt: read input wf with ikpt,npw=   1     182, make ikpt,npw=   1     364
- newkpt: read input wf with ikpt,npw=   2     359, make ikpt,npw=   2     359

 loper3 : total number of electrons, from k and k+q
  fully or partially occupied states are    6.000000E+00 and    6.000000E+00.
 Initialisation of the first-order wave-functions :
  ireadwf=   0
P newkpt: treating      5 bands with npw=     364 for ikpt=   1 by node    0
P newkpt: treating      5 bands with npw=     359 for ikpt=   2 by node    0


     iter   2DEtotal(Ha)        deltaE(Ha) residm    vres2
-ETOT  1   17.999004420925     -1.637E+01 3.929E-02 1.626E+03
 ETOT  2   2.0792145716554     -1.592E+01 2.808E-03 1.442E+02
 ETOT  3  0.43600148559285     -1.643E+00 9.871E-04 1.122E+00
 ETOT  4  0.42961719745810     -6.384E-03 7.083E-06 3.660E-01
 ETOT  5  0.42824302391136     -1.374E-03 8.293E-07 4.744E-02
 ETOT  6  0.42812001632451     -1.230E-04 2.089E-08 7.218E-03
 ETOT  7  0.42808353810042     -3.648E-05 1.462E-08 3.446E-04
 ETOT  8  0.42808081873775     -2.719E-06 1.176E-09 9.435E-05
 ETOT  9  0.42808040939586     -4.093E-07 2.706E-10 2.421E-05
 ETOT 10  0.42808037136996     -3.803E-08 1.511E-11 6.464E-06

 scprqt:  WARNING -
  nstep=   10 was not enough SCF cycles to converge;
  maximum energy difference=  3.803E-08 exceeds toldfe=  1.000E-10

================================================================================

 ----iterations are completed or convergence reached----

 Mean square residual over all n,k,spin=   4.3333E-12; max=  1.5109E-11
   0.0000  0.0000  0.0000    1  8.93519E-12 kpt; spin; max resid(k); each band:
  2.39E-12 3.09E-12 8.94E-12 6.98E-13 3.32E-12
   0.0000  0.0000  0.5000    1  1.51092E-11 kpt; spin; max resid(k); each band:
  3.79E-12 2.25E-12 1.51E-11 6.09E-13 3.14E-12

 Thirteen components of 2nd-order total energy (hartree) are
 1,2,3: 0th-order hamiltonian combined with 1st-order wavefunctions
     kin0=   3.17437107E+01 eigvalue=   6.92573401E+00  local=  -2.27249303E+01
 4,5,6: 1st-order hamiltonian combined with 1st and 0th-order wfs
 loc psp =  -7.14672115E+01  Hartree=   1.59027809E+01     xc=  -7.40174325E+00
 note that "loc psp" includes a xc core correction that could be resolved
 7,8,9: eventually, occupation + non-local contributions
    edocc=   3.15897313E+00     enl0=   6.33747186E+00   enl1=   3.58441008E+00
 1-9 gives the relaxation energy (to be shifted if some occ is /=2.0)
   erelax=  -3.39408044E+01
 10,11,12 Non-relaxation  contributions : frozen-wavefunctions and Ewald
 fr.local=   3.93342827E+01 fr.nonlo=  -1.04009160E+00  Ewald=  -3.92530630E+00
 13,14 Frozen wf xc core corrections (1) and (2)
 frxc 1  =   0.00000000E+00  frxc 2 =   0.00000000E+00
 Resulting in :
 2DEtotal=    0.4280803714E+00 Ha. Also 2DEtotal=    0.116486593083E+02 eV
    (2DErelax=   -3.3940804381E+01 Ha. 2DEnonrelax=    3.4368884752E+01 Ha)
    (  non-var. 2DEtotal :    4.2748404050E-01 Ha)

================================================================================

 ---- first-order wavefunction calculations are completed ----


 ==> Compute Derivative Database <==
  
  2nd-order matrix (non-cartesian coordinates, masses not included,
   asr not included )
     j1       j2             matrix element
  dir pert dir pert     real part     imaginary part
  
   1    1   1    2        -0.4123707077        -0.0000000000
  
   2    1   1    2         0.0000000372         0.0000000000
  
   3    1   1    2        -0.0000435934        -0.0000000065
  
   1    2   1    1        -0.4123707077         0.0000000000
   1    2   2    1         0.0000000372        -0.0000000000
   1    2   3    1        -0.0000435934         0.0000000065
   1    2   1    2         0.4274840405         0.0000000000
   1    2   2    2        -0.0000000937         0.0000000000
   1    2   3    2         0.0000435863        -0.0000000065
  
   2    2   1    2        -0.0000000937        -0.0000000000
  
   3    2   1    2         0.0000435863         0.0000000065
  
  
  Dynamical matrix, in cartesian coordinates,
   if specified in the inputs, asr has been imposed
     j1       j2             matrix element
  dir pert dir pert     real part    imaginary part
  
   1    1   1    2        -0.0034080224        -0.0000000000
  
   2    1   1    2         0.0000000003         0.0000000000
  
   3    1   1    2        -0.0000002477        -0.0000000000
  
   1    2   1    1        -0.0034080224         0.0000000000
   1    2   2    1         0.0000000003        -0.0000000000
   1    2   3    1        -0.0000002477         0.0000000000
   1    2   1    2         0.0035329260         0.0000000000
   1    2   2    2        -0.0000000008         0.0000000000
   1    2   3    2         0.0000002476        -0.0000000000
  
   2    2   1    2        -0.0000000008        -0.0000000000
  
   3    2   1    2         0.0000002476         0.0000000000
 
  Phonon wavevector (reduced coordinates) :  0.00000  0.00000  0.50000
 Phonon energies in Hartree :
   0.000000E+00  0.000000E+00  0.000000E+00  0.000000E+00  0.000000E+00
   1.392154E-03
 Phonon frequencies in cm-1    :
-  0.000000E+00  0.000000E+00  0.000000E+00  0.000000E+00  0.000000E+00
-  3.055424E+02
 chkph3 : WARNING -
  The dynamical matrix was incomplete : phonon frequencies may be wrong ...

================================================================================
== DATASET  4 ==================================================================
-   nproc =    1

 Exchange-correlation functional for the present dataset will be:
  LDA: new Teter (4/93) with spin-polarized option - ixc=1
 Citation for XC functional:
  S. Goedecker, M. Teter, J. Huetter, PRB 54, 1703 (1996)

 Real(R)+Recip(G) space primitive vectors, cartesian coordinates (Bohr,Bohr^-1):
 R(1)= 11.0000000  0.0000000  0.0000000  G(1)=  0.0909091  0.0000000  0.0000000
 R(2)=  0.0000000 11.0000000  0.0000000  G(2)=  0.0000000  0.0909091  0.0000000
 R(3)=  0.0000000  0.0000000 32.0000000  G(3)=  0.0000000  0.0000000  0.0312500
 Unit cell volume ucvol=  3.8720000E+03 bohr^3
 Angles (23,13,12)=  9.00000000E+01  9.00000000E+01  9.00000000E+01 degrees

 getcut: wavevector=  0.0000  0.0000  0.0000  ngfft=  16  16  48
         ecut(hartree)=      2.500   => boxcut(ratio)=   2.04358
   6.54267545E+01                                ecore*ucvol(ha*bohr**3)
--------------------------------------------------------------------------------

P newkpt: treating     10 bands with npw=     362 for ikpt=   1 by node    0

_setup2: Arith. and geom. avg. npw (full set) are     723.000     723.000

================================================================================

     iter   Etot(hartree)      deltaE(h)  residm     vres2
 ETOT  1  -7.9118316886265    -7.912E+00 6.282E-04 2.047E+00
 ETOT  2  -7.9141376891438    -2.306E-03 6.990E-08 4.137E+00
 ETOT  3  -7.9150473035303    -9.096E-04 2.846E-06 1.826E+00
 ETOT  4  -7.9150474579427    -1.544E-07 2.312E-07 1.581E+00
 ETOT  5  -7.9150705012641    -2.304E-05 5.805E-08 1.672E+00
 ETOT  6  -7.9154216932578    -3.512E-04 7.614E-06 2.120E+00
 ETOT  7  -7.9165314155557    -1.110E-03 4.352E-06 3.579E-01
 ETOT  8  -7.9154417811821     1.090E-03 3.488E-06 2.443E+00
 ETOT  9  -7.9167027051160    -1.261E-03 1.743E-06 6.033E-02
 ETOT 10  -7.9167192468399    -1.654E-05 2.728E-08 1.876E-02
 ETOT 11  -7.9167228744253    -3.628E-06 5.777E-09 8.802E-03
 ETOT 12  -7.9167145158089     8.359E-06 3.192E-08 2.220E-02
 ETOT 13  -7.9167253797243    -1.086E-05 2.316E-08 8.748E-04
 ETOT 14  -7.9167239531735     1.427E-06 7.333E-09 3.524E-03
 ETOT 15  -7.9167258099650    -1.857E-06 3.639E-09 4.628E-05
 ETOT 16  -7.9167258293381    -1.937E-08 1.207E-10 8.558E-06
 ETOT 17  -7.9167258303551    -1.017E-09 5.354E-11 1.301E-05
 ETOT 18  -7.9167258263424     4.013E-09 4.839E-11 1.861E-05
 ETOT 19  -7.9167258356699    -9.327E-09 1.775E-11 1.656E-06
 ETOT 20  -7.9167258359822    -3.123E-10 4.213E-12 1.579E-06
 ETOT 21  -7.9167258363248    -3.426E-10 2.899E-12 5.979E-07
 ETOT 22  -7.9167258365586    -2.339E-10 6.647E-13 1.391E-07
 ETOT 23  -7.9167258365920    -3.338E-11 9.121E-14 7.170E-08
 ETOT 24  -7.9167258365924    -3.659E-13 7.051E-14 3.817E-08
 ETOT 25  -7.9167258366083    -1.591E-11 2.924E-14 7.326E-09
 ETOT 26  -7.9167258366096    -1.319E-12 1.062E-14 5.512E-09
 ETOT 27  -7.9167258366115    -1.934E-12 3.233E-15 2.266E-10
 ETOT 28  -7.9167258366115     1.066E-14 8.026E-17 1.638E-10
 ETOT 29  -7.9167258366115    -8.882E-15 9.295E-18 1.594E-10
 ETOT 30  -7.9167258366116    -1.421E-14 5.073E-16 1.031E-10
 ETOT 31  -7.9167258366116    -6.573E-14 1.508E-16 2.484E-11
 ETOT 32  -7.9167258366116     2.842E-14 7.484E-17 4.438E-11
 ETOT 33  -7.9167258366116    -1.510E-14 5.965E-17 9.520E-12
 ETOT 34  -7.9167258366116    -2.931E-14 8.227E-18 2.885E-12
 ETOT 35  -7.9167258366116     4.352E-14 3.389E-18 1.682E-12
 ETOT 36  -7.9167258366116    -2.043E-14 3.405E-18 1.990E-12
 ETOT 37  -7.9167258366116     2.309E-14 2.159E-18 2.541E-13
 ETOT 38  -7.9167258366116    -3.375E-14 6.691E-19 2.035E-13
 ETOT 39  -7.9167258366116    -8.882E-15 2.942E-19 5.897E-14
 ETOT 40  -7.9167258366116     1.332E-14 7.491E-20 6.465E-15

 Cartesian components of stress tensor (hartree/bohr^3)
  sigma(1 1)=  5.63543352E-05  sigma(3 2)=  1.85135412E-15
  sigma(2 2)=  5.63543351E-05  sigma(3 1)=  0.00000000E+00
  sigma(3 3)=  7.57080287E-05  sigma(2 1)=  1.58324137E-14


 scprqt:  WARNING -
  nstep=   40 was not enough SCF cycles to converge;
  potential residual=  6.465E-15 exceeds tolvrs=  1.000E-20

================================================================================

 ----iterations are completed or convergence reached----

 Mean square residual over all n,k,spin=   4.0428E-20; max=  7.4908E-20
   0.0000  0.0000  0.0000    1  7.49075E-20 kpt; spin; max resid(k); each band:
  3.28E-20 2.81E-20 7.49E-20 6.60E-20 7.27E-20 6.78E-20 1.35E-20 2.01E-20
  1.19E-20 1.66E-20
 reduced coordinates (array xred) for    4 atoms
       0.000000000000      0.000000000000     -0.090000000000
       0.000000000000      0.000000000000      0.090000000000
       0.000000000000      0.000000000000      0.410000000000
       0.000000000000      0.000000000000      0.590000000000
 rms dE/dt=  1.9267E-01; max dE/dt=  3.3372E-01; dE/dt below (all hartree)
    1       0.000000000005     -0.000000000011     -0.333721066001
    2      -0.000000000036     -0.000000000016      0.333721066410
    3      -0.000000000016     -0.000000000006     -0.333721068480
    4       0.000000000011     -0.000000000013      0.333721068282

 cartesian coordinates (angstrom) at end:
    1      0.00000000000000     0.00000000000000    -1.52403036073920
    2      0.00000000000000     0.00000000000000     1.52403036073920
    3      0.00000000000000     0.00000000000000     6.94280497670080
    4      0.00000000000000     0.00000000000000     9.99086569817920

 cartesian forces (hartree/bohr) at end:
    1     -0.00000000000129    -0.00000000000003     0.01042878331417
    2      0.00000000000247     0.00000000000043    -0.01042878332366
    3      0.00000000000067    -0.00000000000050     0.01042878339166
    4     -0.00000000000184     0.00000000000011    -0.01042878338217
 frms,max,avg= 6.0210609E-03 1.0428783E-02   8.104E-13  1.031E-12 -1.655E-12 h/b

 cartesian forces (eV/Angstrom) at end:
    1     -0.00000000006649    -0.00000000000155     0.53626955459941
    2      0.00000000012703     0.00000000002202    -0.53626955508738
    3      0.00000000003432    -0.00000000002588     0.53626955858408
    4     -0.00000000009486     0.00000000000542    -0.53626955809610
 frms,max,avg= 3.0961537E-01 5.3626956E-01   4.167E-11  5.303E-11 -8.511E-11 e/A
 length scales= 11.000000000000 11.000000000000 32.000000000000 bohr
              =  5.820949294490  5.820949294490 16.933670674880 angstroms
 prteigrs : about to open file t36o_DS4_EIG
 Fermi (or HOMO) energy (hartree) =  -0.07707   Average Vxc (hartree)=  -0.13648
 Eigenvalues (hartree) for nkpt=   1  k points:
 kpt#   1, nband= 10, wtk=  1.00000, kpt=  0.0000  0.0000  0.0000 (reduced coord)
  -0.25992  -0.25822  -0.19808  -0.19129  -0.09239  -0.07047  -0.05814  -0.05814
  -0.05633  -0.05633
      occupation numbers for kpt#   1
   2.01380   2.01494   2.11182   2.12510   1.17566   0.70527   0.47820   0.47820
   0.44851   0.44851
 Total charge density [el/Bohr^3]
,     Maximum=    2.9785E-02  at reduced coord.    0.0000    0.0000    0.4792
,Next maximum=    2.9785E-02  at reduced coord.    0.0000    0.0000    0.5208
,     Minimum=    3.0457E-05  at reduced coord.    0.5000    0.5000    0.2500
,Next minimum=    3.0457E-05  at reduced coord.    0.5000    0.5000    0.7500
,  Integrated=    1.2000E+01

--------------------------------------------------------------------------------
 Components of total free energy (in Hartree) :

    Kinetic energy  =  2.25686746019913E+00
    Hartree energy  =  1.92591553429235E+00
    XC energy       = -2.41198564036594E+00
    Ewald energy    = -4.52462915011266E+00
    PspCore energy  =  1.68974056134779E-02
    Loc. psp. energy= -7.24481088204589E+00
    NL   psp  energy=  2.14145194519105E+00
    >>>>> Internal E= -7.84029332722849E+00

    -kT*entropy     = -7.64325093831346E-02
    >>>>>>>>> Etotal= -7.91672583661162E+00

 Other information on the energy :
    Total energy(eV)= -2.15425065654419E+02 ; Band energy (Ha)=  -2.1329880217E+00
--------------------------------------------------------------------------------

 Cartesian components of stress tensor (hartree/bohr^3)
  sigma(1 1)=  5.63543352E-05  sigma(3 2)=  1.85135412E-15
  sigma(2 2)=  5.63543351E-05  sigma(3 1)=  0.00000000E+00
  sigma(3 3)=  7.57080287E-05  sigma(2 1)=  1.58324137E-14

-Cartesian components of stress tensor (GPa)         [Pressure= -1.8478E+00 GPa]
- sigma(1 1)=  1.65800150E+00  sigma(3 2)=  5.44687096E-11
- sigma(2 2)=  1.65800150E+00  sigma(3 1)=  0.00000000E+00
- sigma(3 3)=  2.22740673E+00  sigma(2 1)=  4.65805615E-10

================================================================================
== DATASET  5 ==================================================================
-   nproc =    1

 mkfilename : getwfk/=0, take file _WFK from output of DATASET   4.

 Exchange-correlation functional for the present dataset will be:
  LDA: new Teter (4/93) with spin-polarized option - ixc=1
 Citation for XC functional:
  S. Goedecker, M. Teter, J. Huetter, PRB 54, 1703 (1996)

 Real(R)+Recip(G) space primitive vectors, cartesian coordinates (Bohr,Bohr^-1):
 R(1)= 11.0000000  0.0000000  0.0000000  G(1)=  0.0909091  0.0000000  0.0000000
 R(2)=  0.0000000 11.0000000  0.0000000  G(2)=  0.0000000  0.0909091  0.0000000
 R(3)=  0.0000000  0.0000000 32.0000000  G(3)=  0.0000000  0.0000000  0.0312500
 Unit cell volume ucvol=  3.8720000E+03 bohr^3
 Angles (23,13,12)=  9.00000000E+01  9.00000000E+01  9.00000000E+01 degrees

 getcut: wavevector=  0.0000  0.0000  0.0000  ngfft=  16  16  48
         ecut(hartree)=      2.500   => boxcut(ratio)=   2.04358
--------------------------------------------------------------------------------

-inwffil : will read wavefunctions from disk file t36o_DS4_WFK
P newkpt: treating     10 bands with npw=     362 for ikpt=   1 by node    0

_setup2: Arith. and geom. avg. npw (full set) are     723.000     723.000

================================================================================

     iter   Etot(hartree)      deltaE(h)  residm     vres2
 ETOT  1  -7.9167256534356    -7.917E+00 9.494E-13 3.278E-05
 ETOT  2  -7.9167258125585    -1.591E-07 5.155E-14 3.496E-06
 ETOT  3  -7.9167258318072    -1.925E-08 1.989E-10 1.076E-07
 ETOT  4  -7.9167258322486    -4.414E-10 1.755E-12 2.444E-08
 ETOT  5  -7.9167258323188    -7.018E-11 6.131E-13 8.431E-09
 ETOT  6  -7.9167258323244    -5.569E-12 1.190E-14 7.216E-09
 ETOT  7  -7.9167258322789     4.544E-11 1.421E-13 9.684E-08
 ETOT  8  -7.9167258323307    -5.175E-11 9.730E-14 5.841E-11
 ETOT  9  -7.9167258323308    -1.652E-13 1.076E-15 1.613E-11
 ETOT 10  -7.9167258323308     3.553E-14 9.769E-17 6.958E-12
 ETOT 11  -7.9167258323309    -6.573E-14 3.097E-17 7.065E-12
 ETOT 12  -7.9167258323308     1.776E-14 8.478E-17 2.321E-11
 ETOT 13  -7.9167258323308    -1.066E-14 4.054E-17 3.582E-12
 ETOT 14  -7.9167258323308     1.421E-14 2.949E-18 5.257E-13
 ETOT 15  -7.9167258323308     3.730E-14 1.191E-18 5.792E-13
 ETOT 16  -7.9167258323308    -6.217E-15 7.534E-19 8.960E-14
 ETOT 17  -7.9167258323308    -2.043E-14 3.015E-19 5.118E-14
 ETOT 18  -7.9167258323308    -1.776E-15 1.107E-19 2.191E-14
 ETOT 19  -7.9167258323308     3.197E-14 2.192E-20 8.313E-15
 ETOT 20  -7.9167258323309    -7.105E-14 4.759E-20 8.629E-15
 ETOT 21  -7.9167258323308     6.661E-14 1.844E-20 3.645E-15
 ETOT 22  -7.9167258323308    -3.109E-14 3.743E-21 9.371E-17
 ETOT 23  -7.9167258323308    -1.776E-15 5.202E-22 8.579E-17
 ETOT 24  -7.9167258323308    -5.329E-15 2.344E-22 2.019E-17
 ETOT 25  -7.9167258323308    -1.776E-15 1.963E-23 1.215E-17
 ETOT 26  -7.9167258323308     3.197E-14 6.006E-23 1.505E-17
 ETOT 27  -7.9167258323308     1.332E-14 1.624E-23 3.746E-18
 ETOT 28  -7.9167258323308    -3.553E-14 1.428E-23 7.814E-18
 ETOT 29  -7.9167258323308    -9.770E-15 6.078E-24 2.107E-18
 ETOT 30  -7.9167258323309    -5.684E-14 6.184E-24 2.904E-18
 ETOT 31  -7.9167258323309     4.086E-14 2.891E-24 8.001E-20
 ETOT 32  -7.9167258323308     3.020E-14 2.354E-26 6.479E-20
 ETOT 33  -7.9167258323308    -3.553E-15 8.655E-26 5.398E-20
 ETOT 34  -7.9167258323308     4.441E-14 3.508E-26 3.135E-20
 ETOT 35  -7.9167258323308    -3.730E-14 4.149E-26 3.264E-20
 ETOT 36  -7.9167258323308     2.665E-14 4.054E-26 1.229E-20
 ETOT 37  -7.9167258323308    -2.665E-14 7.725E-27 1.065E-21

 At SCF step   37       vres2   =  1.06E-21 < tolvrs=  1.00E-20 =>converged.

 Cartesian components of stress tensor (hartree/bohr^3)
  sigma(1 1)=  5.63543362E-05  sigma(3 2)=  0.00000000E+00
  sigma(2 2)=  5.63543353E-05  sigma(3 1)=  0.00000000E+00
  sigma(3 3)=  7.57080295E-05  sigma(2 1)=  0.00000000E+00

================================================================================

 ----iterations are completed or convergence reached----

 Mean square residual over all n,k,spin=   6.6549E-27; max=  7.7248E-27
   0.0000  0.0000  0.0000    1  7.72481E-27 kpt; spin; max resid(k); each band:
  6.72E-27 6.56E-27 7.02E-27 7.29E-27 7.72E-27 7.17E-27 5.12E-27 7.48E-27
  4.63E-27 6.83E-27
 reduced coordinates (array xred) for    4 atoms
       0.000000000000      0.000000000000     -0.090000000000
       0.000100000000      0.000000000000      0.090000000000
       0.000000000000      0.000000000000      0.410000000000
      -0.000100000000      0.000000000000      0.590000000000
 rms dE/dt=  1.9267E-01; max dE/dt=  3.3372E-01; dE/dt below (all hartree)
    1      -0.000041265278     -0.000000000000     -0.333721076206
    2       0.000042808032     -0.000000000000      0.333721076205
    3       0.000041265278     -0.000000000000     -0.333721076206
    4      -0.000042808032     -0.000000000000      0.333721076205

 cartesian coordinates (angstrom) at end:
    1      0.00000000000000     0.00000000000000    -1.52403036073920
    2      0.00058209492945     0.00000000000000     1.52403036073920
    3      0.00000000000000     0.00000000000000     6.94280497670080
    4     -0.00058209492945     0.00000000000000     9.99086569817920

 cartesian forces (hartree/bohr) at end:
    1      0.00000375138894    -0.00000000000000     0.01042878363142
    2     -0.00000389163930     0.00000000000000    -0.01042878363142
    3     -0.00000375138894     0.00000000000000     0.01042878363142
    4      0.00000389163930    -0.00000000000000    -0.01042878363141
 frms,max,avg= 6.0210614E-03 1.0428784E-02   0.000E+00  0.000E+00  1.059E-14 h/b

 cartesian forces (eV/Angstrom) at end:
    1      0.00019290415888    -0.00000000000000     0.53626957091273
    2     -0.00020011612219     0.00000000000000    -0.53626957091313
    3     -0.00019290415889     0.00000000000001     0.53626957091287
    4      0.00020011612220    -0.00000000000001    -0.53626957091247
 frms,max,avg= 3.0961540E-01 5.3626957E-01   0.000E+00  0.000E+00  5.445E-13 e/A
 length scales= 11.000000000000 11.000000000000 32.000000000000 bohr
              =  5.820949294490  5.820949294490 16.933670674880 angstroms
 prteigrs : about to open file t36o_DS5_EIG
 Fermi (or HOMO) energy (hartree) =  -0.07707   Average Vxc (hartree)=  -0.13648
 Eigenvalues (hartree) for nkpt=   1  k points:
 kpt#   1, nband= 10, wtk=  1.00000, kpt=  0.0000  0.0000  0.0000 (reduced coord)
  -0.25992  -0.25822  -0.19808  -0.19129  -0.09239  -0.07047  -0.05814  -0.05814
  -0.05633  -0.05633
      occupation numbers for kpt#   1
   2.01380   2.01494   2.11182   2.12510   1.17566   0.70527   0.47820   0.47820
   0.44851   0.44851
 Total charge density [el/Bohr^3]
,     Maximum=    2.9785E-02  at reduced coord.    0.0000    0.0000    0.9792
,Next maximum=    2.9785E-02  at reduced coord.    0.0000    0.0000    0.4792
,     Minimum=    3.0457E-05  at reduced coord.    0.5000    0.5000    0.2500
,Next minimum=    3.0457E-05  at reduced coord.    0.5000    0.5000    0.7500
,  Integrated=    1.2000E+01

--------------------------------------------------------------------------------
 Components of total free energy (in Hartree) :

    Kinetic energy  =  2.25686745103629E+00
    Hartree energy  =  1.92591549884143E+00
    XC energy       = -2.41198563392490E+00
    Ewald energy    = -4.52462918936574E+00
    PspCore energy  =  1.68974056134779E-02
    Loc. psp. energy= -7.24481079992741E+00
    NL   psp  energy=  2.14145194530579E+00
    >>>>> Internal E= -7.84029332242106E+00

    -kT*entropy     = -7.64325099097533E-02
    >>>>>>>>> Etotal= -7.91672583233082E+00

 Other information on the energy :
    Total energy(eV)= -2.15425065537932E+02 ; Band energy (Ha)=  -2.1329880129E+00
--------------------------------------------------------------------------------

 Cartesian components of stress tensor (hartree/bohr^3)
  sigma(1 1)=  5.63543362E-05  sigma(3 2)=  0.00000000E+00
  sigma(2 2)=  5.63543353E-05  sigma(3 1)=  0.00000000E+00
  sigma(3 3)=  7.57080295E-05  sigma(2 1)=  0.00000000E+00

-Cartesian components of stress tensor (GPa)         [Pressure= -1.8478E+00 GPa]
- sigma(1 1)=  1.65800153E+00  sigma(3 2)=  0.00000000E+00
- sigma(2 2)=  1.65800151E+00  sigma(3 1)=  0.00000000E+00
- sigma(3 3)=  2.22740675E+00  sigma(2 1)=  0.00000000E+00

== END DATASET(S) ==============================================================
================================================================================
  
 -outvars: echo values of variables after computation  --------
            acell1     1.1000000000E+01  1.1000000000E+01  1.6000000000E+01 Bohr
            acell2     1.1000000000E+01  1.1000000000E+01  1.6000000000E+01 Bohr
            acell3     1.1000000000E+01  1.1000000000E+01  1.6000000000E+01 Bohr
            acell4     1.1000000000E+01  1.1000000000E+01  3.2000000000E+01 Bohr
            acell5     1.1000000000E+01  1.1000000000E+01  3.2000000000E+01 Bohr
              amu      1.00000000E+00
           diemac      1.00000000E+00
           diemix1     3.33333333E-01
           diemix2     3.33333333E-01
           diemix3     3.50000000E-01
           diemix4     3.33333333E-01
           diemix5     3.33333333E-01
             ecut      2.50000000E+00 Hartree
           etotal1    -3.9583629183E+00
           etotal3     4.2808037137E-01
           etotal4    -7.9167258366E+00
           etotal5    -7.9167258323E+00
            fcart1     5.8533738442E-15  1.1012943898E-15  1.0428783357E-02
                      -5.8533738442E-15 -1.1012943898E-15 -1.0428783357E-02
            fcart3     0.0000000000E+00  0.0000000000E+00  0.0000000000E+00
                       0.0000000000E+00  0.0000000000E+00  0.0000000000E+00
            fcart4    -1.2930349308E-12 -3.0226405890E-14  1.0428783314E-02
                       2.4703859287E-12  4.2815255619E-13 -1.0428783324E-02
                       6.6747199853E-13 -5.0323706755E-13  1.0428783392E-02
                      -1.8448229965E-12  1.0531091726E-13 -1.0428783382E-02
            fcart5     3.7513889351E-06 -3.1059745831E-17  1.0428783631E-02
                      -3.8916393035E-06  9.4751151040E-18 -1.0428783631E-02
                      -3.7513889353E-06  1.4005125389E-16  1.0428783631E-02
                       3.8916393037E-06 -1.1846662316E-16 -1.0428783631E-02
-          fftalg         112
           getden1          0
           getden2          1
           getden3          0
           getden4          0
           getden5          0
           getwfk1          0
           getwfk2          1
           getwfk3          1
           getwfk4          0
           getwfk5          4
           getwfq1          0
           getwfq2          0
           getwfq3          2
           getwfq4          0
           getwfq5          0
             iscf1          5
             iscf2         -2
             iscf3          3
             iscf4          5
             iscf5          5
           istwfk1       2    4
           istwfk2       4    0
           istwfk3       1    1
           istwfk4       2
           istwfk5       2
           jdtset        1    2    3    4    5
              kpt1     0.00000000E+00  0.00000000E+00  0.00000000E+00
                       0.00000000E+00  0.00000000E+00  5.00000000E-01
              kpt2     0.00000000E+00  0.00000000E+00  0.00000000E+00
                       0.00000000E+00  0.00000000E+00  5.00000000E-01
              kpt3     0.00000000E+00  0.00000000E+00  0.00000000E+00
                       0.00000000E+00  0.00000000E+00  5.00000000E-01
              kpt4     0.00000000E+00  0.00000000E+00  0.00000000E+00
              kpt5     0.00000000E+00  0.00000000E+00  0.00000000E+00
           kptopt           0
P           mkmem1          2
P           mkmem2          2
P           mkmem3          2
P           mkmem4          1
P           mkmem5          1
P          mkqmem1          2
P          mkqmem2          2
P          mkqmem3          2
P          mkqmem4          1
P          mkqmem5          1
P          mk1mem1          2
P          mk1mem2          2
P          mk1mem3          2
P          mk1mem4          1
P          mk1mem5          1
            natom1          2
            natom2          2
            natom3          2
            natom4          4
            natom5          4
            nband1          5
            nband2          5
            nband3          5
            nband4         10
            nband5         10
           ndtset           5
            ngfft1         16      16      24
            ngfft2         16      16      24
            ngfft3         16      16      24
            ngfft4         16      16      48
            ngfft5         16      16      48
             nkpt1          2
             nkpt2          2
             nkpt3          2
             nkpt4          1
             nkpt5          1
             nqpt1          0
             nqpt2          1
             nqpt3          1
             nqpt4          0
             nqpt5          0
            nstep1         40
            nstep2         40
            nstep3         10
            nstep4         40
            nstep5         40
             nsym           1
           ntypat           1
              occ1     2.013803  2.125104  1.175657  0.478195  0.478195
                       2.014940  2.111825  0.705269  0.448506  0.448506
              occ3     2.013803  2.125104  1.175657  0.478195  0.478195
                       2.014940  2.111825  0.705269  0.448506  0.448506
              occ4     2.013803  2.014940  2.111825  2.125104  1.175657  0.705269
                       0.478195  0.478195  0.448506  0.448506
              occ5     2.013803  2.014940  2.111825  2.125104  1.175657  0.705269
                       0.478195  0.478195  0.448506  0.448506
           occopt           4
        optdriver1          0
        optdriver2          0
        optdriver3          1
        optdriver4          0
        optdriver5          0
              qpt1     0.00000000E+00  0.00000000E+00  0.00000000E+00
              qpt2     0.00000000E+00  0.00000000E+00  5.00000000E-01
              qpt3     0.00000000E+00  0.00000000E+00  5.00000000E-01
              qpt4     0.00000000E+00  0.00000000E+00  0.00000000E+00
              qpt5     0.00000000E+00  0.00000000E+00  0.00000000E+00
          rfatpol1          1       1
          rfatpol2          1       1
          rfatpol3          2       2
          rfatpol4          1       1
          rfatpol5          1       1
            rfdir1          0       0       0
            rfdir2          0       0       0
            rfdir3          1       0       0
            rfdir4          0       0       0
            rfdir5          0       0       0
           rfphon1          0
           rfphon2          0
           rfphon3          1
           rfphon4          0
           rfphon5          0
          spgroup           1
           strten1     5.6354335095E-05  5.6354335091E-05  7.5708028999E-05
                       0.0000000000E+00  0.0000000000E+00  0.0000000000E+00
           strten3     0.0000000000E+00  0.0000000000E+00  0.0000000000E+00
                       0.0000000000E+00  0.0000000000E+00  0.0000000000E+00
           strten4     5.6354335186E-05  5.6354335063E-05  7.5708028742E-05
                       1.8513541213E-15  0.0000000000E+00  1.5832413714E-14
           strten5     5.6354336207E-05  5.6354335267E-05  7.5708029480E-05
                       0.0000000000E+00  0.0000000000E+00  0.0000000000E+00
           toldfe1     0.00000000E+00 Hartree
           toldfe2     0.00000000E+00 Hartree
           toldfe3     1.00000000E-10 Hartree
           toldfe4     0.00000000E+00 Hartree
           toldfe5     0.00000000E+00 Hartree
           tolvrs1     1.00000000E-20
           tolvrs2     0.00000000E+00
           tolvrs3     0.00000000E+00
           tolvrs4     1.00000000E-20
           tolvrs5     1.00000000E-20
           tolwfr1     0.00000000E+00
           tolwfr2     1.00000000E-26
           tolwfr3     0.00000000E+00
           tolwfr4     0.00000000E+00
           tolwfr5     0.00000000E+00
           tsmear      8.00000000E-02 Hartree
            typat1     1  1
            typat2     1  1
            typat3     1  1
            typat4     1  1  1  1
            typat5     1  1  1  1
              wtk1       0.50000    0.50000
              wtk2       1.00000    1.00000
              wtk3       0.50000    0.50000
              wtk4       1.00000
              wtk5       1.00000
           xangst1     0.0000000000E+00  0.0000000000E+00 -1.5240303607E+00
                       0.0000000000E+00  0.0000000000E+00  1.5240303607E+00
           xangst2     0.0000000000E+00  0.0000000000E+00 -1.5240303607E+00
                       0.0000000000E+00  0.0000000000E+00  1.5240303607E+00
           xangst3     0.0000000000E+00  0.0000000000E+00 -1.5240303607E+00
                       0.0000000000E+00  0.0000000000E+00  1.5240303607E+00
           xangst4     0.0000000000E+00  0.0000000000E+00 -1.5240303607E+00
                       0.0000000000E+00  0.0000000000E+00  1.5240303607E+00
                       0.0000000000E+00  0.0000000000E+00  6.9428049767E+00
                       0.0000000000E+00  0.0000000000E+00  9.9908656982E+00
           xangst5     0.0000000000E+00  0.0000000000E+00 -1.5240303607E+00
                       5.8209492945E-04  0.0000000000E+00  1.5240303607E+00
                       0.0000000000E+00  0.0000000000E+00  6.9428049767E+00
                      -5.8209492945E-04  0.0000000000E+00  9.9908656982E+00
            xcart1     0.0000000000E+00  0.0000000000E+00 -2.8800000000E+00
                       0.0000000000E+00  0.0000000000E+00  2.8800000000E+00
            xcart2     0.0000000000E+00  0.0000000000E+00 -2.8800000000E+00
                       0.0000000000E+00  0.0000000000E+00  2.8800000000E+00
            xcart3     0.0000000000E+00  0.0000000000E+00 -2.8800000000E+00
                       0.0000000000E+00  0.0000000000E+00  2.8800000000E+00
            xcart4     0.0000000000E+00  0.0000000000E+00 -2.8800000000E+00
                       0.0000000000E+00  0.0000000000E+00  2.8800000000E+00
                       0.0000000000E+00  0.0000000000E+00  1.3120000000E+01
                       0.0000000000E+00  0.0000000000E+00  1.8880000000E+01
            xcart5     0.0000000000E+00  0.0000000000E+00 -2.8800000000E+00
                       1.1000000000E-03  0.0000000000E+00  2.8800000000E+00
                       0.0000000000E+00  0.0000000000E+00  1.3120000000E+01
                      -1.1000000000E-03  0.0000000000E+00  1.8880000000E+01
             xred1     0.0000000000E+00  0.0000000000E+00 -1.8000000000E-01
                       0.0000000000E+00  0.0000000000E+00  1.8000000000E-01
             xred2     0.0000000000E+00  0.0000000000E+00 -1.8000000000E-01
                       0.0000000000E+00  0.0000000000E+00  1.8000000000E-01
             xred3     0.0000000000E+00  0.0000000000E+00 -1.8000000000E-01
                       0.0000000000E+00  0.0000000000E+00  1.8000000000E-01
             xred4     0.0000000000E+00  0.0000000000E+00 -9.0000000000E-02
                       0.0000000000E+00  0.0000000000E+00  9.0000000000E-02
                       0.0000000000E+00  0.0000000000E+00  4.1000000000E-01
                       0.0000000000E+00  0.0000000000E+00  5.9000000000E-01
             xred5     0.0000000000E+00  0.0000000000E+00 -9.0000000000E-02
                       1.0000000000E-04  0.0000000000E+00  9.0000000000E-02
                       0.0000000000E+00  0.0000000000E+00  4.1000000000E-01
                      -1.0000000000E-04  0.0000000000E+00  5.9000000000E-01
            znucl       13.00000

================================================================================


- Timing analysis has been suppressed with timopt=0



================================================================================

 Suggested references for the acknowledgment of ABINIT usage.

 The users of ABINIT have little formal obligations with respect to the ABINIT group
 (those specified in the GNU General Public License, http://www.gnu.org/copyleft/gpl.txt).
 However, it is common practice in the scientific literature,
 to acknowledge the efforts of people that have made the research possible.
 In this spirit, please find below suggested citations of work written by ABINIT developers,
 corresponding to implementations inside of ABINIT that you have used in the present run.
 Note also that it will be of great value to readers of publications presenting these results,
 to read papers enabling them to understand the theoretical formalism and details
 of the ABINIT implementation.
 For information on why they are suggested, see also http://www.abinit.org/about/?text=acknowledgments.

 [1] First-principles responses of solids to atomic displacements and homogeneous electric fields:,
 implementation of a conjugate-gradient algorithm. X. Gonze, Phys. Rev. B55, 10337 (1997).
 Comment : Non-vanishing rfphon and/or rfelfd, in the norm-conserving case.

 [2] Dynamical matrices, Born effective charges, dielectric permittivity tensors, and ,
 interatomic force constants from density-functional perturbation theory,
 X. Gonze and C. Lee, Phys. Rev. B55, 10355 (1997).
 Comment : Non-vanishing rfphon and/or rfelfd, in the norm-conserving case.

 [3] Ab initio pseudopotentials for electronic structure calculations of poly-atomic systems, 
 using density-functional theory.
 M. Fuchs, M. Scheffler, Comput. Phys. Commun. 119, 67 (1999).
 Comment : Some pseudopotential generated using the FHI code were used.

 [4] ABINIT : First-principles approach of materials and nanosystem properties.
 X. Gonze, B. Amadon, P.-M. Anglade, J.-M. Beuken, F. Bottin, P. Boulanger, F. Bruneval,
 D. Caliste, R. Caracas, M. Cote, T. Deutsch, L. Genovese, Ph. Ghosez, M. Giantomassi
 S. Goedecker, D.R. Hamann, P. Hermet, F. Jollet, G. Jomard, S. Leroux, M. Mancini, S. Mazevet,
 M.J.T. Oliveira, G. Onida, Y. Pouillon, T. Rangel, G.-M. Rignanese, D. Sangalli, R. Shaltaf,
 M. Torrent, M.J. Verstraete, G. Zerah, J.W. Zwanziger
 Computer Phys. Comm. 180, 2582-2615 (2009).
 Comment : the third generic paper describing the ABINIT project.
 Note that a version of this paper, that is not formatted for Computer Phys. Comm. 
 is available at http://www.abinit.org/about/ABINIT_CPC_v10.pdf .
 The licence allows the authors to put it on the Web.

 [5] A brief introduction to the ABINIT software package.
 X. Gonze, G.-M. Rignanese, M. Verstraete, J.-M. Beuken, Y. Pouillon, R. Caracas, F. Jollet,
 M. Torrent, G. Zerah, M. Mikami, Ph. Ghosez, M. Veithen, J.-Y. Raty, V. Olevano, F. Bruneval,
 L. Reining, R. Godby, G. Onida, D.R. Hamann, and D.C. Allan.
 Z. Kristallogr. 220, 558-562 (2005).
 Comment : the second generic paper describing the ABINIT project. Note that this paper
 should be cited especially if you are using the GW part of ABINIT, as several authors
 of this part are not in the list of authors of the first or third paper.
 The .pdf of the latter paper is available at http://www.abinit.org/about/zfk_0505-06_558-562.pdf.
 Note that it should not redistributed (Copyright by Oldenburg Wissenshaftverlag,
 the licence allows the authors to put it on the Web).
-
- Proc.   0 individual time (sec): cpu=          3.8  wall=          3.8

================================================================================

 Calculation completed.
.Delivered   58 WARNINGs and  10 COMMENTs to log file.
+Overall time at end (sec) : cpu=          3.8  wall=          3.8
