
.Version 7.9.3 of ABINIT 
.(MPI version, prepared for a x86_64_linux_gnu4.7 computer) 

.Copyright (C) 1998-2014 ABINIT group . 
 ABINIT comes with ABSOLUTELY NO WARRANTY.
 It is free software, and you are welcome to redistribute it
 under certain conditions (GNU General Public License,
 see ~abinit/COPYING or http://www.gnu.org/copyleft/gpl.txt).

 ABINIT is a project of the Universite Catholique de Louvain,
 Corning Inc. and other collaborators, see ~abinit/doc/developers/contributors.txt .
 Please read ~abinit/doc/users/acknowledgments.html for suggested
 acknowledgments of the ABINIT effort.
 For more information, see http://www.abinit.org .

.Starting date : Sat 30 Aug 2014.
- ( at 22h31 )
  
- input  file    -> t40.in
- output file    -> t40.out
- root for input  files -> t40i
- root for output files -> t40o


 DATASET    1 : space group Pm m 2 (# 25); Bravais oP (primitive ortho.)
================================================================================
 Values of the parameters that define the memory need for DATASET  1.
   intxc =         0  ionmov =         0    iscf =         5 xclevel =         2
  lmnmax =         1   lnmax =         1   mband =         8  mffmem =         1
P  mgfft =        32   mkmem =         1 mpssoang=         2     mpw =       562
  mqgrid =      3001   natom =         2    nfft =     18432    nkpt =         1
  nloalg =         4  nspden =         1 nspinor =         1  nsppol =         1
    nsym =         4  n1xccc =      2501  ntypat =         1  occopt =         4
================================================================================
P This job should need less than                       6.389 Mbytes of memory.
  Rough estimation (10% accuracy) of disk space for files :
_ WF disk file :      0.071 Mbytes ; DEN or POT disk file :      0.143 Mbytes.
================================================================================


 DATASET    2 : space group Pm m 2 (# 25); Bravais oP (primitive ortho.)
================================================================================
 Values of the parameters that define the memory need for DATASET  2.
   intxc =         0  ionmov =         0    iscf =         5 xclevel =         2
  lmnmax =         1   lnmax =         1   mband =         8  mffmem =         1
P  mgfft =        32   mkmem =         1 mpssoang=         2     mpw =       562
  mqgrid =      3001   natom =         2    nfft =     18432    nkpt =         1
  nloalg =         4  nspden =         1 nspinor =         1  nsppol =         1
    nsym =         4  n1xccc =      2501  ntypat =         1  occopt =         4
================================================================================
P This job should need less than                       6.389 Mbytes of memory.
  Rough estimation (10% accuracy) of disk space for files :
_ WF disk file :      0.071 Mbytes ; DEN or POT disk file :      0.143 Mbytes.
================================================================================


 DATASET    3 : space group Pm m 2 (# 25); Bravais oP (primitive ortho.)
================================================================================
 Values of the parameters that define the memory need for DATASET  3.
   intxc =         0  ionmov =         0    iscf =         5 xclevel =         2
  lmnmax =         1   lnmax =         1   mband =         8  mffmem =         1
P  mgfft =        32   mkmem =         1 mpssoang=         2     mpw =       562
  mqgrid =      3001   natom =         2    nfft =     18432    nkpt =         1
  nloalg =         4  nspden =         1 nspinor =         1  nsppol =         1
    nsym =         4  n1xccc =      2501  ntypat =         1  occopt =         4
================================================================================
P This job should need less than                       6.389 Mbytes of memory.
  Rough estimation (10% accuracy) of disk space for files :
_ WF disk file :      0.071 Mbytes ; DEN or POT disk file :      0.143 Mbytes.
================================================================================

--------------------------------------------------------------------------------
------------- Echo of variables that govern the present computation ------------
--------------------------------------------------------------------------------
-
- outvars: echo of selected default values                                      
-   accesswff0 =  0 , fftalg0 =112 , wfoptalg0 =  0
-
- outvars: echo of global parameters not present in the input file              
-  max_nthreads =    0
-
 -outvars: echo values of preprocessed input variables --------
            acell      7.0000000000E+00  7.0000000000E+00  9.0000000000E+00 Bohr
              amu      1.59994000E+01
           diemac      1.00000000E+00
           diemix      3.33333333E-01
             ecut      1.40000000E+01 Hartree
-          fftalg         112
           getwfk          -1
             iscf           5
           istwfk        2
              ixc          11
           jdtset        1    2    3
           kptopt           0
P           mkmem           1
            natom           2
            nband           8
           ndtset           3
            ngfft          24      24      32
             nkpt           1
             nsym           4
           ntypat           1
              occ      2.000000  2.000000  2.000000  2.000000  2.000000  2.000000
                       0.000000  0.000000
           occopt           4
        optforces           1
          spgroup          25
           symrel      1  0  0   0  1  0   0  0  1      -1  0  0   0  1  0   0  0  1
                       1  0  0   0 -1  0   0  0  1      -1  0  0   0 -1  0   0  0  1
           toldff      1.00000000E-08
            typat      1  1
           xangst1     0.0000000000E+00  0.0000000000E+00  5.5007970833E-01
                       0.0000000000E+00  0.0000000000E+00 -5.5034429693E-01
           xangst2     0.0000000000E+00  0.0000000000E+00  5.5034429693E-01
                       0.0000000000E+00  0.0000000000E+00 -5.5034429693E-01
           xangst3     0.0000000000E+00  0.0000000000E+00  5.5060888554E-01
                       0.0000000000E+00  0.0000000000E+00 -5.5034429693E-01
            xcart1     0.0000000000E+00  0.0000000000E+00  1.0395000000E+00
                       0.0000000000E+00  0.0000000000E+00 -1.0400000000E+00
            xcart2     0.0000000000E+00  0.0000000000E+00  1.0400000000E+00
                       0.0000000000E+00  0.0000000000E+00 -1.0400000000E+00
            xcart3     0.0000000000E+00  0.0000000000E+00  1.0405000000E+00
                       0.0000000000E+00  0.0000000000E+00 -1.0400000000E+00
             xred1     0.0000000000E+00  0.0000000000E+00  1.1550000000E-01
                       0.0000000000E+00  0.0000000000E+00 -1.1555555556E-01
             xred2     0.0000000000E+00  0.0000000000E+00  1.1555555556E-01
                       0.0000000000E+00  0.0000000000E+00 -1.1555555556E-01
             xred3     0.0000000000E+00  0.0000000000E+00  1.1561111111E-01
                       0.0000000000E+00  0.0000000000E+00 -1.1555555556E-01
            znucl        8.00000

================================================================================

 chkinp: Checking input parameters for consistency, jdtset=   1.

 chkinp: Checking input parameters for consistency, jdtset=   2.

 chkinp: Checking input parameters for consistency, jdtset=   3.

================================================================================
== DATASET  1 ==================================================================
-   nproc =    1

 Exchange-correlation functional for the present dataset will be:
  GGA: Perdew-Burke-Ernzerhof functional - ixc=11
 Citation for XC functional:
  J.P.Perdew, K.Burke, M.Ernzerhof, PRL 77, 3865 (1996)

 Real(R)+Recip(G) space primitive vectors, cartesian coordinates (Bohr,Bohr^-1):
 R(1)=  7.0000000  0.0000000  0.0000000  G(1)=  0.1428571  0.0000000  0.0000000
 R(2)=  0.0000000  7.0000000  0.0000000  G(2)=  0.0000000  0.1428571  0.0000000
 R(3)=  0.0000000  0.0000000  9.0000000  G(3)=  0.0000000  0.0000000  0.1111111
 Unit cell volume ucvol=  4.4100000E+02 bohr^3
 Angles (23,13,12)=  9.00000000E+01  9.00000000E+01  9.00000000E+01 degrees

 getcut: wavevector=  0.0000  0.0000  0.0000  ngfft=  24  24  32
         ecut(hartree)=     14.000   => boxcut(ratio)=   2.03556

--- Pseudopotential description ------------------------------------------------
- pspini: atom type   1  psp file is /home/gonze/ABINIT/ABINITv7.9.3/trunk/7.9.3-private/tests/Psps_for_tests/8o.pspnc
- pspatm: opening atomic psp file    /home/gonze/ABINIT/ABINITv7.9.3/trunk/7.9.3-private/tests/Psps_for_tests/8o.pspnc
-  Troullier-Martins psp for element  O         Thu Oct 27 17:29:57 EDT 1994
-  8.00000   6.00000    940714                znucl, zion, pspdat
    1    1    1    1      2001   0.00000      pspcod,pspxc,lmax,lloc,mmax,r2well
    0   5.480  16.893    1   1.4482335        l,e99.0,e99.9,nproj,rcpsp
   0.00000000   0.00000000   0.00000000   0.00000000     rms, ekb1, ekb2, epsatm
    1  20.911  28.075    0   1.4482335        l,e99.0,e99.9,nproj,rcpsp
   0.00000000   0.00000000   0.00000000   0.00000000     rms, ekb1, ekb2, epsatm
    0.56990156784787    3.95561236318184    0.63894027514378   rchrg,fchrg,qchrg
 pspatm: epsatm=    1.57752239
         --- l  ekb(1:nproj) -->
             0    5.670783
 pspatm: atomic psp has been read  and splines computed

   3.78605374E+01                                ecore*ucvol(ha*bohr**3)
--------------------------------------------------------------------------------

P newkpt: treating      8 bands with npw=     562 for ikpt=   1 by node    0

_setup2: Arith. and geom. avg. npw (full set) are    1123.000    1123.000

================================================================================

     iter   Etot(hartree)      deltaE(h)  residm     vres2    diffor    maxfor
 ETOT  1  -31.857466165436    -3.186E+01 1.215E-02 3.593E+02 8.069E-01 8.069E-01
 ETOT  2  -32.274667545418    -4.172E-01 4.911E-04 2.939E+01 1.054E-01 7.015E-01
 ETOT  3  -32.279021588231    -4.354E-03 1.247E-04 1.263E+01 3.333E-02 6.682E-01
 ETOT  4  -32.278716789744     3.048E-04 1.695E-05 1.352E+01 1.866E-02 6.868E-01
 ETOT  5  -32.279652631197    -9.358E-04 3.178E-05 6.579E+00 3.009E-02 6.567E-01
 ETOT  6  -32.280059714357    -4.071E-04 3.933E-05 8.935E-01 3.045E-02 6.263E-01
 ETOT  7  -32.280074783419    -1.507E-05 4.829E-07 2.751E-01 1.826E-03 6.244E-01
 ETOT  8  -32.280082014139    -7.231E-06 2.519E-07 1.144E-01 2.149E-03 6.266E-01
 ETOT  9  -32.280084044941    -2.031E-06 2.761E-08 1.791E-02 1.128E-03 6.277E-01
 ETOT 10  -32.280084211722    -1.668E-07 5.212E-09 5.546E-03 5.658E-04 6.283E-01
 ETOT 11  -32.280084228634    -1.691E-08 6.906E-11 2.073E-03 3.592E-05 6.283E-01
 ETOT 12  -32.280084236168    -7.534E-09 3.593E-11 5.266E-05 2.621E-06 6.283E-01
 ETOT 13  -32.280084236281    -1.132E-10 1.009E-12 5.343E-06 1.618E-06 6.283E-01
 ETOT 14  -32.280084236388    -1.071E-10 5.663E-12 1.983E-06 5.862E-06 6.283E-01
 ETOT 15  -32.280084236408    -1.982E-11 8.015E-13 3.603E-07 1.888E-06 6.283E-01
 ETOT 16  -32.280084236410    -1.982E-12 6.032E-14 9.442E-08 1.136E-06 6.283E-01
 ETOT 17  -32.280084236411    -8.953E-13 2.446E-14 3.285E-08 8.762E-07 6.283E-01
 ETOT 18  -32.280084236411    -9.237E-14 1.069E-14 2.929E-09 4.705E-07 6.283E-01
 ETOT 19  -32.280084236411     3.411E-13 7.541E-16 1.025E-09 1.426E-07 6.283E-01
 ETOT 20  -32.280084236410     7.674E-13 3.902E-16 3.405E-10 4.920E-08 6.283E-01
 ETOT 21  -32.280084236411    -6.324E-13 1.047E-16 3.154E-11 5.176E-08 6.283E-01
 ETOT 22  -32.280084236411    -7.319E-13 4.516E-19 1.702E-11 4.302E-09 6.283E-01
 ETOT 23  -32.280084236412    -5.045E-13 4.129E-18 5.827E-12 1.158E-08 6.283E-01
 ETOT 24  -32.280084236411     4.832E-13 1.445E-18 2.899E-13 1.049E-08 6.283E-01
 ETOT 25  -32.280084236412    -4.405E-13 1.222E-19 4.000E-14 2.869E-09 6.283E-01
 ETOT 26  -32.280084236410     1.954E-12 7.987E-21 1.373E-14 3.670E-10 6.283E-01

 At SCF step   26, forces are converged : 
  for the second time, max diff in force=  3.670E-10 < toldff=  1.000E-08

 Cartesian components of stress tensor (hartree/bohr^3)
  sigma(1 1)=  3.50189248E-03  sigma(3 2)=  0.00000000E+00
  sigma(2 2)=  3.50189248E-03  sigma(3 1)=  0.00000000E+00
  sigma(3 3)=  9.66909433E-04  sigma(2 1)=  0.00000000E+00

================================================================================

 ----iterations are completed or convergence reached----

 Mean square residual over all n,k,spin=   2.9910E-21; max=  7.9872E-21
   0.0000  0.0000  0.0000    1  7.98720E-21 kpt; spin; max resid(k); each band:
  2.91E-21 7.99E-21 8.94E-22 1.79E-21 7.35E-21 9.16E-22 1.81E-21 2.70E-22
 reduced coordinates (array xred) for    2 atoms
       0.000000000000      0.000000000000      0.115500000000
       0.000000000000      0.000000000000     -0.115555555556
 rms dE/dt=  3.2646E+00; max dE/dt=  5.6545E+00; dE/dt below (all hartree)
    1       0.000000000000      0.000000000000     -5.654353570138
    2       0.000000000000      0.000000000000      5.654459502844

 cartesian coordinates (angstrom) at end:
    1      0.00000000000000     0.00000000000000     0.55007970832930
    2      0.00000000000000     0.00000000000000    -0.55034429693360

 cartesian forces (hartree/bohr) at end:
    1     -0.00000000000000    -0.00000000000000     0.62826739294343
    2     -0.00000000000000    -0.00000000000000    -0.62826739294343
 frms,max,avg= 3.6273035E-01 6.2826739E-01   0.000E+00  0.000E+00 -5.885E-06 h/b

 cartesian forces (eV/Angstrom) at end:
    1     -0.00000000000000    -0.00000000000000    32.30680558155133
    2     -0.00000000000000    -0.00000000000000   -32.30680558155133
 frms,max,avg= 1.8652343E+01 3.2306806E+01   0.000E+00  0.000E+00 -3.026E-04 e/A
 length scales=  7.000000000000  7.000000000000  9.000000000000 bohr
              =  3.704240460130  3.704240460130  4.762594877310 angstroms
 prteigrs : about to open file t40o_DS1_EIG
 Fermi (or HOMO) energy (hartree) =  -0.01776   Average Vxc (hartree)=  -0.19245
 Eigenvalues (hartree) for nkpt=   1  k points:
 kpt#   1, nband=  8, wtk=  1.00000, kpt=  0.0000  0.0000  0.0000 (reduced coord)
  -1.22957  -0.64183  -0.37709  -0.37709  -0.37685  -0.02138  -0.02138   0.05837
      occupation numbers for kpt#   1
   2.00000   2.00000   2.00000   2.00000   2.00000   0.99753   0.99753   0.00494
 Total charge density [el/Bohr^3]
,     Maximum=    8.4191E-01  at reduced coord.    0.0000    0.0000    0.0000
,Next maximum=    8.2464E-01  at reduced coord.    0.0000    0.0000    0.9688
,     Minimum=    2.2136E-05  at reduced coord.    0.5000    0.5000    0.4375
,Next minimum=    2.2155E-05  at reduced coord.    0.5000    0.5000    0.5625
,  Integrated=    1.2000E+01

--------------------------------------------------------------------------------
 Components of total free energy (in Hartree) :

    Kinetic energy  =  2.01360302459163E+01
    Hartree energy  =  1.83302322667888E+01
    XC energy       = -8.28537508611884E+00
    Ewald energy    = -8.65898073050016E+00
    PspCore energy  =  8.58515587537110E-02
    Loc. psp. energy= -5.85385061264620E+01
    NL   psp  energy=  4.67312046966542E+00
    >>>>> Internal E= -3.22576274019568E+01

    -kT*entropy     = -2.24568344529588E-02
    >>>>>>>>> Etotal= -3.22800842364098E+01

 Other information on the energy :
    Total energy(eV)= -8.78385763190082E+02 ; Band energy (Ha)=  -6.0472437521E+00
--------------------------------------------------------------------------------

 Cartesian components of stress tensor (hartree/bohr^3)
  sigma(1 1)=  3.50189248E-03  sigma(3 2)=  0.00000000E+00
  sigma(2 2)=  3.50189248E-03  sigma(3 1)=  0.00000000E+00
  sigma(3 3)=  9.66909433E-04  sigma(2 1)=  0.00000000E+00

-Cartesian components of stress tensor (GPa)         [Pressure= -7.8169E+01 GPa]
- sigma(1 1)=  1.03029217E+02  sigma(3 2)=  0.00000000E+00
- sigma(2 2)=  1.03029217E+02  sigma(3 1)=  0.00000000E+00
- sigma(3 3)=  2.84474529E+01  sigma(2 1)=  0.00000000E+00

================================================================================
== DATASET  2 ==================================================================
-   nproc =    1

 mkfilename : getwfk/=0, take file _WFK from output of DATASET   1.

 Exchange-correlation functional for the present dataset will be:
  GGA: Perdew-Burke-Ernzerhof functional - ixc=11
 Citation for XC functional:
  J.P.Perdew, K.Burke, M.Ernzerhof, PRL 77, 3865 (1996)

 Real(R)+Recip(G) space primitive vectors, cartesian coordinates (Bohr,Bohr^-1):
 R(1)=  7.0000000  0.0000000  0.0000000  G(1)=  0.1428571  0.0000000  0.0000000
 R(2)=  0.0000000  7.0000000  0.0000000  G(2)=  0.0000000  0.1428571  0.0000000
 R(3)=  0.0000000  0.0000000  9.0000000  G(3)=  0.0000000  0.0000000  0.1111111
 Unit cell volume ucvol=  4.4100000E+02 bohr^3
 Angles (23,13,12)=  9.00000000E+01  9.00000000E+01  9.00000000E+01 degrees

 getcut: wavevector=  0.0000  0.0000  0.0000  ngfft=  24  24  32
         ecut(hartree)=     14.000   => boxcut(ratio)=   2.03556
--------------------------------------------------------------------------------

-inwffil : will read wavefunctions from disk file t40o_DS1_WFK
P newkpt: treating      8 bands with npw=     562 for ikpt=   1 by node    0

_setup2: Arith. and geom. avg. npw (full set) are    1123.000    1123.000

================================================================================

     iter   Etot(hartree)      deltaE(h)  residm     vres2    diffor    maxfor
 ETOT  1  -32.280396150476    -3.228E+01 3.681E-11 3.013E-03 6.289E-01 6.289E-01
 ETOT  2  -32.280397924533    -1.774E-06 2.178E-12 2.570E-04 9.115E-04 6.280E-01
 ETOT  3  -32.280398083778    -1.592E-07 5.786E-09 7.298E-05 4.178E-04 6.276E-01
 ETOT  4  -32.280398110480    -2.670E-08 2.826E-09 2.251E-05 2.976E-04 6.273E-01
 ETOT  5  -32.280398114217    -3.737E-09 1.480E-10 5.236E-06 2.933E-05 6.273E-01
 ETOT  6  -32.280398114787    -5.697E-10 6.516E-11 5.424E-07 3.581E-05 6.273E-01
 ETOT  7  -32.280398114798    -1.128E-11 1.309E-12 6.457E-08 4.445E-07 6.273E-01
 ETOT  8  -32.280398114799    -1.492E-12 2.983E-14 1.874E-08 5.886E-07 6.273E-01
 ETOT  9  -32.280398114800    -1.066E-13 3.793E-14 5.186E-09 2.233E-07 6.273E-01
 ETOT 10  -32.280398114800    -2.345E-13 9.682E-15 1.515E-09 1.249E-07 6.273E-01
 ETOT 11  -32.280398114799     8.171E-13 1.255E-15 2.822E-09 6.001E-08 6.273E-01
 ETOT 12  -32.280398114799    -1.634E-13 3.025E-16 9.364E-10 8.006E-08 6.273E-01
 ETOT 13  -32.280398114800    -6.821E-13 1.524E-16 4.316E-12 8.827E-08 6.273E-01
 ETOT 14  -32.280398114800     2.629E-13 6.115E-18 1.597E-13 5.842E-09 6.273E-01
 ETOT 15  -32.280398114799     6.324E-13 8.642E-20 4.338E-14 8.728E-10 6.273E-01

 At SCF step   15, forces are converged : 
  for the second time, max diff in force=  8.728E-10 < toldff=  1.000E-08

 Cartesian components of stress tensor (hartree/bohr^3)
  sigma(1 1)=  3.50167425E-03  sigma(3 2)=  0.00000000E+00
  sigma(2 2)=  3.50167425E-03  sigma(3 1)=  0.00000000E+00
  sigma(3 3)=  9.69549375E-04  sigma(2 1)=  0.00000000E+00

================================================================================

 ----iterations are completed or convergence reached----

 Mean square residual over all n,k,spin=   3.4873E-20; max=  8.6417E-20
   0.0000  0.0000  0.0000    1  8.64167E-20 kpt; spin; max resid(k); each band:
  6.45E-20 5.79E-20 1.45E-20 1.45E-20 8.64E-20 1.50E-20 1.50E-20 1.11E-20
 reduced coordinates (array xred) for    2 atoms
       0.000000000000      0.000000000000      0.115555555556
       0.000000000000      0.000000000000     -0.115555555556
 rms dE/dt=  3.2593E+00; max dE/dt=  5.6453E+00; dE/dt below (all hartree)
    1       0.000000000000      0.000000000000     -5.645263379775
    2       0.000000000000      0.000000000000      5.645263381848

 cartesian coordinates (angstrom) at end:
    1      0.00000000000000     0.00000000000000     0.55034429693360
    2      0.00000000000000     0.00000000000000    -0.55034429693360

 cartesian forces (hartree/bohr) at end:
    1     -0.00000000000000    -0.00000000000000     0.62725148675685
    2     -0.00000000000000    -0.00000000000000    -0.62725148675685
 frms,max,avg= 3.6214381E-01 6.2725149E-01   0.000E+00  0.000E+00 -1.151E-10 h/b

 cartesian forces (eV/Angstrom) at end:
    1     -0.00000000000000    -0.00000000000000    32.25456558942738
    2     -0.00000000000000    -0.00000000000000   -32.25456558942738
 frms,max,avg= 1.8622182E+01 3.2254566E+01   0.000E+00  0.000E+00 -5.921E-09 e/A
 length scales=  7.000000000000  7.000000000000  9.000000000000 bohr
              =  3.704240460130  3.704240460130  4.762594877310 angstroms
 prteigrs : about to open file t40o_DS2_EIG
 Fermi (or HOMO) energy (hartree) =  -0.01785   Average Vxc (hartree)=  -0.19245
 Eigenvalues (hartree) for nkpt=   1  k points:
 kpt#   1, nband=  8, wtk=  1.00000, kpt=  0.0000  0.0000  0.0000 (reduced coord)
  -1.22931  -0.64191  -0.37697  -0.37697  -0.37683  -0.02147  -0.02147   0.05837
      occupation numbers for kpt#   1
   2.00000   2.00000   2.00000   2.00000   2.00000   0.99754   0.99754   0.00493
 Total charge density [el/Bohr^3]
,     Maximum=    8.4122E-01  at reduced coord.    0.0000    0.0000    0.0000
,Next maximum=    8.2412E-01  at reduced coord.    0.0000    0.0000    0.9688
,     Minimum=    2.2115E-05  at reduced coord.    0.5000    0.5000    0.4375
,Next minimum=    2.2115E-05  at reduced coord.    0.5000    0.5000    0.5625
,  Integrated=    1.2000E+01

--------------------------------------------------------------------------------
 Components of total free energy (in Hartree) :

    Kinetic energy  =  2.01345239589288E+01
    Hartree energy  =  1.83271770283500E+01
    XC energy       = -8.28509339926862E+00
    Ewald energy    = -8.66297476558762E+00
    PspCore energy  =  8.58515587537110E-02
    Loc. psp. energy= -5.85307565817462E+01
    NL   psp  energy=  4.67333008659438E+00
    >>>>> Internal E= -3.22579421139756E+01

    -kT*entropy     = -2.24560008233355E-02
    >>>>>>>>> Etotal= -3.22803981147990E+01

 Other information on the energy :
    Total energy(eV)= -8.78394304255415E+02 ; Band energy (Ha)=  -6.0465128839E+00
--------------------------------------------------------------------------------

 Cartesian components of stress tensor (hartree/bohr^3)
  sigma(1 1)=  3.50167425E-03  sigma(3 2)=  0.00000000E+00
  sigma(2 2)=  3.50167425E-03  sigma(3 1)=  0.00000000E+00
  sigma(3 3)=  9.69549375E-04  sigma(2 1)=  0.00000000E+00

-Cartesian components of stress tensor (GPa)         [Pressure= -7.8190E+01 GPa]
- sigma(1 1)=  1.03022796E+02  sigma(3 2)=  0.00000000E+00
- sigma(2 2)=  1.03022796E+02  sigma(3 1)=  0.00000000E+00
- sigma(3 3)=  2.85251226E+01  sigma(2 1)=  0.00000000E+00

================================================================================
== DATASET  3 ==================================================================
-   nproc =    1

 mkfilename : getwfk/=0, take file _WFK from output of DATASET   2.

 Exchange-correlation functional for the present dataset will be:
  GGA: Perdew-Burke-Ernzerhof functional - ixc=11
 Citation for XC functional:
  J.P.Perdew, K.Burke, M.Ernzerhof, PRL 77, 3865 (1996)

 Real(R)+Recip(G) space primitive vectors, cartesian coordinates (Bohr,Bohr^-1):
 R(1)=  7.0000000  0.0000000  0.0000000  G(1)=  0.1428571  0.0000000  0.0000000
 R(2)=  0.0000000  7.0000000  0.0000000  G(2)=  0.0000000  0.1428571  0.0000000
 R(3)=  0.0000000  0.0000000  9.0000000  G(3)=  0.0000000  0.0000000  0.1111111
 Unit cell volume ucvol=  4.4100000E+02 bohr^3
 Angles (23,13,12)=  9.00000000E+01  9.00000000E+01  9.00000000E+01 degrees

 getcut: wavevector=  0.0000  0.0000  0.0000  ngfft=  24  24  32
         ecut(hartree)=     14.000   => boxcut(ratio)=   2.03556
--------------------------------------------------------------------------------

-inwffil : will read wavefunctions from disk file t40o_DS2_WFK
P newkpt: treating      8 bands with npw=     562 for ikpt=   1 by node    0

_setup2: Arith. and geom. avg. npw (full set) are    1123.000    1123.000

================================================================================

     iter   Etot(hartree)      deltaE(h)  residm     vres2    diffor    maxfor
 ETOT  1  -32.280709522937    -3.228E+01 3.687E-11 3.013E-03 6.279E-01 6.279E-01
 ETOT  2  -32.280711297136    -1.774E-06 2.182E-12 2.573E-04 9.104E-04 6.270E-01
 ETOT  3  -32.280711456635    -1.595E-07 5.795E-09 7.313E-05 4.174E-04 6.266E-01
 ETOT  4  -32.280711483353    -2.672E-08 2.827E-09 2.262E-05 2.972E-04 6.263E-01
 ETOT  5  -32.280711487094    -3.741E-09 1.480E-10 5.260E-06 2.933E-05 6.263E-01
 ETOT  6  -32.280711487665    -5.709E-10 6.526E-11 5.436E-07 3.580E-05 6.262E-01
 ETOT  7  -32.280711487676    -1.115E-11 1.326E-12 6.421E-08 4.363E-07 6.262E-01
 ETOT  8  -32.280711487676    -5.898E-13 2.766E-14 1.861E-08 5.862E-07 6.262E-01
 ETOT  9  -32.280711487677    -5.898E-13 3.527E-14 5.149E-09 2.226E-07 6.262E-01
 ETOT 10  -32.280711487677    -1.350E-13 8.677E-15 1.501E-09 1.246E-07 6.262E-01
 ETOT 11  -32.280711487677     5.684E-14 1.096E-15 2.805E-09 5.975E-08 6.262E-01
 ETOT 12  -32.280711487676     5.826E-13 3.146E-16 9.297E-10 7.966E-08 6.262E-01
 ETOT 13  -32.280711487676     7.176E-13 1.515E-16 4.416E-12 8.750E-08 6.262E-01
 ETOT 14  -32.280711487677    -9.521E-13 6.125E-18 1.545E-13 5.748E-09 6.262E-01
 ETOT 15  -32.280711487676     1.037E-12 7.334E-20 4.198E-14 8.503E-10 6.262E-01

 At SCF step   15, forces are converged : 
  for the second time, max diff in force=  8.503E-10 < toldff=  1.000E-08

 Cartesian components of stress tensor (hartree/bohr^3)
  sigma(1 1)=  3.50145619E-03  sigma(3 2)=  0.00000000E+00
  sigma(2 2)=  3.50145619E-03  sigma(3 1)=  0.00000000E+00
  sigma(3 3)=  9.72187236E-04  sigma(2 1)=  0.00000000E+00

================================================================================

 ----iterations are completed or convergence reached----

 Mean square residual over all n,k,spin=   2.5844E-20; max=  7.3342E-20
   0.0000  0.0000  0.0000    1  7.33423E-20 kpt; spin; max resid(k); each band:
  5.62E-20 4.01E-20 6.76E-21 6.76E-21 7.33E-20 7.18E-21 7.18E-21 9.18E-21
 reduced coordinates (array xred) for    2 atoms
       0.000000000000      0.000000000000      0.115611111111
       0.000000000000      0.000000000000     -0.115555555556
 rms dE/dt=  3.2540E+00; max dE/dt=  5.6361E+00; dE/dt below (all hartree)
    1       0.000000000000      0.000000000000     -5.636161094711
    2       0.000000000000      0.000000000000      5.636069737885

 cartesian coordinates (angstrom) at end:
    1      0.00000000000000     0.00000000000000     0.55060888553789
    2      0.00000000000000     0.00000000000000    -0.55034429693360

 cartesian forces (hartree/bohr) at end:
    1     -0.00000000000000    -0.00000000000000     0.62623504625532
    2     -0.00000000000000    -0.00000000000000    -0.62623504625532
 frms,max,avg= 3.6155697E-01 6.2623505E-01   0.000E+00  0.000E+00  5.075E-06 h/b

 cartesian forces (eV/Angstrom) at end:
    1     -0.00000000000000    -0.00000000000000    32.20229812172686
    2     -0.00000000000000    -0.00000000000000   -32.20229812172686
 frms,max,avg= 1.8592005E+01 3.2202298E+01   0.000E+00  0.000E+00  2.610E-04 e/A
 length scales=  7.000000000000  7.000000000000  9.000000000000 bohr
              =  3.704240460130  3.704240460130  4.762594877310 angstroms
 prteigrs : about to open file t40o_DS3_EIG
 Fermi (or HOMO) energy (hartree) =  -0.01794   Average Vxc (hartree)=  -0.19246
 Eigenvalues (hartree) for nkpt=   1  k points:
 kpt#   1, nband=  8, wtk=  1.00000, kpt=  0.0000  0.0000  0.0000 (reduced coord)
  -1.22905  -0.64198  -0.37684  -0.37684  -0.37681  -0.02157  -0.02157   0.05836
      occupation numbers for kpt#   1
   2.00000   2.00000   2.00000   2.00000   2.00000   0.99754   0.99754   0.00492
 Total charge density [el/Bohr^3]
,     Maximum=    8.4052E-01  at reduced coord.    0.0000    0.0000    0.0000
,Next maximum=    8.2372E-01  at reduced coord.    0.0000    0.0000    0.0313
,     Minimum=    2.2075E-05  at reduced coord.    0.5000    0.5000    0.5625
,Next minimum=    2.2094E-05  at reduced coord.    0.5000    0.5000    0.4375
,  Integrated=    1.2000E+01

--------------------------------------------------------------------------------
 Components of total free energy (in Hartree) :

    Kinetic energy  =  2.01330191431008E+01
    Hartree energy  =  1.83241232746890E+01
    XC energy       = -8.28481193111612E+00
    Ewald energy    = -8.66696672592672E+00
    PspCore energy  =  8.58515587537110E-02
    Loc. psp. energy= -5.85230112953189E+01
    NL   psp  energy=  4.67353964441075E+00
    >>>>> Internal E= -3.22582563314075E+01

    -kT*entropy     = -2.24551562681929E-02
    >>>>>>>>> Etotal= -3.22807114876756E+01

 Other information on the energy :
    Total energy(eV)= -8.78402831565054E+02 ; Band energy (Ha)=  -6.0457822428E+00
--------------------------------------------------------------------------------

 Cartesian components of stress tensor (hartree/bohr^3)
  sigma(1 1)=  3.50145619E-03  sigma(3 2)=  0.00000000E+00
  sigma(2 2)=  3.50145619E-03  sigma(3 1)=  0.00000000E+00
  sigma(3 3)=  9.72187236E-04  sigma(2 1)=  0.00000000E+00

-Cartesian components of stress tensor (GPa)         [Pressure= -7.8212E+01 GPa]
- sigma(1 1)=  1.03016380E+02  sigma(3 2)=  0.00000000E+00
- sigma(2 2)=  1.03016380E+02  sigma(3 1)=  0.00000000E+00
- sigma(3 3)=  2.86027312E+01  sigma(2 1)=  0.00000000E+00

== END DATASET(S) ==============================================================
================================================================================
  
 -outvars: echo values of variables after computation  --------
            acell      7.0000000000E+00  7.0000000000E+00  9.0000000000E+00 Bohr
              amu      1.59994000E+01
           diemac      1.00000000E+00
           diemix      3.33333333E-01
             ecut      1.40000000E+01 Hartree
           etotal1    -3.2280084236E+01
           etotal2    -3.2280398115E+01
           etotal3    -3.2280711488E+01
            fcart1    -0.0000000000E+00 -0.0000000000E+00  6.2826739294E-01
                      -0.0000000000E+00 -0.0000000000E+00 -6.2826739294E-01
            fcart2    -0.0000000000E+00 -0.0000000000E+00  6.2725148676E-01
                      -0.0000000000E+00 -0.0000000000E+00 -6.2725148676E-01
            fcart3    -0.0000000000E+00 -0.0000000000E+00  6.2623504626E-01
                      -0.0000000000E+00 -0.0000000000E+00 -6.2623504626E-01
-          fftalg         112
           getwfk          -1
             iscf           5
           istwfk        2
              ixc          11
           jdtset        1    2    3
           kptopt           0
P           mkmem           1
            natom           2
            nband           8
           ndtset           3
            ngfft          24      24      32
             nkpt           1
             nsym           4
           ntypat           1
              occ1     2.000000  2.000000  2.000000  2.000000  2.000000  0.997531
                       0.997531  0.004939
              occ2     2.000000  2.000000  2.000000  2.000000  2.000000  0.997536
                       0.997536  0.004928
              occ3     2.000000  2.000000  2.000000  2.000000  2.000000  0.997541
                       0.997541  0.004918
           occopt           4
        optforces           1
          spgroup          25
           strten1     3.5018924809E-03  3.5018924808E-03  9.6690943302E-04
                       0.0000000000E+00  0.0000000000E+00  0.0000000000E+00
           strten2     3.5016742474E-03  3.5016742473E-03  9.6954937503E-04
                       0.0000000000E+00  0.0000000000E+00  0.0000000000E+00
           strten3     3.5014561867E-03  3.5014561865E-03  9.7218723555E-04
                       0.0000000000E+00  0.0000000000E+00  0.0000000000E+00
           symrel      1  0  0   0  1  0   0  0  1      -1  0  0   0  1  0   0  0  1
                       1  0  0   0 -1  0   0  0  1      -1  0  0   0 -1  0   0  0  1
           toldff      1.00000000E-08
            typat      1  1
           xangst1     0.0000000000E+00  0.0000000000E+00  5.5007970833E-01
                       0.0000000000E+00  0.0000000000E+00 -5.5034429693E-01
           xangst2     0.0000000000E+00  0.0000000000E+00  5.5034429693E-01
                       0.0000000000E+00  0.0000000000E+00 -5.5034429693E-01
           xangst3     0.0000000000E+00  0.0000000000E+00  5.5060888554E-01
                       0.0000000000E+00  0.0000000000E+00 -5.5034429693E-01
            xcart1     0.0000000000E+00  0.0000000000E+00  1.0395000000E+00
                       0.0000000000E+00  0.0000000000E+00 -1.0400000000E+00
            xcart2     0.0000000000E+00  0.0000000000E+00  1.0400000000E+00
                       0.0000000000E+00  0.0000000000E+00 -1.0400000000E+00
            xcart3     0.0000000000E+00  0.0000000000E+00  1.0405000000E+00
                       0.0000000000E+00  0.0000000000E+00 -1.0400000000E+00
             xred1     0.0000000000E+00  0.0000000000E+00  1.1550000000E-01
                       0.0000000000E+00  0.0000000000E+00 -1.1555555556E-01
             xred2     0.0000000000E+00  0.0000000000E+00  1.1555555556E-01
                       0.0000000000E+00  0.0000000000E+00 -1.1555555556E-01
             xred3     0.0000000000E+00  0.0000000000E+00  1.1561111111E-01
                       0.0000000000E+00  0.0000000000E+00 -1.1555555556E-01
            znucl        8.00000

================================================================================


- Timing analysis has been suppressed with timopt=0



================================================================================

 Suggested references for the acknowledgment of ABINIT usage.

 The users of ABINIT have little formal obligations with respect to the ABINIT group
 (those specified in the GNU General Public License, http://www.gnu.org/copyleft/gpl.txt).
 However, it is common practice in the scientific literature,
 to acknowledge the efforts of people that have made the research possible.
 In this spirit, please find below suggested citations of work written by ABINIT developers,
 corresponding to implementations inside of ABINIT that you have used in the present run.
 Note also that it will be of great value to readers of publications presenting these results,
 to read papers enabling them to understand the theoretical formalism and details
 of the ABINIT implementation.
 For information on why they are suggested, see also http://www.abinit.org/about/?text=acknowledgments.

 [1] ABINIT : First-principles approach of materials and nanosystem properties.
 X. Gonze, B. Amadon, P.-M. Anglade, J.-M. Beuken, F. Bottin, P. Boulanger, F. Bruneval,
 D. Caliste, R. Caracas, M. Cote, T. Deutsch, L. Genovese, Ph. Ghosez, M. Giantomassi
 S. Goedecker, D.R. Hamann, P. Hermet, F. Jollet, G. Jomard, S. Leroux, M. Mancini, S. Mazevet,
 M.J.T. Oliveira, G. Onida, Y. Pouillon, T. Rangel, G.-M. Rignanese, D. Sangalli, R. Shaltaf,
 M. Torrent, M.J. Verstraete, G. Zerah, J.W. Zwanziger
 Computer Phys. Comm. 180, 2582-2615 (2009).
 Comment : the third generic paper describing the ABINIT project.
 Note that a version of this paper, that is not formatted for Computer Phys. Comm. 
 is available at http://www.abinit.org/about/ABINIT_CPC_v10.pdf .
 The licence allows the authors to put it on the Web.

 [2] A brief introduction to the ABINIT software package.
 X. Gonze, G.-M. Rignanese, M. Verstraete, J.-M. Beuken, Y. Pouillon, R. Caracas, F. Jollet,
 M. Torrent, G. Zerah, M. Mikami, Ph. Ghosez, M. Veithen, J.-Y. Raty, V. Olevano, F. Bruneval,
 L. Reining, R. Godby, G. Onida, D.R. Hamann, and D.C. Allan.
 Z. Kristallogr. 220, 558-562 (2005).
 Comment : the second generic paper describing the ABINIT project. Note that this paper
 should be cited especially if you are using the GW part of ABINIT, as several authors
 of this part are not in the list of authors of the first or third paper.
 The .pdf of the latter paper is available at http://www.abinit.org/about/zfk_0505-06_558-562.pdf.
 Note that it should not redistributed (Copyright by Oldenburg Wissenshaftverlag,
 the licence allows the authors to put it on the Web).


 And optionally :

 [3] First-principles computation of material properties : the ABINIT software project. 
 X. Gonze, J.-M. Beuken, R. Caracas, F. Detraux, M. Fuchs, G.-M. Rignanese, L. Sindic,
 M. Verstraete, G. Zerah, F. Jollet, M. Torrent, A. Roy, M. Mikami, Ph. Ghosez, J.-Y. Raty, D.C. Allan.
 Computational Materials Science 25, 478-492 (2002). http://dx.doi.org/10.1016/S0927-0256(02)00325-7
 Comment : the original paper describing the ABINIT project.

 [4] Fast radix 2, 3, 4 and 5 kernels for Fast Fourier Transformations
 on computers with overlapping multiply-add instructions.
 S. Goedecker, SIAM J. on Scientific Computing 18, 1605 (1997).

 [5] Towards a potential-based conjugate gradient algorithm for order-N self-consistent
 total energy calculations.
 X. Gonze, Phys. Rev. B 54, 4383 (1996).
 Comment : The potential-based conjugate-gradient algorithm, used when iscf=5, is not published.
 However, many elements of this algorithm have been explained in the paper above.
-
- Proc.   0 individual time (sec): cpu=          2.9  wall=          3.0

================================================================================

 Calculation completed.
.Delivered    8 WARNINGs and   3 COMMENTs to log file.
+Overall time at end (sec) : cpu=          2.9  wall=          3.0
