
.Version 7.9.3 of ABINIT 
.(MPI version, prepared for a x86_64_linux_gnu4.7 computer) 

.Copyright (C) 1998-2014 ABINIT group . 
 ABINIT comes with ABSOLUTELY NO WARRANTY.
 It is free software, and you are welcome to redistribute it
 under certain conditions (GNU General Public License,
 see ~abinit/COPYING or http://www.gnu.org/copyleft/gpl.txt).

 ABINIT is a project of the Universite Catholique de Louvain,
 Corning Inc. and other collaborators, see ~abinit/doc/developers/contributors.txt .
 Please read ~abinit/doc/users/acknowledgments.html for suggested
 acknowledgments of the ABINIT effort.
 For more information, see http://www.abinit.org .

.Starting date : Sat 30 Aug 2014.
- ( at 22h25 )
  
- input  file    -> tbase2_2.in
- output file    -> tbase2_2.out
- root for input  files -> tbase2_2i
- root for output files -> tbase2_2o


 DATASET   11 : space group P4/m m m (#123); Bravais tP (primitive tetrag.)
================================================================================
 Values of the parameters that define the memory need for DATASET 11.
   intxc =         0  ionmov =         3    iscf =         7 xclevel =         1
  lmnmax =         1   lnmax =         1   mband =         1  mffmem =         1
P  mgfft =        30   mkmem =         1 mpssoang=         1     mpw =       752
  mqgrid =      3001   natom =         2    nfft =     27000    nkpt =         1
  nloalg =         4  nspden =         1 nspinor =         1  nsppol =         1
    nsym =        16  n1xccc =         0  ntypat =         1  occopt =         1
================================================================================
P This job should need less than                       7.888 Mbytes of memory.
  Rough estimation (10% accuracy) of disk space for files :
_ WF disk file :      0.013 Mbytes ; DEN or POT disk file :      0.208 Mbytes.
================================================================================


 DATASET   12 : space group Pm -3 m (#221); Bravais cP (primitive cubic)
================================================================================
 Values of the parameters that define the memory need for DATASET 12.
   intxc =         0  ionmov =         0    iscf =         7 xclevel =         1
  lmnmax =         1   lnmax =         1   mband =         1  mffmem =         1
P  mgfft =        30   mkmem =         1 mpssoang=         1     mpw =       752
  mqgrid =      3001   natom =         1    nfft =     27000    nkpt =         1
  nloalg =         4  nspden =         2 nspinor =         1  nsppol =         2
    nsym =        48  n1xccc =         0  ntypat =         1  occopt =         2
================================================================================
P This job should need less than                      12.011 Mbytes of memory.
  Rough estimation (10% accuracy) of disk space for files :
_ WF disk file :      0.025 Mbytes ; DEN or POT disk file :      0.414 Mbytes.
================================================================================


 DATASET   21 : space group P4/m m m (#123); Bravais tP (primitive tetrag.)
================================================================================
 Values of the parameters that define the memory need for DATASET 21.
   intxc =         0  ionmov =         3    iscf =         7 xclevel =         1
  lmnmax =         1   lnmax =         1   mband =         1  mffmem =         1
P  mgfft =        36   mkmem =         1 mpssoang=         1     mpw =      1389
  mqgrid =      3001   natom =         2    nfft =     46656    nkpt =         1
  nloalg =         4  nspden =         1 nspinor =         1  nsppol =         1
    nsym =        16  n1xccc =         0  ntypat =         1  occopt =         1
================================================================================
P This job should need less than                      13.366 Mbytes of memory.
  Rough estimation (10% accuracy) of disk space for files :
_ WF disk file :      0.023 Mbytes ; DEN or POT disk file :      0.358 Mbytes.
================================================================================


 DATASET   22 : space group Pm -3 m (#221); Bravais cP (primitive cubic)
================================================================================
 Values of the parameters that define the memory need for DATASET 22.
   intxc =         0  ionmov =         0    iscf =         7 xclevel =         1
  lmnmax =         1   lnmax =         1   mband =         1  mffmem =         1
P  mgfft =        36   mkmem =         1 mpssoang=         1     mpw =      1389
  mqgrid =      3001   natom =         1    nfft =     46656    nkpt =         1
  nloalg =         4  nspden =         2 nspinor =         1  nsppol =         2
    nsym =        48  n1xccc =         0  ntypat =         1  occopt =         2
================================================================================
P This job should need less than                      20.497 Mbytes of memory.
  Rough estimation (10% accuracy) of disk space for files :
_ WF disk file :      0.044 Mbytes ; DEN or POT disk file :      0.714 Mbytes.
================================================================================


 DATASET   31 : space group P4/m m m (#123); Bravais tP (primitive tetrag.)
================================================================================
 Values of the parameters that define the memory need for DATASET 31.
   intxc =         0  ionmov =         3    iscf =         7 xclevel =         1
  lmnmax =         1   lnmax =         1   mband =         1  mffmem =         1
P  mgfft =        45   mkmem =         1 mpssoang=         1     mpw =      2169
  mqgrid =      3001   natom =         2    nfft =     91125    nkpt =         1
  nloalg =         4  nspden =         1 nspinor =         1  nsppol =         1
    nsym =        16  n1xccc =         0  ntypat =         1  occopt =         1
================================================================================
P This job should need less than                      25.412 Mbytes of memory.
  Rough estimation (10% accuracy) of disk space for files :
_ WF disk file :      0.035 Mbytes ; DEN or POT disk file :      0.697 Mbytes.
================================================================================


 DATASET   32 : space group Pm -3 m (#221); Bravais cP (primitive cubic)
================================================================================
 Values of the parameters that define the memory need for DATASET 32.
   intxc =         0  ionmov =         0    iscf =         7 xclevel =         1
  lmnmax =         1   lnmax =         1   mband =         1  mffmem =         1
P  mgfft =        45   mkmem =         1 mpssoang=         1     mpw =      2169
  mqgrid =      3001   natom =         1    nfft =     91125    nkpt =         1
  nloalg =         4  nspden =         2 nspinor =         1  nsppol =         2
    nsym =        48  n1xccc =         0  ntypat =         1  occopt =         2
================================================================================
P This job should need less than                      39.340 Mbytes of memory.
  Rough estimation (10% accuracy) of disk space for files :
_ WF disk file :      0.068 Mbytes ; DEN or POT disk file :      1.392 Mbytes.
================================================================================


 DATASET   41 : space group P4/m m m (#123); Bravais tP (primitive tetrag.)
================================================================================
 Values of the parameters that define the memory need for DATASET 41.
   intxc =         0  ionmov =         3    iscf =         7 xclevel =         1
  lmnmax =         1   lnmax =         1   mband =         1  mffmem =         1
P  mgfft =        48   mkmem =         1 mpssoang=         1     mpw =      3016
  mqgrid =      3001   natom =         2    nfft =    110592    nkpt =         1
  nloalg =         4  nspden =         1 nspinor =         1  nsppol =         1
    nsym =        16  n1xccc =         0  ntypat =         1  occopt =         1
================================================================================
P This job should need less than                      31.024 Mbytes of memory.
  Rough estimation (10% accuracy) of disk space for files :
_ WF disk file :      0.048 Mbytes ; DEN or POT disk file :      0.846 Mbytes.
================================================================================


 DATASET   42 : space group Pm -3 m (#221); Bravais cP (primitive cubic)
================================================================================
 Values of the parameters that define the memory need for DATASET 42.
   intxc =         0  ionmov =         0    iscf =         7 xclevel =         1
  lmnmax =         1   lnmax =         1   mband =         1  mffmem =         1
P  mgfft =        48   mkmem =         1 mpssoang=         1     mpw =      3016
  mqgrid =      3001   natom =         1    nfft =    110592    nkpt =         1
  nloalg =         4  nspden =         2 nspinor =         1  nsppol =         2
    nsym =        48  n1xccc =         0  ntypat =         1  occopt =         2
================================================================================
P This job should need less than                      47.935 Mbytes of memory.
  Rough estimation (10% accuracy) of disk space for files :
_ WF disk file :      0.094 Mbytes ; DEN or POT disk file :      1.690 Mbytes.
================================================================================


 DATASET   51 : space group P4/m m m (#123); Bravais tP (primitive tetrag.)
================================================================================
 Values of the parameters that define the memory need for DATASET 51.
   intxc =         0  ionmov =         3    iscf =         7 xclevel =         1
  lmnmax =         1   lnmax =         1   mband =         1  mffmem =         1
P  mgfft =        50   mkmem =         1 mpssoang=         1     mpw =      3905
  mqgrid =      3001   natom =         2    nfft =    125000    nkpt =         1
  nloalg =         4  nspden =         1 nspinor =         1  nsppol =         1
    nsym =        16  n1xccc =         0  ntypat =         1  occopt =         1
================================================================================
P This job should need less than                      35.169 Mbytes of memory.
  Rough estimation (10% accuracy) of disk space for files :
_ WF disk file :      0.062 Mbytes ; DEN or POT disk file :      0.956 Mbytes.
================================================================================


 DATASET   52 : space group Pm -3 m (#221); Bravais cP (primitive cubic)
================================================================================
 Values of the parameters that define the memory need for DATASET 52.
   intxc =         0  ionmov =         0    iscf =         7 xclevel =         1
  lmnmax =         1   lnmax =         1   mband =         1  mffmem =         1
P  mgfft =        50   mkmem =         1 mpssoang=         1     mpw =      3905
  mqgrid =      3001   natom =         1    nfft =    125000    nkpt =         1
  nloalg =         4  nspden =         2 nspinor =         1  nsppol =         2
    nsym =        48  n1xccc =         0  ntypat =         1  occopt =         2
================================================================================
P This job should need less than                      54.292 Mbytes of memory.
  Rough estimation (10% accuracy) of disk space for files :
_ WF disk file :      0.121 Mbytes ; DEN or POT disk file :      1.909 Mbytes.
================================================================================


 DATASET   61 : space group P4/m m m (#123); Bravais tP (primitive tetrag.)
================================================================================
 Values of the parameters that define the memory need for DATASET 61.
   intxc =         0  ionmov =         3    iscf =         7 xclevel =         1
  lmnmax =         1   lnmax =         1   mband =         1  mffmem =         1
P  mgfft =        54   mkmem =         1 mpssoang=         1     mpw =      4922
  mqgrid =      3001   natom =         2    nfft =    157464    nkpt =         1
  nloalg =         4  nspden =         1 nspinor =         1  nsppol =         1
    nsym =        16  n1xccc =         0  ntypat =         1  occopt =         1
================================================================================
P This job should need less than                      44.190 Mbytes of memory.
  Rough estimation (10% accuracy) of disk space for files :
_ WF disk file :      0.077 Mbytes ; DEN or POT disk file :      1.203 Mbytes.
================================================================================


 DATASET   62 : space group Pm -3 m (#221); Bravais cP (primitive cubic)
================================================================================
 Values of the parameters that define the memory need for DATASET 62.
   intxc =         0  ionmov =         0    iscf =         7 xclevel =         1
  lmnmax =         1   lnmax =         1   mband =         1  mffmem =         1
P  mgfft =        54   mkmem =         1 mpssoang=         1     mpw =      4922
  mqgrid =      3001   natom =         1    nfft =    157464    nkpt =         1
  nloalg =         4  nspden =         2 nspinor =         1  nsppol =         2
    nsym =        48  n1xccc =         0  ntypat =         1  occopt =         2
================================================================================
P This job should need less than                      68.281 Mbytes of memory.
  Rough estimation (10% accuracy) of disk space for files :
_ WF disk file :      0.152 Mbytes ; DEN or POT disk file :      2.405 Mbytes.
================================================================================

--------------------------------------------------------------------------------
------------- Echo of variables that govern the present computation ------------
--------------------------------------------------------------------------------
-
- outvars: echo of selected default values                                      
-   accesswff0 =  0 , fftalg0 =112 , wfoptalg0 =  0
-
- outvars: echo of global parameters not present in the input file              
-  max_nthreads =    0
-
 -outvars: echo values of preprocessed input variables --------
            acell      1.0000000000E+01  1.0000000000E+01  1.0000000000E+01 Bohr
              amu      1.00794000E+00
        bs_loband11         0
        bs_loband12         0       0
        bs_loband21         0
        bs_loband22         0       0
        bs_loband31         0
        bs_loband32         0       0
        bs_loband41         0
        bs_loband42         0       0
        bs_loband51         0
        bs_loband52         0       0
        bs_loband61         0
        bs_loband62         0       0
           diemac      2.00000000E+00
             ecut11    1.00000000E+01 Hartree
             ecut12    1.00000000E+01 Hartree
             ecut21    1.50000000E+01 Hartree
             ecut22    1.50000000E+01 Hartree
             ecut31    2.00000000E+01 Hartree
             ecut32    2.00000000E+01 Hartree
             ecut41    2.50000000E+01 Hartree
             ecut42    2.50000000E+01 Hartree
             ecut51    3.00000000E+01 Hartree
             ecut52    3.00000000E+01 Hartree
             ecut61    3.50000000E+01 Hartree
             ecut62    3.50000000E+01 Hartree
-          fftalg         112
           ionmov11         3
           ionmov12         0
           ionmov21         3
           ionmov22         0
           ionmov31         3
           ionmov32         0
           ionmov41         3
           ionmov42         0
           ionmov51         3
           ionmov52         0
           ionmov61         3
           ionmov62         0
           istwfk        2
           jdtset       11   12   21   22   31   32   41   42   51   52
                        61   62
           kptopt           0
P           mkmem           1
            natom11         2
            natom12         1
            natom21         2
            natom22         1
            natom31         2
            natom32         1
            natom41         2
            natom42         1
            natom51         2
            natom52         1
            natom61         2
            natom62         1
            nband11         1
            nband12         1       1
            nband21         1
            nband22         1       1
            nband31         1
            nband32         1       1
            nband41         1
            nband42         1       1
            nband51         1
            nband52         1       1
            nband61         1
            nband62         1       1
           ndtset          12
            ngfft11        30      30      30
            ngfft12        30      30      30
            ngfft21        36      36      36
            ngfft22        36      36      36
            ngfft31        45      45      45
            ngfft32        45      45      45
            ngfft41        48      48      48
            ngfft42        48      48      48
            ngfft51        50      50      50
            ngfft52        50      50      50
            ngfft61        54      54      54
            ngfft62        54      54      54
             nkpt           1
           nspden11         1
           nspden12         2
           nspden21         1
           nspden22         2
           nspden31         1
           nspden32         2
           nspden41         1
           nspden42         2
           nspden51         1
           nspden52         2
           nspden61         1
           nspden62         2
           nsppol11         1
           nsppol12         2
           nsppol21         1
           nsppol22         2
           nsppol31         1
           nsppol32         2
           nsppol41         1
           nsppol42         2
           nsppol51         1
           nsppol52         2
           nsppol61         1
           nsppol62         2
            nstep          10
             nsym11        16
             nsym12        48
             nsym21        16
             nsym22        48
             nsym31        16
             nsym32        48
             nsym41        16
             nsym42        48
             nsym51        16
             nsym52        48
             nsym61        16
             nsym62        48
            ntime11        10
            ntime12         1
            ntime21        10
            ntime22         1
            ntime31        10
            ntime32         1
            ntime41        10
            ntime42         1
            ntime51        10
            ntime52         1
            ntime61        10
            ntime62         1
           ntypat           1
              occ11    2.000000
              occ12    1.000000
                       0.000000
              occ21    2.000000
              occ22    1.000000
                       0.000000
              occ31    2.000000
              occ32    1.000000
                       0.000000
              occ41    2.000000
              occ42    1.000000
                       0.000000
              occ51    2.000000
              occ52    1.000000
                       0.000000
              occ61    2.000000
              occ62    1.000000
                       0.000000
           occopt11         1
           occopt12         2
           occopt21         1
           occopt22         2
           occopt31         1
           occopt32         2
           occopt41         1
           occopt42         2
           occopt51         1
           occopt52         2
           occopt61         1
           occopt62         2
        optforces           1
          spgroup11       123
          spgroup12       221
          spgroup21       123
          spgroup22       221
          spgroup31       123
          spgroup32       221
          spgroup41       123
          spgroup42       221
          spgroup51       123
          spgroup52       221
          spgroup61       123
          spgroup62       221
           spinat12    0.0000000000E+00  0.0000000000E+00  1.0000000000E+00
           spinat22    0.0000000000E+00  0.0000000000E+00  1.0000000000E+00
           spinat32    0.0000000000E+00  0.0000000000E+00  1.0000000000E+00
           spinat42    0.0000000000E+00  0.0000000000E+00  1.0000000000E+00
           spinat52    0.0000000000E+00  0.0000000000E+00  1.0000000000E+00
           spinat62    0.0000000000E+00  0.0000000000E+00  1.0000000000E+00
           symafm11      1    1    1    1    1    1    1    1    1    1
                         1    1    1    1    1    1
           symafm12      1    1    1    1    1    1    1    1    1    1
                         1    1    1    1    1    1    1    1    1    1
                         1    1    1    1    1    1    1    1    1    1
                         1    1    1    1    1    1    1    1    1    1
                         1    1    1    1    1    1    1    1
           symafm21      1    1    1    1    1    1    1    1    1    1
                         1    1    1    1    1    1
           symafm22      1    1    1    1    1    1    1    1    1    1
                         1    1    1    1    1    1    1    1    1    1
                         1    1    1    1    1    1    1    1    1    1
                         1    1    1    1    1    1    1    1    1    1
                         1    1    1    1    1    1    1    1
           symafm31      1    1    1    1    1    1    1    1    1    1
                         1    1    1    1    1    1
           symafm32      1    1    1    1    1    1    1    1    1    1
                         1    1    1    1    1    1    1    1    1    1
                         1    1    1    1    1    1    1    1    1    1
                         1    1    1    1    1    1    1    1    1    1
                         1    1    1    1    1    1    1    1
           symafm41      1    1    1    1    1    1    1    1    1    1
                         1    1    1    1    1    1
           symafm42      1    1    1    1    1    1    1    1    1    1
                         1    1    1    1    1    1    1    1    1    1
                         1    1    1    1    1    1    1    1    1    1
                         1    1    1    1    1    1    1    1    1    1
                         1    1    1    1    1    1    1    1
           symafm51      1    1    1    1    1    1    1    1    1    1
                         1    1    1    1    1    1
           symafm52      1    1    1    1    1    1    1    1    1    1
                         1    1    1    1    1    1    1    1    1    1
                         1    1    1    1    1    1    1    1    1    1
                         1    1    1    1    1    1    1    1    1    1
                         1    1    1    1    1    1    1    1
           symafm61      1    1    1    1    1    1    1    1    1    1
                         1    1    1    1    1    1
           symafm62      1    1    1    1    1    1    1    1    1    1
                         1    1    1    1    1    1    1    1    1    1
                         1    1    1    1    1    1    1    1    1    1
                         1    1    1    1    1    1    1    1    1    1
                         1    1    1    1    1    1    1    1
           symrel11    1  0  0   0  1  0   0  0  1      -1  0  0   0 -1  0   0  0 -1
                      -1  0  0   0  1  0   0  0 -1       1  0  0   0 -1  0   0  0  1
                      -1  0  0   0 -1  0   0  0  1       1  0  0   0  1  0   0  0 -1
                       1  0  0   0 -1  0   0  0 -1      -1  0  0   0  1  0   0  0  1
                       1  0  0   0  0  1   0  1  0      -1  0  0   0  0 -1   0 -1  0
                      -1  0  0   0  0  1   0 -1  0       1  0  0   0  0 -1   0  1  0
                      -1  0  0   0  0 -1   0  1  0       1  0  0   0  0  1   0 -1  0
                       1  0  0   0  0 -1   0 -1  0      -1  0  0   0  0  1   0  1  0
           symrel12    1  0  0   0  1  0   0  0  1      -1  0  0   0 -1  0   0  0 -1
                      -1  0  0   0  1  0   0  0 -1       1  0  0   0 -1  0   0  0  1
                      -1  0  0   0 -1  0   0  0  1       1  0  0   0  1  0   0  0 -1
                       1  0  0   0 -1  0   0  0 -1      -1  0  0   0  1  0   0  0  1
                       0  1  0   1  0  0   0  0  1       0 -1  0  -1  0  0   0  0 -1
                       0 -1  0   1  0  0   0  0 -1       0  1  0  -1  0  0   0  0  1
                       0 -1  0  -1  0  0   0  0  1       0  1  0   1  0  0   0  0 -1
                       0  1  0  -1  0  0   0  0 -1       0 -1  0   1  0  0   0  0  1
                       0  0  1   1  0  0   0  1  0       0  0 -1  -1  0  0   0 -1  0
                       0  0 -1   1  0  0   0 -1  0       0  0  1  -1  0  0   0  1  0
                       0  0 -1  -1  0  0   0  1  0       0  0  1   1  0  0   0 -1  0
                       0  0  1  -1  0  0   0 -1  0       0  0 -1   1  0  0   0  1  0
                       1  0  0   0  0  1   0  1  0      -1  0  0   0  0 -1   0 -1  0
                      -1  0  0   0  0  1   0 -1  0       1  0  0   0  0 -1   0  1  0
                      -1  0  0   0  0 -1   0  1  0       1  0  0   0  0  1   0 -1  0
                       1  0  0   0  0 -1   0 -1  0      -1  0  0   0  0  1   0  1  0
                       0  1  0   0  0  1   1  0  0       0 -1  0   0  0 -1  -1  0  0
                       0 -1  0   0  0  1  -1  0  0       0  1  0   0  0 -1   1  0  0
                       0 -1  0   0  0 -1   1  0  0       0  1  0   0  0  1  -1  0  0
                       0  1  0   0  0 -1  -1  0  0       0 -1  0   0  0  1   1  0  0
                       0  0  1   0  1  0   1  0  0       0  0 -1   0 -1  0  -1  0  0
                       0  0 -1   0  1  0  -1  0  0       0  0  1   0 -1  0   1  0  0
                       0  0 -1   0 -1  0   1  0  0       0  0  1   0  1  0  -1  0  0
                       0  0  1   0 -1  0  -1  0  0       0  0 -1   0  1  0   1  0  0
           symrel21    1  0  0   0  1  0   0  0  1      -1  0  0   0 -1  0   0  0 -1
                      -1  0  0   0  1  0   0  0 -1       1  0  0   0 -1  0   0  0  1
                      -1  0  0   0 -1  0   0  0  1       1  0  0   0  1  0   0  0 -1
                       1  0  0   0 -1  0   0  0 -1      -1  0  0   0  1  0   0  0  1
                       1  0  0   0  0  1   0  1  0      -1  0  0   0  0 -1   0 -1  0
                      -1  0  0   0  0  1   0 -1  0       1  0  0   0  0 -1   0  1  0
                      -1  0  0   0  0 -1   0  1  0       1  0  0   0  0  1   0 -1  0
                       1  0  0   0  0 -1   0 -1  0      -1  0  0   0  0  1   0  1  0
           symrel22    1  0  0   0  1  0   0  0  1      -1  0  0   0 -1  0   0  0 -1
                      -1  0  0   0  1  0   0  0 -1       1  0  0   0 -1  0   0  0  1
                      -1  0  0   0 -1  0   0  0  1       1  0  0   0  1  0   0  0 -1
                       1  0  0   0 -1  0   0  0 -1      -1  0  0   0  1  0   0  0  1
                       0  1  0   1  0  0   0  0  1       0 -1  0  -1  0  0   0  0 -1
                       0 -1  0   1  0  0   0  0 -1       0  1  0  -1  0  0   0  0  1
                       0 -1  0  -1  0  0   0  0  1       0  1  0   1  0  0   0  0 -1
                       0  1  0  -1  0  0   0  0 -1       0 -1  0   1  0  0   0  0  1
                       0  0  1   1  0  0   0  1  0       0  0 -1  -1  0  0   0 -1  0
                       0  0 -1   1  0  0   0 -1  0       0  0  1  -1  0  0   0  1  0
                       0  0 -1  -1  0  0   0  1  0       0  0  1   1  0  0   0 -1  0
                       0  0  1  -1  0  0   0 -1  0       0  0 -1   1  0  0   0  1  0
                       1  0  0   0  0  1   0  1  0      -1  0  0   0  0 -1   0 -1  0
                      -1  0  0   0  0  1   0 -1  0       1  0  0   0  0 -1   0  1  0
                      -1  0  0   0  0 -1   0  1  0       1  0  0   0  0  1   0 -1  0
                       1  0  0   0  0 -1   0 -1  0      -1  0  0   0  0  1   0  1  0
                       0  1  0   0  0  1   1  0  0       0 -1  0   0  0 -1  -1  0  0
                       0 -1  0   0  0  1  -1  0  0       0  1  0   0  0 -1   1  0  0
                       0 -1  0   0  0 -1   1  0  0       0  1  0   0  0  1  -1  0  0
                       0  1  0   0  0 -1  -1  0  0       0 -1  0   0  0  1   1  0  0
                       0  0  1   0  1  0   1  0  0       0  0 -1   0 -1  0  -1  0  0
                       0  0 -1   0  1  0  -1  0  0       0  0  1   0 -1  0   1  0  0
                       0  0 -1   0 -1  0   1  0  0       0  0  1   0  1  0  -1  0  0
                       0  0  1   0 -1  0  -1  0  0       0  0 -1   0  1  0   1  0  0
           symrel31    1  0  0   0  1  0   0  0  1      -1  0  0   0 -1  0   0  0 -1
                      -1  0  0   0  1  0   0  0 -1       1  0  0   0 -1  0   0  0  1
                      -1  0  0   0 -1  0   0  0  1       1  0  0   0  1  0   0  0 -1
                       1  0  0   0 -1  0   0  0 -1      -1  0  0   0  1  0   0  0  1
                       1  0  0   0  0  1   0  1  0      -1  0  0   0  0 -1   0 -1  0
                      -1  0  0   0  0  1   0 -1  0       1  0  0   0  0 -1   0  1  0
                      -1  0  0   0  0 -1   0  1  0       1  0  0   0  0  1   0 -1  0
                       1  0  0   0  0 -1   0 -1  0      -1  0  0   0  0  1   0  1  0
           symrel32    1  0  0   0  1  0   0  0  1      -1  0  0   0 -1  0   0  0 -1
                      -1  0  0   0  1  0   0  0 -1       1  0  0   0 -1  0   0  0  1
                      -1  0  0   0 -1  0   0  0  1       1  0  0   0  1  0   0  0 -1
                       1  0  0   0 -1  0   0  0 -1      -1  0  0   0  1  0   0  0  1
                       0  1  0   1  0  0   0  0  1       0 -1  0  -1  0  0   0  0 -1
                       0 -1  0   1  0  0   0  0 -1       0  1  0  -1  0  0   0  0  1
                       0 -1  0  -1  0  0   0  0  1       0  1  0   1  0  0   0  0 -1
                       0  1  0  -1  0  0   0  0 -1       0 -1  0   1  0  0   0  0  1
                       0  0  1   1  0  0   0  1  0       0  0 -1  -1  0  0   0 -1  0
                       0  0 -1   1  0  0   0 -1  0       0  0  1  -1  0  0   0  1  0
                       0  0 -1  -1  0  0   0  1  0       0  0  1   1  0  0   0 -1  0
                       0  0  1  -1  0  0   0 -1  0       0  0 -1   1  0  0   0  1  0
                       1  0  0   0  0  1   0  1  0      -1  0  0   0  0 -1   0 -1  0
                      -1  0  0   0  0  1   0 -1  0       1  0  0   0  0 -1   0  1  0
                      -1  0  0   0  0 -1   0  1  0       1  0  0   0  0  1   0 -1  0
                       1  0  0   0  0 -1   0 -1  0      -1  0  0   0  0  1   0  1  0
                       0  1  0   0  0  1   1  0  0       0 -1  0   0  0 -1  -1  0  0
                       0 -1  0   0  0  1  -1  0  0       0  1  0   0  0 -1   1  0  0
                       0 -1  0   0  0 -1   1  0  0       0  1  0   0  0  1  -1  0  0
                       0  1  0   0  0 -1  -1  0  0       0 -1  0   0  0  1   1  0  0
                       0  0  1   0  1  0   1  0  0       0  0 -1   0 -1  0  -1  0  0
                       0  0 -1   0  1  0  -1  0  0       0  0  1   0 -1  0   1  0  0
                       0  0 -1   0 -1  0   1  0  0       0  0  1   0  1  0  -1  0  0
                       0  0  1   0 -1  0  -1  0  0       0  0 -1   0  1  0   1  0  0
           symrel41    1  0  0   0  1  0   0  0  1      -1  0  0   0 -1  0   0  0 -1
                      -1  0  0   0  1  0   0  0 -1       1  0  0   0 -1  0   0  0  1
                      -1  0  0   0 -1  0   0  0  1       1  0  0   0  1  0   0  0 -1
                       1  0  0   0 -1  0   0  0 -1      -1  0  0   0  1  0   0  0  1
                       1  0  0   0  0  1   0  1  0      -1  0  0   0  0 -1   0 -1  0
                      -1  0  0   0  0  1   0 -1  0       1  0  0   0  0 -1   0  1  0
                      -1  0  0   0  0 -1   0  1  0       1  0  0   0  0  1   0 -1  0
                       1  0  0   0  0 -1   0 -1  0      -1  0  0   0  0  1   0  1  0
           symrel42    1  0  0   0  1  0   0  0  1      -1  0  0   0 -1  0   0  0 -1
                      -1  0  0   0  1  0   0  0 -1       1  0  0   0 -1  0   0  0  1
                      -1  0  0   0 -1  0   0  0  1       1  0  0   0  1  0   0  0 -1
                       1  0  0   0 -1  0   0  0 -1      -1  0  0   0  1  0   0  0  1
                       0  1  0   1  0  0   0  0  1       0 -1  0  -1  0  0   0  0 -1
                       0 -1  0   1  0  0   0  0 -1       0  1  0  -1  0  0   0  0  1
                       0 -1  0  -1  0  0   0  0  1       0  1  0   1  0  0   0  0 -1
                       0  1  0  -1  0  0   0  0 -1       0 -1  0   1  0  0   0  0  1
                       0  0  1   1  0  0   0  1  0       0  0 -1  -1  0  0   0 -1  0
                       0  0 -1   1  0  0   0 -1  0       0  0  1  -1  0  0   0  1  0
                       0  0 -1  -1  0  0   0  1  0       0  0  1   1  0  0   0 -1  0
                       0  0  1  -1  0  0   0 -1  0       0  0 -1   1  0  0   0  1  0
                       1  0  0   0  0  1   0  1  0      -1  0  0   0  0 -1   0 -1  0
                      -1  0  0   0  0  1   0 -1  0       1  0  0   0  0 -1   0  1  0
                      -1  0  0   0  0 -1   0  1  0       1  0  0   0  0  1   0 -1  0
                       1  0  0   0  0 -1   0 -1  0      -1  0  0   0  0  1   0  1  0
                       0  1  0   0  0  1   1  0  0       0 -1  0   0  0 -1  -1  0  0
                       0 -1  0   0  0  1  -1  0  0       0  1  0   0  0 -1   1  0  0
                       0 -1  0   0  0 -1   1  0  0       0  1  0   0  0  1  -1  0  0
                       0  1  0   0  0 -1  -1  0  0       0 -1  0   0  0  1   1  0  0
                       0  0  1   0  1  0   1  0  0       0  0 -1   0 -1  0  -1  0  0
                       0  0 -1   0  1  0  -1  0  0       0  0  1   0 -1  0   1  0  0
                       0  0 -1   0 -1  0   1  0  0       0  0  1   0  1  0  -1  0  0
                       0  0  1   0 -1  0  -1  0  0       0  0 -1   0  1  0   1  0  0
           symrel51    1  0  0   0  1  0   0  0  1      -1  0  0   0 -1  0   0  0 -1
                      -1  0  0   0  1  0   0  0 -1       1  0  0   0 -1  0   0  0  1
                      -1  0  0   0 -1  0   0  0  1       1  0  0   0  1  0   0  0 -1
                       1  0  0   0 -1  0   0  0 -1      -1  0  0   0  1  0   0  0  1
                       1  0  0   0  0  1   0  1  0      -1  0  0   0  0 -1   0 -1  0
                      -1  0  0   0  0  1   0 -1  0       1  0  0   0  0 -1   0  1  0
                      -1  0  0   0  0 -1   0  1  0       1  0  0   0  0  1   0 -1  0
                       1  0  0   0  0 -1   0 -1  0      -1  0  0   0  0  1   0  1  0
           symrel52    1  0  0   0  1  0   0  0  1      -1  0  0   0 -1  0   0  0 -1
                      -1  0  0   0  1  0   0  0 -1       1  0  0   0 -1  0   0  0  1
                      -1  0  0   0 -1  0   0  0  1       1  0  0   0  1  0   0  0 -1
                       1  0  0   0 -1  0   0  0 -1      -1  0  0   0  1  0   0  0  1
                       0  1  0   1  0  0   0  0  1       0 -1  0  -1  0  0   0  0 -1
                       0 -1  0   1  0  0   0  0 -1       0  1  0  -1  0  0   0  0  1
                       0 -1  0  -1  0  0   0  0  1       0  1  0   1  0  0   0  0 -1
                       0  1  0  -1  0  0   0  0 -1       0 -1  0   1  0  0   0  0  1
                       0  0  1   1  0  0   0  1  0       0  0 -1  -1  0  0   0 -1  0
                       0  0 -1   1  0  0   0 -1  0       0  0  1  -1  0  0   0  1  0
                       0  0 -1  -1  0  0   0  1  0       0  0  1   1  0  0   0 -1  0
                       0  0  1  -1  0  0   0 -1  0       0  0 -1   1  0  0   0  1  0
                       1  0  0   0  0  1   0  1  0      -1  0  0   0  0 -1   0 -1  0
                      -1  0  0   0  0  1   0 -1  0       1  0  0   0  0 -1   0  1  0
                      -1  0  0   0  0 -1   0  1  0       1  0  0   0  0  1   0 -1  0
                       1  0  0   0  0 -1   0 -1  0      -1  0  0   0  0  1   0  1  0
                       0  1  0   0  0  1   1  0  0       0 -1  0   0  0 -1  -1  0  0
                       0 -1  0   0  0  1  -1  0  0       0  1  0   0  0 -1   1  0  0
                       0 -1  0   0  0 -1   1  0  0       0  1  0   0  0  1  -1  0  0
                       0  1  0   0  0 -1  -1  0  0       0 -1  0   0  0  1   1  0  0
                       0  0  1   0  1  0   1  0  0       0  0 -1   0 -1  0  -1  0  0
                       0  0 -1   0  1  0  -1  0  0       0  0  1   0 -1  0   1  0  0
                       0  0 -1   0 -1  0   1  0  0       0  0  1   0  1  0  -1  0  0
                       0  0  1   0 -1  0  -1  0  0       0  0 -1   0  1  0   1  0  0
           symrel61    1  0  0   0  1  0   0  0  1      -1  0  0   0 -1  0   0  0 -1
                      -1  0  0   0  1  0   0  0 -1       1  0  0   0 -1  0   0  0  1
                      -1  0  0   0 -1  0   0  0  1       1  0  0   0  1  0   0  0 -1
                       1  0  0   0 -1  0   0  0 -1      -1  0  0   0  1  0   0  0  1
                       1  0  0   0  0  1   0  1  0      -1  0  0   0  0 -1   0 -1  0
                      -1  0  0   0  0  1   0 -1  0       1  0  0   0  0 -1   0  1  0
                      -1  0  0   0  0 -1   0  1  0       1  0  0   0  0  1   0 -1  0
                       1  0  0   0  0 -1   0 -1  0      -1  0  0   0  0  1   0  1  0
           symrel62    1  0  0   0  1  0   0  0  1      -1  0  0   0 -1  0   0  0 -1
                      -1  0  0   0  1  0   0  0 -1       1  0  0   0 -1  0   0  0  1
                      -1  0  0   0 -1  0   0  0  1       1  0  0   0  1  0   0  0 -1
                       1  0  0   0 -1  0   0  0 -1      -1  0  0   0  1  0   0  0  1
                       0  1  0   1  0  0   0  0  1       0 -1  0  -1  0  0   0  0 -1
                       0 -1  0   1  0  0   0  0 -1       0  1  0  -1  0  0   0  0  1
                       0 -1  0  -1  0  0   0  0  1       0  1  0   1  0  0   0  0 -1
                       0  1  0  -1  0  0   0  0 -1       0 -1  0   1  0  0   0  0  1
                       0  0  1   1  0  0   0  1  0       0  0 -1  -1  0  0   0 -1  0
                       0  0 -1   1  0  0   0 -1  0       0  0  1  -1  0  0   0  1  0
                       0  0 -1  -1  0  0   0  1  0       0  0  1   1  0  0   0 -1  0
                       0  0  1  -1  0  0   0 -1  0       0  0 -1   1  0  0   0  1  0
                       1  0  0   0  0  1   0  1  0      -1  0  0   0  0 -1   0 -1  0
                      -1  0  0   0  0  1   0 -1  0       1  0  0   0  0 -1   0  1  0
                      -1  0  0   0  0 -1   0  1  0       1  0  0   0  0  1   0 -1  0
                       1  0  0   0  0 -1   0 -1  0      -1  0  0   0  0  1   0  1  0
                       0  1  0   0  0  1   1  0  0       0 -1  0   0  0 -1  -1  0  0
                       0 -1  0   0  0  1  -1  0  0       0  1  0   0  0 -1   1  0  0
                       0 -1  0   0  0 -1   1  0  0       0  1  0   0  0  1  -1  0  0
                       0  1  0   0  0 -1  -1  0  0       0 -1  0   0  0  1   1  0  0
                       0  0  1   0  1  0   1  0  0       0  0 -1   0 -1  0  -1  0  0
                       0  0 -1   0  1  0  -1  0  0       0  0  1   0 -1  0   1  0  0
                       0  0 -1   0 -1  0   1  0  0       0  0  1   0  1  0  -1  0  0
                       0  0  1   0 -1  0  -1  0  0       0  0 -1   0  1  0   1  0  0
            tnons11    0.0000000  0.0000000  0.0000000     0.0000000  0.0000000  0.0000000
                       0.0000000  0.0000000  0.0000000     0.0000000  0.0000000  0.0000000
                       0.0000000  0.0000000  0.0000000     0.0000000  0.0000000  0.0000000
                       0.0000000  0.0000000  0.0000000     0.0000000  0.0000000  0.0000000
                       0.0000000  0.0000000  0.0000000     0.0000000  0.0000000  0.0000000
                       0.0000000  0.0000000  0.0000000     0.0000000  0.0000000  0.0000000
                       0.0000000  0.0000000  0.0000000     0.0000000  0.0000000  0.0000000
                       0.0000000  0.0000000  0.0000000     0.0000000  0.0000000  0.0000000
            tnons12    0.0000000  0.0000000  0.0000000     0.0000000  0.0000000  0.0000000
                       0.0000000  0.0000000  0.0000000     0.0000000  0.0000000  0.0000000
                       0.0000000  0.0000000  0.0000000     0.0000000  0.0000000  0.0000000
                       0.0000000  0.0000000  0.0000000     0.0000000  0.0000000  0.0000000
                       0.0000000  0.0000000  0.0000000     0.0000000  0.0000000  0.0000000
                       0.0000000  0.0000000  0.0000000     0.0000000  0.0000000  0.0000000
                       0.0000000  0.0000000  0.0000000     0.0000000  0.0000000  0.0000000
                       0.0000000  0.0000000  0.0000000     0.0000000  0.0000000  0.0000000
                       0.0000000  0.0000000  0.0000000     0.0000000  0.0000000  0.0000000
                       0.0000000  0.0000000  0.0000000     0.0000000  0.0000000  0.0000000
                       0.0000000  0.0000000  0.0000000     0.0000000  0.0000000  0.0000000
                       0.0000000  0.0000000  0.0000000     0.0000000  0.0000000  0.0000000
                       0.0000000  0.0000000  0.0000000     0.0000000  0.0000000  0.0000000
                       0.0000000  0.0000000  0.0000000     0.0000000  0.0000000  0.0000000
                       0.0000000  0.0000000  0.0000000     0.0000000  0.0000000  0.0000000
                       0.0000000  0.0000000  0.0000000     0.0000000  0.0000000  0.0000000
                       0.0000000  0.0000000  0.0000000     0.0000000  0.0000000  0.0000000
                       0.0000000  0.0000000  0.0000000     0.0000000  0.0000000  0.0000000
                       0.0000000  0.0000000  0.0000000     0.0000000  0.0000000  0.0000000
                       0.0000000  0.0000000  0.0000000     0.0000000  0.0000000  0.0000000
                       0.0000000  0.0000000  0.0000000     0.0000000  0.0000000  0.0000000
                       0.0000000  0.0000000  0.0000000     0.0000000  0.0000000  0.0000000
                       0.0000000  0.0000000  0.0000000     0.0000000  0.0000000  0.0000000
                       0.0000000  0.0000000  0.0000000     0.0000000  0.0000000  0.0000000
            tnons21    0.0000000  0.0000000  0.0000000     0.0000000  0.0000000  0.0000000
                       0.0000000  0.0000000  0.0000000     0.0000000  0.0000000  0.0000000
                       0.0000000  0.0000000  0.0000000     0.0000000  0.0000000  0.0000000
                       0.0000000  0.0000000  0.0000000     0.0000000  0.0000000  0.0000000
                       0.0000000  0.0000000  0.0000000     0.0000000  0.0000000  0.0000000
                       0.0000000  0.0000000  0.0000000     0.0000000  0.0000000  0.0000000
                       0.0000000  0.0000000  0.0000000     0.0000000  0.0000000  0.0000000
                       0.0000000  0.0000000  0.0000000     0.0000000  0.0000000  0.0000000
            tnons22    0.0000000  0.0000000  0.0000000     0.0000000  0.0000000  0.0000000
                       0.0000000  0.0000000  0.0000000     0.0000000  0.0000000  0.0000000
                       0.0000000  0.0000000  0.0000000     0.0000000  0.0000000  0.0000000
                       0.0000000  0.0000000  0.0000000     0.0000000  0.0000000  0.0000000
                       0.0000000  0.0000000  0.0000000     0.0000000  0.0000000  0.0000000
                       0.0000000  0.0000000  0.0000000     0.0000000  0.0000000  0.0000000
                       0.0000000  0.0000000  0.0000000     0.0000000  0.0000000  0.0000000
                       0.0000000  0.0000000  0.0000000     0.0000000  0.0000000  0.0000000
                       0.0000000  0.0000000  0.0000000     0.0000000  0.0000000  0.0000000
                       0.0000000  0.0000000  0.0000000     0.0000000  0.0000000  0.0000000
                       0.0000000  0.0000000  0.0000000     0.0000000  0.0000000  0.0000000
                       0.0000000  0.0000000  0.0000000     0.0000000  0.0000000  0.0000000
                       0.0000000  0.0000000  0.0000000     0.0000000  0.0000000  0.0000000
                       0.0000000  0.0000000  0.0000000     0.0000000  0.0000000  0.0000000
                       0.0000000  0.0000000  0.0000000     0.0000000  0.0000000  0.0000000
                       0.0000000  0.0000000  0.0000000     0.0000000  0.0000000  0.0000000
                       0.0000000  0.0000000  0.0000000     0.0000000  0.0000000  0.0000000
                       0.0000000  0.0000000  0.0000000     0.0000000  0.0000000  0.0000000
                       0.0000000  0.0000000  0.0000000     0.0000000  0.0000000  0.0000000
                       0.0000000  0.0000000  0.0000000     0.0000000  0.0000000  0.0000000
                       0.0000000  0.0000000  0.0000000     0.0000000  0.0000000  0.0000000
                       0.0000000  0.0000000  0.0000000     0.0000000  0.0000000  0.0000000
                       0.0000000  0.0000000  0.0000000     0.0000000  0.0000000  0.0000000
                       0.0000000  0.0000000  0.0000000     0.0000000  0.0000000  0.0000000
            tnons31    0.0000000  0.0000000  0.0000000     0.0000000  0.0000000  0.0000000
                       0.0000000  0.0000000  0.0000000     0.0000000  0.0000000  0.0000000
                       0.0000000  0.0000000  0.0000000     0.0000000  0.0000000  0.0000000
                       0.0000000  0.0000000  0.0000000     0.0000000  0.0000000  0.0000000
                       0.0000000  0.0000000  0.0000000     0.0000000  0.0000000  0.0000000
                       0.0000000  0.0000000  0.0000000     0.0000000  0.0000000  0.0000000
                       0.0000000  0.0000000  0.0000000     0.0000000  0.0000000  0.0000000
                       0.0000000  0.0000000  0.0000000     0.0000000  0.0000000  0.0000000
            tnons32    0.0000000  0.0000000  0.0000000     0.0000000  0.0000000  0.0000000
                       0.0000000  0.0000000  0.0000000     0.0000000  0.0000000  0.0000000
                       0.0000000  0.0000000  0.0000000     0.0000000  0.0000000  0.0000000
                       0.0000000  0.0000000  0.0000000     0.0000000  0.0000000  0.0000000
                       0.0000000  0.0000000  0.0000000     0.0000000  0.0000000  0.0000000
                       0.0000000  0.0000000  0.0000000     0.0000000  0.0000000  0.0000000
                       0.0000000  0.0000000  0.0000000     0.0000000  0.0000000  0.0000000
                       0.0000000  0.0000000  0.0000000     0.0000000  0.0000000  0.0000000
                       0.0000000  0.0000000  0.0000000     0.0000000  0.0000000  0.0000000
                       0.0000000  0.0000000  0.0000000     0.0000000  0.0000000  0.0000000
                       0.0000000  0.0000000  0.0000000     0.0000000  0.0000000  0.0000000
                       0.0000000  0.0000000  0.0000000     0.0000000  0.0000000  0.0000000
                       0.0000000  0.0000000  0.0000000     0.0000000  0.0000000  0.0000000
                       0.0000000  0.0000000  0.0000000     0.0000000  0.0000000  0.0000000
                       0.0000000  0.0000000  0.0000000     0.0000000  0.0000000  0.0000000
                       0.0000000  0.0000000  0.0000000     0.0000000  0.0000000  0.0000000
                       0.0000000  0.0000000  0.0000000     0.0000000  0.0000000  0.0000000
                       0.0000000  0.0000000  0.0000000     0.0000000  0.0000000  0.0000000
                       0.0000000  0.0000000  0.0000000     0.0000000  0.0000000  0.0000000
                       0.0000000  0.0000000  0.0000000     0.0000000  0.0000000  0.0000000
                       0.0000000  0.0000000  0.0000000     0.0000000  0.0000000  0.0000000
                       0.0000000  0.0000000  0.0000000     0.0000000  0.0000000  0.0000000
                       0.0000000  0.0000000  0.0000000     0.0000000  0.0000000  0.0000000
                       0.0000000  0.0000000  0.0000000     0.0000000  0.0000000  0.0000000
            tnons41    0.0000000  0.0000000  0.0000000     0.0000000  0.0000000  0.0000000
                       0.0000000  0.0000000  0.0000000     0.0000000  0.0000000  0.0000000
                       0.0000000  0.0000000  0.0000000     0.0000000  0.0000000  0.0000000
                       0.0000000  0.0000000  0.0000000     0.0000000  0.0000000  0.0000000
                       0.0000000  0.0000000  0.0000000     0.0000000  0.0000000  0.0000000
                       0.0000000  0.0000000  0.0000000     0.0000000  0.0000000  0.0000000
                       0.0000000  0.0000000  0.0000000     0.0000000  0.0000000  0.0000000
                       0.0000000  0.0000000  0.0000000     0.0000000  0.0000000  0.0000000
            tnons42    0.0000000  0.0000000  0.0000000     0.0000000  0.0000000  0.0000000
                       0.0000000  0.0000000  0.0000000     0.0000000  0.0000000  0.0000000
                       0.0000000  0.0000000  0.0000000     0.0000000  0.0000000  0.0000000
                       0.0000000  0.0000000  0.0000000     0.0000000  0.0000000  0.0000000
                       0.0000000  0.0000000  0.0000000     0.0000000  0.0000000  0.0000000
                       0.0000000  0.0000000  0.0000000     0.0000000  0.0000000  0.0000000
                       0.0000000  0.0000000  0.0000000     0.0000000  0.0000000  0.0000000
                       0.0000000  0.0000000  0.0000000     0.0000000  0.0000000  0.0000000
                       0.0000000  0.0000000  0.0000000     0.0000000  0.0000000  0.0000000
                       0.0000000  0.0000000  0.0000000     0.0000000  0.0000000  0.0000000
                       0.0000000  0.0000000  0.0000000     0.0000000  0.0000000  0.0000000
                       0.0000000  0.0000000  0.0000000     0.0000000  0.0000000  0.0000000
                       0.0000000  0.0000000  0.0000000     0.0000000  0.0000000  0.0000000
                       0.0000000  0.0000000  0.0000000     0.0000000  0.0000000  0.0000000
                       0.0000000  0.0000000  0.0000000     0.0000000  0.0000000  0.0000000
                       0.0000000  0.0000000  0.0000000     0.0000000  0.0000000  0.0000000
                       0.0000000  0.0000000  0.0000000     0.0000000  0.0000000  0.0000000
                       0.0000000  0.0000000  0.0000000     0.0000000  0.0000000  0.0000000
                       0.0000000  0.0000000  0.0000000     0.0000000  0.0000000  0.0000000
                       0.0000000  0.0000000  0.0000000     0.0000000  0.0000000  0.0000000
                       0.0000000  0.0000000  0.0000000     0.0000000  0.0000000  0.0000000
                       0.0000000  0.0000000  0.0000000     0.0000000  0.0000000  0.0000000
                       0.0000000  0.0000000  0.0000000     0.0000000  0.0000000  0.0000000
                       0.0000000  0.0000000  0.0000000     0.0000000  0.0000000  0.0000000
            tnons51    0.0000000  0.0000000  0.0000000     0.0000000  0.0000000  0.0000000
                       0.0000000  0.0000000  0.0000000     0.0000000  0.0000000  0.0000000
                       0.0000000  0.0000000  0.0000000     0.0000000  0.0000000  0.0000000
                       0.0000000  0.0000000  0.0000000     0.0000000  0.0000000  0.0000000
                       0.0000000  0.0000000  0.0000000     0.0000000  0.0000000  0.0000000
                       0.0000000  0.0000000  0.0000000     0.0000000  0.0000000  0.0000000
                       0.0000000  0.0000000  0.0000000     0.0000000  0.0000000  0.0000000
                       0.0000000  0.0000000  0.0000000     0.0000000  0.0000000  0.0000000
            tnons52    0.0000000  0.0000000  0.0000000     0.0000000  0.0000000  0.0000000
                       0.0000000  0.0000000  0.0000000     0.0000000  0.0000000  0.0000000
                       0.0000000  0.0000000  0.0000000     0.0000000  0.0000000  0.0000000
                       0.0000000  0.0000000  0.0000000     0.0000000  0.0000000  0.0000000
                       0.0000000  0.0000000  0.0000000     0.0000000  0.0000000  0.0000000
                       0.0000000  0.0000000  0.0000000     0.0000000  0.0000000  0.0000000
                       0.0000000  0.0000000  0.0000000     0.0000000  0.0000000  0.0000000
                       0.0000000  0.0000000  0.0000000     0.0000000  0.0000000  0.0000000
                       0.0000000  0.0000000  0.0000000     0.0000000  0.0000000  0.0000000
                       0.0000000  0.0000000  0.0000000     0.0000000  0.0000000  0.0000000
                       0.0000000  0.0000000  0.0000000     0.0000000  0.0000000  0.0000000
                       0.0000000  0.0000000  0.0000000     0.0000000  0.0000000  0.0000000
                       0.0000000  0.0000000  0.0000000     0.0000000  0.0000000  0.0000000
                       0.0000000  0.0000000  0.0000000     0.0000000  0.0000000  0.0000000
                       0.0000000  0.0000000  0.0000000     0.0000000  0.0000000  0.0000000
                       0.0000000  0.0000000  0.0000000     0.0000000  0.0000000  0.0000000
                       0.0000000  0.0000000  0.0000000     0.0000000  0.0000000  0.0000000
                       0.0000000  0.0000000  0.0000000     0.0000000  0.0000000  0.0000000
                       0.0000000  0.0000000  0.0000000     0.0000000  0.0000000  0.0000000
                       0.0000000  0.0000000  0.0000000     0.0000000  0.0000000  0.0000000
                       0.0000000  0.0000000  0.0000000     0.0000000  0.0000000  0.0000000
                       0.0000000  0.0000000  0.0000000     0.0000000  0.0000000  0.0000000
                       0.0000000  0.0000000  0.0000000     0.0000000  0.0000000  0.0000000
                       0.0000000  0.0000000  0.0000000     0.0000000  0.0000000  0.0000000
            tnons61    0.0000000  0.0000000  0.0000000     0.0000000  0.0000000  0.0000000
                       0.0000000  0.0000000  0.0000000     0.0000000  0.0000000  0.0000000
                       0.0000000  0.0000000  0.0000000     0.0000000  0.0000000  0.0000000
                       0.0000000  0.0000000  0.0000000     0.0000000  0.0000000  0.0000000
                       0.0000000  0.0000000  0.0000000     0.0000000  0.0000000  0.0000000
                       0.0000000  0.0000000  0.0000000     0.0000000  0.0000000  0.0000000
                       0.0000000  0.0000000  0.0000000     0.0000000  0.0000000  0.0000000
                       0.0000000  0.0000000  0.0000000     0.0000000  0.0000000  0.0000000
            tnons62    0.0000000  0.0000000  0.0000000     0.0000000  0.0000000  0.0000000
                       0.0000000  0.0000000  0.0000000     0.0000000  0.0000000  0.0000000
                       0.0000000  0.0000000  0.0000000     0.0000000  0.0000000  0.0000000
                       0.0000000  0.0000000  0.0000000     0.0000000  0.0000000  0.0000000
                       0.0000000  0.0000000  0.0000000     0.0000000  0.0000000  0.0000000
                       0.0000000  0.0000000  0.0000000     0.0000000  0.0000000  0.0000000
                       0.0000000  0.0000000  0.0000000     0.0000000  0.0000000  0.0000000
                       0.0000000  0.0000000  0.0000000     0.0000000  0.0000000  0.0000000
                       0.0000000  0.0000000  0.0000000     0.0000000  0.0000000  0.0000000
                       0.0000000  0.0000000  0.0000000     0.0000000  0.0000000  0.0000000
                       0.0000000  0.0000000  0.0000000     0.0000000  0.0000000  0.0000000
                       0.0000000  0.0000000  0.0000000     0.0000000  0.0000000  0.0000000
                       0.0000000  0.0000000  0.0000000     0.0000000  0.0000000  0.0000000
                       0.0000000  0.0000000  0.0000000     0.0000000  0.0000000  0.0000000
                       0.0000000  0.0000000  0.0000000     0.0000000  0.0000000  0.0000000
                       0.0000000  0.0000000  0.0000000     0.0000000  0.0000000  0.0000000
                       0.0000000  0.0000000  0.0000000     0.0000000  0.0000000  0.0000000
                       0.0000000  0.0000000  0.0000000     0.0000000  0.0000000  0.0000000
                       0.0000000  0.0000000  0.0000000     0.0000000  0.0000000  0.0000000
                       0.0000000  0.0000000  0.0000000     0.0000000  0.0000000  0.0000000
                       0.0000000  0.0000000  0.0000000     0.0000000  0.0000000  0.0000000
                       0.0000000  0.0000000  0.0000000     0.0000000  0.0000000  0.0000000
                       0.0000000  0.0000000  0.0000000     0.0000000  0.0000000  0.0000000
                       0.0000000  0.0000000  0.0000000     0.0000000  0.0000000  0.0000000
           toldfe11    0.00000000E+00 Hartree
           toldfe12    1.00000000E-06 Hartree
           toldfe21    0.00000000E+00 Hartree
           toldfe22    1.00000000E-06 Hartree
           toldfe31    0.00000000E+00 Hartree
           toldfe32    1.00000000E-06 Hartree
           toldfe41    0.00000000E+00 Hartree
           toldfe42    1.00000000E-06 Hartree
           toldfe51    0.00000000E+00 Hartree
           toldfe52    1.00000000E-06 Hartree
           toldfe61    0.00000000E+00 Hartree
           toldfe62    1.00000000E-06 Hartree
           toldff11    5.00000000E-05
           toldff12    0.00000000E+00
           toldff21    5.00000000E-05
           toldff22    0.00000000E+00
           toldff31    5.00000000E-05
           toldff32    0.00000000E+00
           toldff41    5.00000000E-05
           toldff42    0.00000000E+00
           toldff51    5.00000000E-05
           toldff52    0.00000000E+00
           toldff61    5.00000000E-05
           toldff62    0.00000000E+00
           tolmxf11    5.00000000E-04
           tolmxf12    5.00000000E-05
           tolmxf21    5.00000000E-04
           tolmxf22    5.00000000E-05
           tolmxf31    5.00000000E-04
           tolmxf32    5.00000000E-05
           tolmxf41    5.00000000E-04
           tolmxf42    5.00000000E-05
           tolmxf51    5.00000000E-04
           tolmxf52    5.00000000E-05
           tolmxf61    5.00000000E-04
           tolmxf62    5.00000000E-05
            typat11    1  1
            typat12    1
            typat21    1  1
            typat22    1
            typat31    1  1
            typat32    1
            typat41    1  1
            typat42    1
            typat51    1  1
            typat52    1
            typat61    1  1
            typat62    1
           xangst11   -3.7042404601E-01  0.0000000000E+00  0.0000000000E+00
                       3.7042404601E-01  0.0000000000E+00  0.0000000000E+00
           xangst12    0.0000000000E+00  0.0000000000E+00  0.0000000000E+00
           xangst21   -3.7042404601E-01  0.0000000000E+00  0.0000000000E+00
                       3.7042404601E-01  0.0000000000E+00  0.0000000000E+00
           xangst22    0.0000000000E+00  0.0000000000E+00  0.0000000000E+00
           xangst31   -3.7042404601E-01  0.0000000000E+00  0.0000000000E+00
                       3.7042404601E-01  0.0000000000E+00  0.0000000000E+00
           xangst32    0.0000000000E+00  0.0000000000E+00  0.0000000000E+00
           xangst41   -3.7042404601E-01  0.0000000000E+00  0.0000000000E+00
                       3.7042404601E-01  0.0000000000E+00  0.0000000000E+00
           xangst42    0.0000000000E+00  0.0000000000E+00  0.0000000000E+00
           xangst51   -3.7042404601E-01  0.0000000000E+00  0.0000000000E+00
                       3.7042404601E-01  0.0000000000E+00  0.0000000000E+00
           xangst52    0.0000000000E+00  0.0000000000E+00  0.0000000000E+00
           xangst61   -3.7042404601E-01  0.0000000000E+00  0.0000000000E+00
                       3.7042404601E-01  0.0000000000E+00  0.0000000000E+00
           xangst62    0.0000000000E+00  0.0000000000E+00  0.0000000000E+00
            xcart11   -7.0000000000E-01  0.0000000000E+00  0.0000000000E+00
                       7.0000000000E-01  0.0000000000E+00  0.0000000000E+00
            xcart12    0.0000000000E+00  0.0000000000E+00  0.0000000000E+00
            xcart21   -7.0000000000E-01  0.0000000000E+00  0.0000000000E+00
                       7.0000000000E-01  0.0000000000E+00  0.0000000000E+00
            xcart22    0.0000000000E+00  0.0000000000E+00  0.0000000000E+00
            xcart31   -7.0000000000E-01  0.0000000000E+00  0.0000000000E+00
                       7.0000000000E-01  0.0000000000E+00  0.0000000000E+00
            xcart32    0.0000000000E+00  0.0000000000E+00  0.0000000000E+00
            xcart41   -7.0000000000E-01  0.0000000000E+00  0.0000000000E+00
                       7.0000000000E-01  0.0000000000E+00  0.0000000000E+00
            xcart42    0.0000000000E+00  0.0000000000E+00  0.0000000000E+00
            xcart51   -7.0000000000E-01  0.0000000000E+00  0.0000000000E+00
                       7.0000000000E-01  0.0000000000E+00  0.0000000000E+00
            xcart52    0.0000000000E+00  0.0000000000E+00  0.0000000000E+00
            xcart61   -7.0000000000E-01  0.0000000000E+00  0.0000000000E+00
                       7.0000000000E-01  0.0000000000E+00  0.0000000000E+00
            xcart62    0.0000000000E+00  0.0000000000E+00  0.0000000000E+00
             xred11   -7.0000000000E-02  0.0000000000E+00  0.0000000000E+00
                       7.0000000000E-02  0.0000000000E+00  0.0000000000E+00
             xred12    0.0000000000E+00  0.0000000000E+00  0.0000000000E+00
             xred21   -7.0000000000E-02  0.0000000000E+00  0.0000000000E+00
                       7.0000000000E-02  0.0000000000E+00  0.0000000000E+00
             xred22    0.0000000000E+00  0.0000000000E+00  0.0000000000E+00
             xred31   -7.0000000000E-02  0.0000000000E+00  0.0000000000E+00
                       7.0000000000E-02  0.0000000000E+00  0.0000000000E+00
             xred32    0.0000000000E+00  0.0000000000E+00  0.0000000000E+00
             xred41   -7.0000000000E-02  0.0000000000E+00  0.0000000000E+00
                       7.0000000000E-02  0.0000000000E+00  0.0000000000E+00
             xred42    0.0000000000E+00  0.0000000000E+00  0.0000000000E+00
             xred51   -7.0000000000E-02  0.0000000000E+00  0.0000000000E+00
                       7.0000000000E-02  0.0000000000E+00  0.0000000000E+00
             xred52    0.0000000000E+00  0.0000000000E+00  0.0000000000E+00
             xred61   -7.0000000000E-02  0.0000000000E+00  0.0000000000E+00
                       7.0000000000E-02  0.0000000000E+00  0.0000000000E+00
             xred62    0.0000000000E+00  0.0000000000E+00  0.0000000000E+00
            znucl        1.00000

================================================================================

 chkinp: Checking input parameters for consistency, jdtset=  11.

 chkinp: Checking input parameters for consistency, jdtset=  12.

 chkinp: Checking input parameters for consistency, jdtset=  21.

 chkinp: Checking input parameters for consistency, jdtset=  22.

 chkinp: Checking input parameters for consistency, jdtset=  31.

 chkinp: Checking input parameters for consistency, jdtset=  32.

 chkinp: Checking input parameters for consistency, jdtset=  41.

 chkinp: Checking input parameters for consistency, jdtset=  42.

 chkinp: Checking input parameters for consistency, jdtset=  51.

 chkinp: Checking input parameters for consistency, jdtset=  52.

 chkinp: Checking input parameters for consistency, jdtset=  61.

 chkinp: Checking input parameters for consistency, jdtset=  62.

================================================================================
== DATASET 11 ==================================================================
-   nproc =    1

 Exchange-correlation functional for the present dataset will be:
  LDA: new Teter (4/93) with spin-polarized option - ixc=1
 Citation for XC functional:
  S. Goedecker, M. Teter, J. Huetter, PRB 54, 1703 (1996)

 Real(R)+Recip(G) space primitive vectors, cartesian coordinates (Bohr,Bohr^-1):
 R(1)= 10.0000000  0.0000000  0.0000000  G(1)=  0.1000000  0.0000000  0.0000000
 R(2)=  0.0000000 10.0000000  0.0000000  G(2)=  0.0000000  0.1000000  0.0000000
 R(3)=  0.0000000  0.0000000 10.0000000  G(3)=  0.0000000  0.0000000  0.1000000
 Unit cell volume ucvol=  1.0000000E+03 bohr^3
 Angles (23,13,12)=  9.00000000E+01  9.00000000E+01  9.00000000E+01 degrees

 getcut: wavevector=  0.0000  0.0000  0.0000  ngfft=  30  30  30
         ecut(hartree)=     10.000   => boxcut(ratio)=   2.10744

--- Pseudopotential description ------------------------------------------------
- pspini: atom type   1  psp file is /home/gonze/ABINIT/ABINITv7.9.3/trunk/7.9.3-private/tests/Psps_for_tests/01h.pspgth
- pspatm: opening atomic psp file    /home/gonze/ABINIT/ABINITv7.9.3/trunk/7.9.3-private/tests/Psps_for_tests/01h.pspgth
- Goedecker-Teter-Hutter  Wed May  8 14:27:44 EDT 1996
-  1.00000   1.00000    960508                znucl, zion, pspdat
    2    1    0    0      2001   0.00000      pspcod,pspxc,lmax,lloc,mmax,r2well
 rloc=   0.2000000
  cc1=  -4.0663326; cc2=   0.6778322; cc3=   0.0000000; cc4=   0.0000000
  rrs=   0.0000000; h1s=   0.0000000; h2s=   0.0000000
  rrp=   0.0000000; h1p=   0.0000000
-  Local part computed in reciprocal space.

 pspatm : COMMENT -
  the projectors are not normalized,
  so that the KB energies are not consistent with 
  definition in PRB44, 8503 (1991). 
  However, this does not influence the results obtained hereafter.
 pspatm: epsatm=   -0.00480358
         --- l  ekb(1:nproj) -->
 pspatm: atomic psp has been read  and splines computed

  -1.92143215E-02                                ecore*ucvol(ha*bohr**3)
--------------------------------------------------------------------------------

P newkpt: treating      1 bands with npw=     752 for ikpt=   1 by node    0

_setup2: Arith. and geom. avg. npw (full set) are    1503.000    1503.000

================================================================================

=== [ionmov= 3] Broyden-Fletcher-Goldfard-Shanno method (forces,Tot energy) 
================================================================================

--- Iteration: ( 1/10) Internal Cycle: (1/1)
--------------------------------------------------------------------------------

---SELF-CONSISTENT-FIELD CONVERGENCE--------------------------------------------

     iter   Etot(hartree)      deltaE(h)  residm     vres2    diffor    maxfor
 ETOT  1  -1.1013590048942    -1.101E+00 2.790E-06 8.389E+00 2.480E-02 2.480E-02
 ETOT  2  -1.1036942492547    -2.335E-03 6.079E-10 2.843E-01 1.302E-02 3.782E-02
 ETOT  3  -1.1037171066576    -2.286E-05 1.947E-08 1.545E-02 1.194E-03 3.662E-02
 ETOT  4  -1.1037223545263    -5.248E-06 3.080E-08 2.641E-04 8.484E-04 3.747E-02
 ETOT  5  -1.1037224211663    -6.664E-08 3.790E-10 8.035E-06 6.596E-05 3.740E-02
 ETOT  6  -1.1037224213119    -1.456E-10 1.920E-13 3.970E-07 1.754E-06 3.741E-02
 ETOT  7  -1.1037224213379    -2.606E-11 9.259E-14 9.779E-09 1.418E-06 3.740E-02

 At SCF step    7, forces are converged : 
  for the second time, max diff in force=  1.418E-06 < toldff=  5.000E-05

 Cartesian components of stress tensor (hartree/bohr^3)
  sigma(1 1)= -1.64354976E-05  sigma(3 2)=  0.00000000E+00
  sigma(2 2)=  3.60114991E-05  sigma(3 1)=  0.00000000E+00
  sigma(3 3)=  3.60114991E-05  sigma(2 1)=  0.00000000E+00


---OUTPUT-----------------------------------------------------------------------

 Cartesian coordinates (xcart) [bohr]
 -7.00000000000000E-01  0.00000000000000E+00  0.00000000000000E+00
  7.00000000000000E-01  0.00000000000000E+00  0.00000000000000E+00
 Reduced coordinates (xred)
 -7.00000000000000E-02  0.00000000000000E+00  0.00000000000000E+00
  7.00000000000000E-02  0.00000000000000E+00  0.00000000000000E+00
 Cartesian forces (fcart) [Ha/bohr]; max,rms= 3.74043E-02 2.15954E-02 (free atoms)
 -3.74042929459420E-02 -0.00000000000000E+00 -0.00000000000000E+00
  3.74042929459420E-02 -0.00000000000000E+00 -0.00000000000000E+00
 Reduced forces (fred)
  3.74042929459420E-01  0.00000000000000E+00  0.00000000000000E+00
 -3.74042929459420E-01  0.00000000000000E+00  0.00000000000000E+00
 Total energy (etotal) [Ha]= -1.10372242133793E+00

--- Iteration: ( 2/10) Internal Cycle: (1/1)
--------------------------------------------------------------------------------

---SELF-CONSISTENT-FIELD CONVERGENCE--------------------------------------------

     iter   Etot(hartree)      deltaE(h)  residm     vres2    diffor    maxfor
 ETOT  1  -1.1055395556802    -1.106E+00 2.497E-10 4.973E-02 2.480E-02 1.261E-02
 ETOT  2  -1.1055522370018    -1.268E-05 3.023E-12 1.330E-03 2.024E-04 1.240E-02
 ETOT  3  -1.1055525240950    -2.871E-07 2.475E-09 2.405E-04 2.101E-04 1.261E-02
 ETOT  4  -1.1055525566531    -3.256E-08 1.770E-10 5.268E-06 5.187E-05 1.256E-02
 ETOT  5  -1.1055525570209    -3.678E-10 3.130E-13 8.758E-08 2.693E-06 1.257E-02
 ETOT  6  -1.1055525570220    -1.118E-12 9.726E-16 1.992E-09 9.891E-08 1.257E-02

 At SCF step    6, forces are converged : 
  for the second time, max diff in force=  9.891E-08 < toldff=  5.000E-05

 Cartesian components of stress tensor (hartree/bohr^3)
  sigma(1 1)=  2.14754028E-05  sigma(3 2)=  0.00000000E+00
  sigma(2 2)=  3.50015519E-05  sigma(3 1)=  0.00000000E+00
  sigma(3 3)=  3.50015519E-05  sigma(2 1)=  0.00000000E+00


---OUTPUT-----------------------------------------------------------------------

 Cartesian coordinates (xcart) [bohr]
 -7.37404292945942E-01  0.00000000000000E+00  0.00000000000000E+00
  7.37404292945942E-01  0.00000000000000E+00  0.00000000000000E+00
 Reduced coordinates (xred)
 -7.37404292945942E-02  0.00000000000000E+00  0.00000000000000E+00
  7.37404292945942E-02  0.00000000000000E+00  0.00000000000000E+00
 Cartesian forces (fcart) [Ha/bohr]; max,rms= 1.25652E-02 7.25449E-03 (free atoms)
 -1.25651504937871E-02 -0.00000000000000E+00 -0.00000000000000E+00
  1.25651504937871E-02 -0.00000000000000E+00 -0.00000000000000E+00
 Reduced forces (fred)
  1.25651504937871E-01  0.00000000000000E+00  0.00000000000000E+00
 -1.25651504937871E-01  0.00000000000000E+00  0.00000000000000E+00
 Total energy (etotal) [Ha]= -1.10555255702201E+00

 Difference of energy with previous step (new-old):
           Absolute (Ha)=-1.83014E-03
           Relative     =-1.65677E-03

--- Iteration: ( 3/10) Internal Cycle: (1/1)
--------------------------------------------------------------------------------

---SELF-CONSISTENT-FIELD CONVERGENCE--------------------------------------------

     iter   Etot(hartree)      deltaE(h)  residm     vres2    diffor    maxfor
 ETOT  1  -1.1058312013257    -1.106E+00 1.005E-10 1.884E-02 1.273E-02 1.627E-04
 ETOT  2  -1.1058359487269    -4.747E-06 1.103E-12 5.003E-04 1.148E-04 2.775E-04
 ETOT  3  -1.1058360527207    -1.040E-07 8.899E-10 8.926E-05 1.227E-04 1.548E-04
 ETOT  4  -1.1058360642148    -1.149E-08 6.205E-11 1.997E-06 2.954E-05 1.843E-04
 ETOT  5  -1.1058360643513    -1.365E-10 1.158E-13 3.325E-08 1.606E-06 1.827E-04

 At SCF step    5, forces are converged : 
  for the second time, max diff in force=  1.606E-06 < toldff=  5.000E-05

 Cartesian components of stress tensor (hartree/bohr^3)
  sigma(1 1)=  4.24046801E-05  sigma(3 2)=  0.00000000E+00
  sigma(2 2)=  3.45803039E-05  sigma(3 1)=  0.00000000E+00
  sigma(3 3)=  3.45803039E-05  sigma(2 1)=  0.00000000E+00


---OUTPUT-----------------------------------------------------------------------

 Cartesian coordinates (xcart) [bohr]
 -7.60910157595785E-01  0.00000000000000E+00  0.00000000000000E+00
  7.60910157595785E-01  0.00000000000000E+00  0.00000000000000E+00
 Reduced coordinates (xred)
 -7.60910157595785E-02  0.00000000000000E+00  0.00000000000000E+00
  7.60910157595785E-02  0.00000000000000E+00  0.00000000000000E+00
 Cartesian forces (fcart) [Ha/bohr]; max,rms= 1.82705E-04 1.05485E-04 (free atoms)
  1.82705337595794E-04 -0.00000000000000E+00 -0.00000000000000E+00
 -1.82705337595794E-04 -0.00000000000000E+00 -0.00000000000000E+00
 Reduced forces (fred)
 -1.82705337595794E-03  0.00000000000000E+00  0.00000000000000E+00
  1.82705337595794E-03  0.00000000000000E+00  0.00000000000000E+00
 Total energy (etotal) [Ha]= -1.10583606435129E+00

 Difference of energy with previous step (new-old):
           Absolute (Ha)=-2.83507E-04
           Relative     =-2.56407E-04

 At Broyd/MD step   3, gradients are converged : 
  max grad (force/stress) = 1.8271E-04 < tolmxf= 5.0000E-04 ha/bohr (free atoms)

================================================================================

 ----iterations are completed or convergence reached----

 Mean square residual over all n,k,spin=   1.1578E-13; max=  1.1578E-13
   0.0000  0.0000  0.0000    1  1.15783E-13 kpt; spin; max resid(k); each band:
  1.16E-13
 reduced coordinates (array xred) for    2 atoms
      -0.076091015760      0.000000000000      0.000000000000
       0.076091015760      0.000000000000      0.000000000000
 rms dE/dt=  1.0548E-03; max dE/dt=  1.8271E-03; dE/dt below (all hartree)
    1      -0.001827053376      0.000000000000      0.000000000000
    2       0.001827053376      0.000000000000      0.000000000000

 cartesian coordinates (angstrom) at end:
    1     -0.40265631318431     0.00000000000000     0.00000000000000
    2      0.40265631318431     0.00000000000000     0.00000000000000

 cartesian forces (hartree/bohr) at end:
    1      0.00018270533760    -0.00000000000000    -0.00000000000000
    2     -0.00018270533760    -0.00000000000000    -0.00000000000000
 frms,max,avg= 1.0548498E-04 1.8270534E-04   0.000E+00  0.000E+00  0.000E+00 h/b

 cartesian forces (eV/Angstrom) at end:
    1      0.00939508541541    -0.00000000000000    -0.00000000000000
    2     -0.00939508541541    -0.00000000000000    -0.00000000000000
 frms,max,avg= 5.4242551E-03 9.3950854E-03   0.000E+00  0.000E+00  0.000E+00 e/A
 length scales= 10.000000000000 10.000000000000 10.000000000000 bohr
              =  5.291772085900  5.291772085900  5.291772085900 angstroms
 prteigrs : about to open file tbase2_2o_DS11_EIG
 Fermi (or HOMO) energy (hartree) =  -0.35518   Average Vxc (hartree)=  -0.07655
 Eigenvalues (hartree) for nkpt=   1  k points:
 kpt#   1, nband=  1, wtk=  1.00000, kpt=  0.0000  0.0000  0.0000 (reduced coord)
  -0.35518
 Total charge density [el/Bohr^3]
,     Maximum=    2.3390E-01  at reduced coord.    0.0000    0.0000    0.0000
,Next maximum=    2.3151E-01  at reduced coord.    0.9667    0.0000    0.0000
,     Minimum=    1.1518E-09  at reduced coord.    0.0667    0.5000    0.5000
,Next minimum=    1.1518E-09  at reduced coord.    0.9333    0.5000    0.5000
,  Integrated=    2.0000E+00

--------------------------------------------------------------------------------
 Components of total free energy (in Hartree) :

    Kinetic energy  =  9.49867400596515E-01
    Hartree energy  =  6.78517455886406E-01
    XC energy       = -6.16492591101066E-01
    Ewald energy    =  9.46663102121513E-02
    PspCore energy  = -1.92143215271889E-05
    Loc. psp. energy= -2.21237542562376E+00
    NL   psp  energy=  0.00000000000000E+00
    >>>>>>>>> Etotal= -1.10583606435129E+00

 Other information on the energy :
    Total energy(eV)= -3.00913296332945E+01 ; Band energy (Ha)=  -7.1035374788E-01
--------------------------------------------------------------------------------
 rms coord change=  3.5166E-03   atom, delta coord (reduced):
     1       -0.006091015760      0.000000000000      0.000000000000
     2        0.006091015760      0.000000000000      0.000000000000

 Cartesian components of stress tensor (hartree/bohr^3)
  sigma(1 1)=  4.24046801E-05  sigma(3 2)=  0.00000000E+00
  sigma(2 2)=  3.45803039E-05  sigma(3 1)=  0.00000000E+00
  sigma(3 3)=  3.45803039E-05  sigma(2 1)=  0.00000000E+00

-Cartesian components of stress tensor (GPa)         [Pressure= -1.0941E+00 GPa]
- sigma(1 1)=  1.24758855E+00  sigma(3 2)=  0.00000000E+00
- sigma(2 2)=  1.01738749E+00  sigma(3 1)=  0.00000000E+00
- sigma(3 3)=  1.01738749E+00  sigma(2 1)=  0.00000000E+00

================================================================================
== DATASET 12 ==================================================================
-   nproc =    1

 Exchange-correlation functional for the present dataset will be:
  LDA: new Teter (4/93) with spin-polarized option - ixc=1
 Citation for XC functional:
  S. Goedecker, M. Teter, J. Huetter, PRB 54, 1703 (1996)

 Real(R)+Recip(G) space primitive vectors, cartesian coordinates (Bohr,Bohr^-1):
 R(1)= 10.0000000  0.0000000  0.0000000  G(1)=  0.1000000  0.0000000  0.0000000
 R(2)=  0.0000000 10.0000000  0.0000000  G(2)=  0.0000000  0.1000000  0.0000000
 R(3)=  0.0000000  0.0000000 10.0000000  G(3)=  0.0000000  0.0000000  0.1000000
 Unit cell volume ucvol=  1.0000000E+03 bohr^3
 Angles (23,13,12)=  9.00000000E+01  9.00000000E+01  9.00000000E+01 degrees

 getcut: wavevector=  0.0000  0.0000  0.0000  ngfft=  30  30  30
         ecut(hartree)=     10.000   => boxcut(ratio)=   2.10744
  -4.80358038E-03                                ecore*ucvol(ha*bohr**3)
--------------------------------------------------------------------------------

P newkpt: treating      1 bands with npw=     752 for ikpt=   1 by node    0
P newkpt: treating      1 bands with npw=     752 for ikpt=   1 by node    0

_setup2: Arith. and geom. avg. npw (full set) are    1503.000    1503.000

================================================================================

     iter   Etot(hartree)      deltaE(h)  residm     vres2    diffor    maxfor
 ETOT  1 -0.46980757227245    -4.698E-01 5.815E-06 6.237E+00 0.000E+00 0.000E+00
 ETOT  2 -0.47008829985620    -2.807E-04 2.519E-11 4.994E-01 0.000E+00 0.000E+00
 ETOT  3 -0.47010514260039    -1.684E-05 1.440E-07 1.388E-02 0.000E+00 0.000E+00
 ETOT  4 -0.47010529456329    -1.520E-07 2.587E-09 4.788E-04 0.000E+00 0.000E+00
 ETOT  5 -0.47010531489229    -2.033E-08 1.467E-11 1.064E-05 0.000E+00 0.000E+00

 At SCF step    5, etot is converged : 
  for the second time, diff in etot=  2.033E-08 < toldfe=  1.000E-06

 Cartesian components of stress tensor (hartree/bohr^3)
  sigma(1 1)=  1.80449486E-05  sigma(3 2)=  0.00000000E+00
  sigma(2 2)=  1.80449486E-05  sigma(3 1)=  0.00000000E+00
  sigma(3 3)=  1.80449486E-05  sigma(2 1)=  0.00000000E+00

================================================================================

 ----iterations are completed or convergence reached----

 Mean square residual over all n,k,spin=   1.4158E-11; max=  1.4666E-11
   0.0000  0.0000  0.0000    1  1.46657E-11 kpt; spin; max resid(k); each band:
  1.47E-11
   0.0000  0.0000  0.0000    2  1.36504E-11 kpt; spin; max resid(k); each band:
  1.37E-11
 reduced coordinates (array xred) for    1 atoms
       0.000000000000      0.000000000000      0.000000000000
 rms dE/dt=  0.0000E+00; max dE/dt=  0.0000E+00; dE/dt below (all hartree)
    1       0.000000000000      0.000000000000      0.000000000000

 cartesian coordinates (angstrom) at end:
    1      0.00000000000000     0.00000000000000     0.00000000000000

 cartesian forces (hartree/bohr) at end:
    1     -0.00000000000000    -0.00000000000000    -0.00000000000000
 frms,max,avg= 0.0000000E+00 0.0000000E+00   0.000E+00  0.000E+00  0.000E+00 h/b

[...]
                       0.0000000  0.0000000  0.0000000     0.0000000  0.0000000  0.0000000
                       0.0000000  0.0000000  0.0000000     0.0000000  0.0000000  0.0000000
                       0.0000000  0.0000000  0.0000000     0.0000000  0.0000000  0.0000000
                       0.0000000  0.0000000  0.0000000     0.0000000  0.0000000  0.0000000
                       0.0000000  0.0000000  0.0000000     0.0000000  0.0000000  0.0000000
                       0.0000000  0.0000000  0.0000000     0.0000000  0.0000000  0.0000000
                       0.0000000  0.0000000  0.0000000     0.0000000  0.0000000  0.0000000
                       0.0000000  0.0000000  0.0000000     0.0000000  0.0000000  0.0000000
                       0.0000000  0.0000000  0.0000000     0.0000000  0.0000000  0.0000000
                       0.0000000  0.0000000  0.0000000     0.0000000  0.0000000  0.0000000
                       0.0000000  0.0000000  0.0000000     0.0000000  0.0000000  0.0000000
                       0.0000000  0.0000000  0.0000000     0.0000000  0.0000000  0.0000000
                       0.0000000  0.0000000  0.0000000     0.0000000  0.0000000  0.0000000
                       0.0000000  0.0000000  0.0000000     0.0000000  0.0000000  0.0000000
                       0.0000000  0.0000000  0.0000000     0.0000000  0.0000000  0.0000000
                       0.0000000  0.0000000  0.0000000     0.0000000  0.0000000  0.0000000
                       0.0000000  0.0000000  0.0000000     0.0000000  0.0000000  0.0000000
                       0.0000000  0.0000000  0.0000000     0.0000000  0.0000000  0.0000000
            tnons41    0.0000000  0.0000000  0.0000000     0.0000000  0.0000000  0.0000000
                       0.0000000  0.0000000  0.0000000     0.0000000  0.0000000  0.0000000
                       0.0000000  0.0000000  0.0000000     0.0000000  0.0000000  0.0000000
                       0.0000000  0.0000000  0.0000000     0.0000000  0.0000000  0.0000000
                       0.0000000  0.0000000  0.0000000     0.0000000  0.0000000  0.0000000
                       0.0000000  0.0000000  0.0000000     0.0000000  0.0000000  0.0000000
                       0.0000000  0.0000000  0.0000000     0.0000000  0.0000000  0.0000000
                       0.0000000  0.0000000  0.0000000     0.0000000  0.0000000  0.0000000
            tnons42    0.0000000  0.0000000  0.0000000     0.0000000  0.0000000  0.0000000
                       0.0000000  0.0000000  0.0000000     0.0000000  0.0000000  0.0000000
                       0.0000000  0.0000000  0.0000000     0.0000000  0.0000000  0.0000000
                       0.0000000  0.0000000  0.0000000     0.0000000  0.0000000  0.0000000
                       0.0000000  0.0000000  0.0000000     0.0000000  0.0000000  0.0000000
                       0.0000000  0.0000000  0.0000000     0.0000000  0.0000000  0.0000000
                       0.0000000  0.0000000  0.0000000     0.0000000  0.0000000  0.0000000
                       0.0000000  0.0000000  0.0000000     0.0000000  0.0000000  0.0000000
                       0.0000000  0.0000000  0.0000000     0.0000000  0.0000000  0.0000000
                       0.0000000  0.0000000  0.0000000     0.0000000  0.0000000  0.0000000
                       0.0000000  0.0000000  0.0000000     0.0000000  0.0000000  0.0000000
                       0.0000000  0.0000000  0.0000000     0.0000000  0.0000000  0.0000000
                       0.0000000  0.0000000  0.0000000     0.0000000  0.0000000  0.0000000
                       0.0000000  0.0000000  0.0000000     0.0000000  0.0000000  0.0000000
                       0.0000000  0.0000000  0.0000000     0.0000000  0.0000000  0.0000000
                       0.0000000  0.0000000  0.0000000     0.0000000  0.0000000  0.0000000
                       0.0000000  0.0000000  0.0000000     0.0000000  0.0000000  0.0000000
                       0.0000000  0.0000000  0.0000000     0.0000000  0.0000000  0.0000000
                       0.0000000  0.0000000  0.0000000     0.0000000  0.0000000  0.0000000
                       0.0000000  0.0000000  0.0000000     0.0000000  0.0000000  0.0000000
                       0.0000000  0.0000000  0.0000000     0.0000000  0.0000000  0.0000000
                       0.0000000  0.0000000  0.0000000     0.0000000  0.0000000  0.0000000
                       0.0000000  0.0000000  0.0000000     0.0000000  0.0000000  0.0000000
                       0.0000000  0.0000000  0.0000000     0.0000000  0.0000000  0.0000000
            tnons51    0.0000000  0.0000000  0.0000000     0.0000000  0.0000000  0.0000000
                       0.0000000  0.0000000  0.0000000     0.0000000  0.0000000  0.0000000
                       0.0000000  0.0000000  0.0000000     0.0000000  0.0000000  0.0000000
                       0.0000000  0.0000000  0.0000000     0.0000000  0.0000000  0.0000000
                       0.0000000  0.0000000  0.0000000     0.0000000  0.0000000  0.0000000
                       0.0000000  0.0000000  0.0000000     0.0000000  0.0000000  0.0000000
                       0.0000000  0.0000000  0.0000000     0.0000000  0.0000000  0.0000000
                       0.0000000  0.0000000  0.0000000     0.0000000  0.0000000  0.0000000
            tnons52    0.0000000  0.0000000  0.0000000     0.0000000  0.0000000  0.0000000
                       0.0000000  0.0000000  0.0000000     0.0000000  0.0000000  0.0000000
                       0.0000000  0.0000000  0.0000000     0.0000000  0.0000000  0.0000000
                       0.0000000  0.0000000  0.0000000     0.0000000  0.0000000  0.0000000
                       0.0000000  0.0000000  0.0000000     0.0000000  0.0000000  0.0000000
                       0.0000000  0.0000000  0.0000000     0.0000000  0.0000000  0.0000000
                       0.0000000  0.0000000  0.0000000     0.0000000  0.0000000  0.0000000
                       0.0000000  0.0000000  0.0000000     0.0000000  0.0000000  0.0000000
                       0.0000000  0.0000000  0.0000000     0.0000000  0.0000000  0.0000000
                       0.0000000  0.0000000  0.0000000     0.0000000  0.0000000  0.0000000
                       0.0000000  0.0000000  0.0000000     0.0000000  0.0000000  0.0000000
                       0.0000000  0.0000000  0.0000000     0.0000000  0.0000000  0.0000000
                       0.0000000  0.0000000  0.0000000     0.0000000  0.0000000  0.0000000
                       0.0000000  0.0000000  0.0000000     0.0000000  0.0000000  0.0000000
                       0.0000000  0.0000000  0.0000000     0.0000000  0.0000000  0.0000000
                       0.0000000  0.0000000  0.0000000     0.0000000  0.0000000  0.0000000
                       0.0000000  0.0000000  0.0000000     0.0000000  0.0000000  0.0000000
                       0.0000000  0.0000000  0.0000000     0.0000000  0.0000000  0.0000000
                       0.0000000  0.0000000  0.0000000     0.0000000  0.0000000  0.0000000
                       0.0000000  0.0000000  0.0000000     0.0000000  0.0000000  0.0000000
                       0.0000000  0.0000000  0.0000000     0.0000000  0.0000000  0.0000000
                       0.0000000  0.0000000  0.0000000     0.0000000  0.0000000  0.0000000
                       0.0000000  0.0000000  0.0000000     0.0000000  0.0000000  0.0000000
                       0.0000000  0.0000000  0.0000000     0.0000000  0.0000000  0.0000000
            tnons61    0.0000000  0.0000000  0.0000000     0.0000000  0.0000000  0.0000000
                       0.0000000  0.0000000  0.0000000     0.0000000  0.0000000  0.0000000
                       0.0000000  0.0000000  0.0000000     0.0000000  0.0000000  0.0000000
                       0.0000000  0.0000000  0.0000000     0.0000000  0.0000000  0.0000000
                       0.0000000  0.0000000  0.0000000     0.0000000  0.0000000  0.0000000
                       0.0000000  0.0000000  0.0000000     0.0000000  0.0000000  0.0000000
                       0.0000000  0.0000000  0.0000000     0.0000000  0.0000000  0.0000000
                       0.0000000  0.0000000  0.0000000     0.0000000  0.0000000  0.0000000
            tnons62    0.0000000  0.0000000  0.0000000     0.0000000  0.0000000  0.0000000
                       0.0000000  0.0000000  0.0000000     0.0000000  0.0000000  0.0000000
                       0.0000000  0.0000000  0.0000000     0.0000000  0.0000000  0.0000000
                       0.0000000  0.0000000  0.0000000     0.0000000  0.0000000  0.0000000
                       0.0000000  0.0000000  0.0000000     0.0000000  0.0000000  0.0000000
                       0.0000000  0.0000000  0.0000000     0.0000000  0.0000000  0.0000000
                       0.0000000  0.0000000  0.0000000     0.0000000  0.0000000  0.0000000
                       0.0000000  0.0000000  0.0000000     0.0000000  0.0000000  0.0000000
                       0.0000000  0.0000000  0.0000000     0.0000000  0.0000000  0.0000000
                       0.0000000  0.0000000  0.0000000     0.0000000  0.0000000  0.0000000
                       0.0000000  0.0000000  0.0000000     0.0000000  0.0000000  0.0000000
                       0.0000000  0.0000000  0.0000000     0.0000000  0.0000000  0.0000000
                       0.0000000  0.0000000  0.0000000     0.0000000  0.0000000  0.0000000
                       0.0000000  0.0000000  0.0000000     0.0000000  0.0000000  0.0000000
                       0.0000000  0.0000000  0.0000000     0.0000000  0.0000000  0.0000000
                       0.0000000  0.0000000  0.0000000     0.0000000  0.0000000  0.0000000
                       0.0000000  0.0000000  0.0000000     0.0000000  0.0000000  0.0000000
                       0.0000000  0.0000000  0.0000000     0.0000000  0.0000000  0.0000000
                       0.0000000  0.0000000  0.0000000     0.0000000  0.0000000  0.0000000
                       0.0000000  0.0000000  0.0000000     0.0000000  0.0000000  0.0000000
                       0.0000000  0.0000000  0.0000000     0.0000000  0.0000000  0.0000000
                       0.0000000  0.0000000  0.0000000     0.0000000  0.0000000  0.0000000
                       0.0000000  0.0000000  0.0000000     0.0000000  0.0000000  0.0000000
                       0.0000000  0.0000000  0.0000000     0.0000000  0.0000000  0.0000000
           toldfe11    0.00000000E+00 Hartree
           toldfe12    1.00000000E-06 Hartree
           toldfe21    0.00000000E+00 Hartree
           toldfe22    1.00000000E-06 Hartree
           toldfe31    0.00000000E+00 Hartree
           toldfe32    1.00000000E-06 Hartree
           toldfe41    0.00000000E+00 Hartree
           toldfe42    1.00000000E-06 Hartree
           toldfe51    0.00000000E+00 Hartree
           toldfe52    1.00000000E-06 Hartree
           toldfe61    0.00000000E+00 Hartree
           toldfe62    1.00000000E-06 Hartree
           toldff11    5.00000000E-05
           toldff12    0.00000000E+00
           toldff21    5.00000000E-05
           toldff22    0.00000000E+00
           toldff31    5.00000000E-05
           toldff32    0.00000000E+00
           toldff41    5.00000000E-05
           toldff42    0.00000000E+00
           toldff51    5.00000000E-05
           toldff52    0.00000000E+00
           toldff61    5.00000000E-05
           toldff62    0.00000000E+00
           tolmxf11    5.00000000E-04
           tolmxf12    5.00000000E-05
           tolmxf21    5.00000000E-04
           tolmxf22    5.00000000E-05
           tolmxf31    5.00000000E-04
           tolmxf32    5.00000000E-05
           tolmxf41    5.00000000E-04
           tolmxf42    5.00000000E-05
           tolmxf51    5.00000000E-04
           tolmxf52    5.00000000E-05
           tolmxf61    5.00000000E-04
           tolmxf62    5.00000000E-05
            typat11    1  1
            typat12    1
            typat21    1  1
            typat22    1
            typat31    1  1
            typat32    1
            typat41    1  1
            typat42    1
            typat51    1  1
            typat52    1
            typat61    1  1
            typat62    1
           xangst11   -4.0265631318E-01  0.0000000000E+00  0.0000000000E+00
                       4.0265631318E-01  0.0000000000E+00  0.0000000000E+00
           xangst12    0.0000000000E+00  0.0000000000E+00  0.0000000000E+00
           xangst21   -3.9743808023E-01  0.0000000000E+00  0.0000000000E+00
                       3.9743808023E-01  0.0000000000E+00  0.0000000000E+00
           xangst22    0.0000000000E+00  0.0000000000E+00  0.0000000000E+00
           xangst31   -3.9146999950E-01  0.0000000000E+00  0.0000000000E+00
                       3.9146999950E-01  0.0000000000E+00  0.0000000000E+00
           xangst32    0.0000000000E+00  0.0000000000E+00  0.0000000000E+00
           xangst41   -3.8790950734E-01  0.0000000000E+00  0.0000000000E+00
                       3.8790950734E-01  0.0000000000E+00  0.0000000000E+00
           xangst42    0.0000000000E+00  0.0000000000E+00  0.0000000000E+00
           xangst51   -3.8630767174E-01  0.0000000000E+00  0.0000000000E+00
                       3.8630767174E-01  0.0000000000E+00  0.0000000000E+00
           xangst52    0.0000000000E+00  0.0000000000E+00  0.0000000000E+00
           xangst61   -3.8606600632E-01  0.0000000000E+00  0.0000000000E+00
                       3.8606600632E-01  0.0000000000E+00  0.0000000000E+00
           xangst62    0.0000000000E+00  0.0000000000E+00  0.0000000000E+00
            xcart11   -7.6091015760E-01  0.0000000000E+00  0.0000000000E+00
                       7.6091015760E-01  0.0000000000E+00  0.0000000000E+00
            xcart12    0.0000000000E+00  0.0000000000E+00  0.0000000000E+00
            xcart21   -7.5104912642E-01  0.0000000000E+00  0.0000000000E+00
                       7.5104912642E-01  0.0000000000E+00  0.0000000000E+00
            xcart22    0.0000000000E+00  0.0000000000E+00  0.0000000000E+00
            xcart31   -7.3977108830E-01  0.0000000000E+00  0.0000000000E+00
                       7.3977108830E-01  0.0000000000E+00  0.0000000000E+00
            xcart32    0.0000000000E+00  0.0000000000E+00  0.0000000000E+00
            xcart41   -7.3304273322E-01  0.0000000000E+00  0.0000000000E+00
                       7.3304273322E-01  0.0000000000E+00  0.0000000000E+00
            xcart42    0.0000000000E+00  0.0000000000E+00  0.0000000000E+00
            xcart51   -7.3001570263E-01  0.0000000000E+00  0.0000000000E+00
                       7.3001570263E-01  0.0000000000E+00  0.0000000000E+00
            xcart52    0.0000000000E+00  0.0000000000E+00  0.0000000000E+00
            xcart61   -7.2955902117E-01  0.0000000000E+00  0.0000000000E+00
                       7.2955902117E-01  0.0000000000E+00  0.0000000000E+00
            xcart62    0.0000000000E+00  0.0000000000E+00  0.0000000000E+00
             xred11   -7.6091015760E-02  0.0000000000E+00  0.0000000000E+00
                       7.6091015760E-02  0.0000000000E+00  0.0000000000E+00
             xred12    0.0000000000E+00  0.0000000000E+00  0.0000000000E+00
             xred21   -7.5104912642E-02  0.0000000000E+00  0.0000000000E+00
                       7.5104912642E-02  0.0000000000E+00  0.0000000000E+00
             xred22    0.0000000000E+00  0.0000000000E+00  0.0000000000E+00
             xred31   -7.3977108830E-02  0.0000000000E+00  0.0000000000E+00
                       7.3977108830E-02  0.0000000000E+00  0.0000000000E+00
             xred32    0.0000000000E+00  0.0000000000E+00  0.0000000000E+00
             xred41   -7.3304273322E-02  0.0000000000E+00  0.0000000000E+00
                       7.3304273322E-02  0.0000000000E+00  0.0000000000E+00
             xred42    0.0000000000E+00  0.0000000000E+00  0.0000000000E+00
             xred51   -7.3001570263E-02  0.0000000000E+00  0.0000000000E+00
                       7.3001570263E-02  0.0000000000E+00  0.0000000000E+00
             xred52    0.0000000000E+00  0.0000000000E+00  0.0000000000E+00
             xred61   -7.2955902117E-02  0.0000000000E+00  0.0000000000E+00
                       7.2955902117E-02  0.0000000000E+00  0.0000000000E+00
             xred62    0.0000000000E+00  0.0000000000E+00  0.0000000000E+00
            znucl        1.00000

================================================================================


- Timing analysis has been suppressed with timopt=0



================================================================================

 Suggested references for the acknowledgment of ABINIT usage.

 The users of ABINIT have little formal obligations with respect to the ABINIT group
 (those specified in the GNU General Public License, http://www.gnu.org/copyleft/gpl.txt).
 However, it is common practice in the scientific literature,
 to acknowledge the efforts of people that have made the research possible.
 In this spirit, please find below suggested citations of work written by ABINIT developers,
 corresponding to implementations inside of ABINIT that you have used in the present run.
 Note also that it will be of great value to readers of publications presenting these results,
 to read papers enabling them to understand the theoretical formalism and details
 of the ABINIT implementation.
 For information on why they are suggested, see also http://www.abinit.org/about/?text=acknowledgments.

 [1] ABINIT : First-principles approach of materials and nanosystem properties.
 X. Gonze, B. Amadon, P.-M. Anglade, J.-M. Beuken, F. Bottin, P. Boulanger, F. Bruneval,
 D. Caliste, R. Caracas, M. Cote, T. Deutsch, L. Genovese, Ph. Ghosez, M. Giantomassi
 S. Goedecker, D.R. Hamann, P. Hermet, F. Jollet, G. Jomard, S. Leroux, M. Mancini, S. Mazevet,
 M.J.T. Oliveira, G. Onida, Y. Pouillon, T. Rangel, G.-M. Rignanese, D. Sangalli, R. Shaltaf,
 M. Torrent, M.J. Verstraete, G. Zerah, J.W. Zwanziger
 Computer Phys. Comm. 180, 2582-2615 (2009).
 Comment : the third generic paper describing the ABINIT project.
 Note that a version of this paper, that is not formatted for Computer Phys. Comm. 
 is available at http://www.abinit.org/about/ABINIT_CPC_v10.pdf .
 The licence allows the authors to put it on the Web.

 [2] A brief introduction to the ABINIT software package.
 X. Gonze, G.-M. Rignanese, M. Verstraete, J.-M. Beuken, Y. Pouillon, R. Caracas, F. Jollet,
 M. Torrent, G. Zerah, M. Mikami, Ph. Ghosez, M. Veithen, J.-Y. Raty, V. Olevano, F. Bruneval,
 L. Reining, R. Godby, G. Onida, D.R. Hamann, and D.C. Allan.
 Z. Kristallogr. 220, 558-562 (2005).
 Comment : the second generic paper describing the ABINIT project. Note that this paper
 should be cited especially if you are using the GW part of ABINIT, as several authors
 of this part are not in the list of authors of the first or third paper.
 The .pdf of the latter paper is available at http://www.abinit.org/about/zfk_0505-06_558-562.pdf.
 Note that it should not redistributed (Copyright by Oldenburg Wissenshaftverlag,
 the licence allows the authors to put it on the Web).


 And optionally :

 [3] First-principles computation of material properties : the ABINIT software project. 
 X. Gonze, J.-M. Beuken, R. Caracas, F. Detraux, M. Fuchs, G.-M. Rignanese, L. Sindic,
 M. Verstraete, G. Zerah, F. Jollet, M. Torrent, A. Roy, M. Mikami, Ph. Ghosez, J.-Y. Raty, D.C. Allan.
 Computational Materials Science 25, 478-492 (2002). http://dx.doi.org/10.1016/S0927-0256(02)00325-7
 Comment : the original paper describing the ABINIT project.

 [4] Fast radix 2, 3, 4 and 5 kernels for Fast Fourier Transformations
 on computers with overlapping multiply-add instructions.
 S. Goedecker, SIAM J. on Scientific Computing 18, 1605 (1997).
-
- Proc.   0 individual time (sec): cpu=         10.5  wall=         10.6

================================================================================

 Calculation completed.
.Delivered   19 WARNINGs and  36 COMMENTs to log file.
+Overall time at end (sec) : cpu=         10.5  wall=         10.6
