
.Version 7.9.3 of ABINIT 
.(MPI version, prepared for a x86_64_linux_gnu4.7 computer) 

.Copyright (C) 1998-2014 ABINIT group . 
 ABINIT comes with ABSOLUTELY NO WARRANTY.
 It is free software, and you are welcome to redistribute it
 under certain conditions (GNU General Public License,
 see ~abinit/COPYING or http://www.gnu.org/copyleft/gpl.txt).

 ABINIT is a project of the Universite Catholique de Louvain,
 Corning Inc. and other collaborators, see ~abinit/doc/developers/contributors.txt .
 Please read ~abinit/doc/users/acknowledgments.html for suggested
 acknowledgments of the ABINIT effort.
 For more information, see http://www.abinit.org .

.Starting date : Sat 30 Aug 2014.
- ( at 22h26 )
  
- input  file    -> tbase4_2.in
- output file    -> tbase4_2.out
- root for input  files -> tbase4_2i
- root for output files -> tbase4_2o


 DATASET    1 : space group Fm -3 m (#225); Bravais cF (face-center cubic)
================================================================================
 Values of the parameters that define the memory need for DATASET  1.
   intxc =         0  ionmov =         3    iscf =         7 xclevel =         1
  lmnmax =         3   lnmax =         3   mband =         3  mffmem =         1
P  mgfft =        15   mkmem =         2 mpssoang=         3     mpw =        90
  mqgrid =      3001   natom =         1    nfft =      3375    nkpt =         2
  nloalg =         4  nspden =         1 nspinor =         1  nsppol =         1
    nsym =        48  n1xccc =         0  ntypat =         1  occopt =         4
================================================================================
P This job should need less than                       2.142 Mbytes of memory.
  Rough estimation (10% accuracy) of disk space for files :
_ WF disk file :      0.010 Mbytes ; DEN or POT disk file :      0.028 Mbytes.
================================================================================


 DATASET    2 : space group Fm -3 m (#225); Bravais cF (face-center cubic)
================================================================================
 Values of the parameters that define the memory need for DATASET  2.
   intxc =         0  ionmov =         3    iscf =         7 xclevel =         1
  lmnmax =         3   lnmax =         3   mband =         3  mffmem =         1
P  mgfft =        15   mkmem =        10 mpssoang=         3     mpw =        92
  mqgrid =      3001   natom =         1    nfft =      3375    nkpt =        10
  nloalg =         4  nspden =         1 nspinor =         1  nsppol =         1
    nsym =        48  n1xccc =         0  ntypat =         1  occopt =         4
================================================================================
P This job should need less than                       2.188 Mbytes of memory.
  Rough estimation (10% accuracy) of disk space for files :
_ WF disk file :      0.044 Mbytes ; DEN or POT disk file :      0.028 Mbytes.
================================================================================


 DATASET    3 : space group Fm -3 m (#225); Bravais cF (face-center cubic)
================================================================================
 Values of the parameters that define the memory need for DATASET  3.
   intxc =         0  ionmov =         3    iscf =         7 xclevel =         1
  lmnmax =         3   lnmax =         3   mband =         3  mffmem =         1
P  mgfft =        15   mkmem =        28 mpssoang=         3     mpw =        94
  mqgrid =      3001   natom =         1    nfft =      3375    nkpt =        28
  nloalg =         4  nspden =         1 nspinor =         1  nsppol =         1
    nsym =        48  n1xccc =         0  ntypat =         1  occopt =         4
================================================================================
P This job should need less than                       2.294 Mbytes of memory.
  Rough estimation (10% accuracy) of disk space for files :
_ WF disk file :      0.122 Mbytes ; DEN or POT disk file :      0.028 Mbytes.
================================================================================


 DATASET    4 : space group Fm -3 m (#225); Bravais cF (face-center cubic)
================================================================================
 Values of the parameters that define the memory need for DATASET  4.
   intxc =         0  ionmov =         3    iscf =         7 xclevel =         1
  lmnmax =         3   lnmax =         3   mband =         3  mffmem =         1
P  mgfft =        15   mkmem =        60 mpssoang=         3     mpw =        95
  mqgrid =      3001   natom =         1    nfft =      3375    nkpt =        60
  nloalg =         4  nspden =         1 nspinor =         1  nsppol =         1
    nsym =        48  n1xccc =         0  ntypat =         1  occopt =         4
================================================================================
P This job should need less than                       2.482 Mbytes of memory.
  Rough estimation (10% accuracy) of disk space for files :
_ WF disk file :      0.263 Mbytes ; DEN or POT disk file :      0.028 Mbytes.
================================================================================

--------------------------------------------------------------------------------
------------- Echo of variables that govern the present computation ------------
--------------------------------------------------------------------------------
-
- outvars: echo of selected default values                                      
-   accesswff0 =  0 , fftalg0 =112 , wfoptalg0 =  0
-
- outvars: echo of global parameters not present in the input file              
-  max_nthreads =    0
-
 -outvars: echo values of preprocessed input variables --------
            acell      7.6000000000E+00  7.6000000000E+00  7.6000000000E+00 Bohr
              amu      2.69815390E+01
          dilatmx      1.05000000E+00
             ecut      6.00000000E+00 Hartree
           ecutsm      5.00000000E-01 Hartree
-          fftalg         112
           getwfk          -1
           ionmov           3
           jdtset        1    2    3    4
              kpt1    -2.50000000E-01  5.00000000E-01  0.00000000E+00
                      -2.50000000E-01  0.00000000E+00  0.00000000E+00
              kpt2    -1.25000000E-01 -2.50000000E-01  0.00000000E+00
                      -1.25000000E-01  5.00000000E-01  0.00000000E+00
                      -2.50000000E-01 -3.75000000E-01  0.00000000E+00
                      -1.25000000E-01 -3.75000000E-01  1.25000000E-01
                      -1.25000000E-01  2.50000000E-01  0.00000000E+00
                      -2.50000000E-01  3.75000000E-01  0.00000000E+00
                      -3.75000000E-01  5.00000000E-01  0.00000000E+00
                      -2.50000000E-01  5.00000000E-01  1.25000000E-01
                      -1.25000000E-01  0.00000000E+00  0.00000000E+00
                      -3.75000000E-01  0.00000000E+00  0.00000000E+00
              kpt3    -8.33333333E-02 -1.66666667E-01  0.00000000E+00
                      -8.33333333E-02 -3.33333333E-01  0.00000000E+00
                      -1.66666667E-01 -2.50000000E-01  0.00000000E+00
                      -8.33333333E-02 -2.50000000E-01  8.33333333E-02
                      -8.33333333E-02  5.00000000E-01  0.00000000E+00
                      -1.66666667E-01 -4.16666667E-01  0.00000000E+00
                      -8.33333333E-02 -4.16666667E-01  8.33333333E-02
                      -2.50000000E-01 -3.33333333E-01  0.00000000E+00
                      -1.66666667E-01 -3.33333333E-01  8.33333333E-02
                      -8.33333333E-02 -3.33333333E-01  1.66666667E-01
                      -8.33333333E-02  3.33333333E-01  0.00000000E+00
                      -1.66666667E-01  4.16666667E-01  0.00000000E+00
                      -2.50000000E-01  5.00000000E-01  0.00000000E+00
                      -1.66666667E-01  5.00000000E-01  8.33333333E-02
                      -3.33333333E-01 -4.16666667E-01  0.00000000E+00
                      -2.50000000E-01 -4.16666667E-01  8.33333333E-02
                      -1.66666667E-01 -4.16666667E-01  1.66666667E-01
                      -8.33333333E-02 -4.16666667E-01  2.50000000E-01
                      -8.33333333E-02  1.66666667E-01  0.00000000E+00
                      -1.66666667E-01  2.50000000E-01  0.00000000E+00
                      -2.50000000E-01  3.33333333E-01  0.00000000E+00
                      -3.33333333E-01  4.16666667E-01  0.00000000E+00
                      -4.16666667E-01  5.00000000E-01  0.00000000E+00
                      -3.33333333E-01  5.00000000E-01  8.33333333E-02
                      -2.50000000E-01  5.00000000E-01  1.66666667E-01
                      -8.33333333E-02  0.00000000E+00  0.00000000E+00
                      -2.50000000E-01  0.00000000E+00  0.00000000E+00
                      -4.16666667E-01  0.00000000E+00  0.00000000E+00
              kpt4    -6.25000000E-02 -1.25000000E-01  0.00000000E+00
                      -6.25000000E-02 -2.50000000E-01  0.00000000E+00
                      -1.25000000E-01 -1.87500000E-01  0.00000000E+00
                      -6.25000000E-02 -1.87500000E-01  6.25000000E-02
                      -6.25000000E-02 -3.75000000E-01  0.00000000E+00
                      -1.25000000E-01 -3.12500000E-01  0.00000000E+00
                      -6.25000000E-02 -3.12500000E-01  6.25000000E-02
                      -1.87500000E-01 -2.50000000E-01  0.00000000E+00
                      -1.25000000E-01 -2.50000000E-01  6.25000000E-02
                      -6.25000000E-02 -2.50000000E-01  1.25000000E-01
                      -6.25000000E-02  5.00000000E-01  0.00000000E+00
                      -1.25000000E-01 -4.37500000E-01  0.00000000E+00
                      -6.25000000E-02 -4.37500000E-01  6.25000000E-02
                      -1.87500000E-01 -3.75000000E-01  0.00000000E+00
                      -1.25000000E-01 -3.75000000E-01  6.25000000E-02
                      -6.25000000E-02 -3.75000000E-01  1.25000000E-01
                      -2.50000000E-01 -3.12500000E-01  0.00000000E+00
                      -1.87500000E-01 -3.12500000E-01  6.25000000E-02
                      -1.25000000E-01 -3.12500000E-01  1.25000000E-01
                      -6.25000000E-02 -3.12500000E-01  1.87500000E-01
                      -6.25000000E-02  3.75000000E-01  0.00000000E+00
                      -1.25000000E-01  4.37500000E-01  0.00000000E+00
                      -1.87500000E-01  5.00000000E-01  0.00000000E+00
                      -1.25000000E-01  5.00000000E-01  6.25000000E-02
                      -2.50000000E-01 -4.37500000E-01  0.00000000E+00
                      -1.87500000E-01 -4.37500000E-01  6.25000000E-02
                      -1.25000000E-01 -4.37500000E-01  1.25000000E-01
                      -6.25000000E-02 -4.37500000E-01  1.87500000E-01
                      -3.12500000E-01 -3.75000000E-01  0.00000000E+00
                      -2.50000000E-01 -3.75000000E-01  6.25000000E-02
                      -1.87500000E-01 -3.75000000E-01  1.25000000E-01
                      -1.25000000E-01 -3.75000000E-01  1.87500000E-01
                      -6.25000000E-02 -3.75000000E-01  2.50000000E-01
                      -6.25000000E-02  2.50000000E-01  0.00000000E+00
                      -1.25000000E-01  3.12500000E-01  0.00000000E+00
                      -1.87500000E-01  3.75000000E-01  0.00000000E+00
                      -2.50000000E-01  4.37500000E-01  0.00000000E+00
                      -3.12500000E-01  5.00000000E-01  0.00000000E+00
                      -2.50000000E-01  5.00000000E-01  6.25000000E-02
                      -1.87500000E-01  5.00000000E-01  1.25000000E-01
                      -3.75000000E-01 -4.37500000E-01  0.00000000E+00
                      -3.12500000E-01 -4.37500000E-01  6.25000000E-02
                      -2.50000000E-01 -4.37500000E-01  1.25000000E-01
                      -1.87500000E-01 -4.37500000E-01  1.87500000E-01
                      -1.25000000E-01 -4.37500000E-01  2.50000000E-01
                      -6.25000000E-02 -4.37500000E-01  3.12500000E-01
                      -6.25000000E-02  1.25000000E-01  0.00000000E+00
                      -1.25000000E-01  1.87500000E-01  0.00000000E+00
                      -1.87500000E-01  2.50000000E-01  0.00000000E+00
                      -2.50000000E-01  3.12500000E-01  0.00000000E+00
                       outvar_i_n : Printing only first  50 k-points.
         kptrlatt1       2   -2    2     -2    2    2     -2   -2    2
         kptrlatt2       4   -4    4     -4    4    4     -4   -4    4
         kptrlatt3       6   -6    6     -6    6    6     -6   -6    6
         kptrlatt4       8   -8    8     -8    8    8     -8   -8    8
          kptrlen1     1.52000000E+01
          kptrlen2     3.04000000E+01
          kptrlen3     4.56000000E+01
          kptrlen4     6.08000000E+01
P           mkmem1          2
P           mkmem2         10
P           mkmem3         28
P           mkmem4         60
            natom           1
            nband1          3
            nband2          3
            nband3          3
            nband4          3
           ndtset           4
            ngfft          15      15      15
             nkpt1          2
             nkpt2         10
             nkpt3         28
             nkpt4         60
            nstep          10
             nsym          48
            ntime          10
           ntypat           1
              occ1     2.000000  1.000000  0.000000
                       2.000000  1.000000  0.000000
              occ2     2.000000  1.000000  0.000000
                       2.000000  1.000000  0.000000
                       2.000000  1.000000  0.000000
                       2.000000  1.000000  0.000000
                       2.000000  1.000000  0.000000
                       2.000000  1.000000  0.000000
                       2.000000  1.000000  0.000000
                       2.000000  1.000000  0.000000
                       2.000000  1.000000  0.000000
                       2.000000  1.000000  0.000000
              occ3     2.000000  1.000000  0.000000
                       2.000000  1.000000  0.000000
                       2.000000  1.000000  0.000000
                       2.000000  1.000000  0.000000
                       2.000000  1.000000  0.000000
                       2.000000  1.000000  0.000000
                       2.000000  1.000000  0.000000
                       2.000000  1.000000  0.000000
                       2.000000  1.000000  0.000000
                       2.000000  1.000000  0.000000
                       2.000000  1.000000  0.000000
                       2.000000  1.000000  0.000000
                       2.000000  1.000000  0.000000
                       2.000000  1.000000  0.000000
                       2.000000  1.000000  0.000000
                       2.000000  1.000000  0.000000
                       2.000000  1.000000  0.000000
                       2.000000  1.000000  0.000000
                       2.000000  1.000000  0.000000
                       2.000000  1.000000  0.000000
                       2.000000  1.000000  0.000000
                       2.000000  1.000000  0.000000
                       2.000000  1.000000  0.000000
                       2.000000  1.000000  0.000000
                       2.000000  1.000000  0.000000
                       2.000000  1.000000  0.000000
                       2.000000  1.000000  0.000000
                       2.000000  1.000000  0.000000
              occ4     2.000000  1.000000  0.000000
                       2.000000  1.000000  0.000000
                       2.000000  1.000000  0.000000
                       2.000000  1.000000  0.000000
                       2.000000  1.000000  0.000000
                       2.000000  1.000000  0.000000
                       2.000000  1.000000  0.000000
                       2.000000  1.000000  0.000000
                       2.000000  1.000000  0.000000
                       2.000000  1.000000  0.000000
                       2.000000  1.000000  0.000000
                       2.000000  1.000000  0.000000
                       2.000000  1.000000  0.000000
                       2.000000  1.000000  0.000000
                       2.000000  1.000000  0.000000
                       2.000000  1.000000  0.000000
                       2.000000  1.000000  0.000000
                       2.000000  1.000000  0.000000
                       2.000000  1.000000  0.000000
                       2.000000  1.000000  0.000000
                       2.000000  1.000000  0.000000
                       2.000000  1.000000  0.000000
                       2.000000  1.000000  0.000000
                       2.000000  1.000000  0.000000
                       2.000000  1.000000  0.000000
                       2.000000  1.000000  0.000000
                       2.000000  1.000000  0.000000
                       2.000000  1.000000  0.000000
                       2.000000  1.000000  0.000000
                       2.000000  1.000000  0.000000
                       2.000000  1.000000  0.000000
                       2.000000  1.000000  0.000000
                       2.000000  1.000000  0.000000
                       2.000000  1.000000  0.000000
                       2.000000  1.000000  0.000000
                       2.000000  1.000000  0.000000
                       2.000000  1.000000  0.000000
                       2.000000  1.000000  0.000000
                       2.000000  1.000000  0.000000
                       2.000000  1.000000  0.000000
                       2.000000  1.000000  0.000000
                       2.000000  1.000000  0.000000
                       2.000000  1.000000  0.000000
                       2.000000  1.000000  0.000000
                       2.000000  1.000000  0.000000
                       2.000000  1.000000  0.000000
                       2.000000  1.000000  0.000000
                       2.000000  1.000000  0.000000
                       2.000000  1.000000  0.000000
                       2.000000  1.000000  0.000000
                       prtocc : prtvol=0, do not print more k-points.
           occopt           4
          optcell           1
        optforces           1
            rprim      0.0000000000E+00  5.0000000000E-01  5.0000000000E-01
                       5.0000000000E-01  0.0000000000E+00  5.0000000000E-01
                       5.0000000000E-01  5.0000000000E-01  0.0000000000E+00
           shiftk      5.00000000E-01  5.00000000E-01  5.00000000E-01
          spgroup         225
           symrel      1  0  0   0  1  0   0  0  1      -1  0  0   0 -1  0   0  0 -1
                       0 -1  1   0 -1  0   1 -1  0       0  1 -1   0  1  0  -1  1  0
                      -1  0  0  -1  0  1  -1  1  0       1  0  0   1  0 -1   1 -1  0
                       0  1 -1   1  0 -1   0  0 -1       0 -1  1  -1  0  1   0  0  1
                      -1  0  0  -1  1  0  -1  0  1       1  0  0   1 -1  0   1  0 -1
                       0 -1  1   1 -1  0   0 -1  0       0  1 -1  -1  1  0   0  1  0
                       1  0  0   0  0  1   0  1  0      -1  0  0   0  0 -1   0 -1  0
                       0  1 -1   0  0 -1   1  0 -1       0 -1  1   0  0  1  -1  0  1
                      -1  0  1  -1  1  0  -1  0  0       1  0 -1   1 -1  0   1  0  0
                       0 -1  0   1 -1  0   0 -1  1       0  1  0  -1  1  0   0  1 -1
                       1  0 -1   0  0 -1   0  1 -1      -1  0  1   0  0  1   0 -1  1
                       0  1  0   0  0  1   1  0  0       0 -1  0   0  0 -1  -1  0  0
                       1  0 -1   0  1 -1   0  0 -1      -1  0  1   0 -1  1   0  0  1
                       0 -1  0   0 -1  1   1 -1  0       0  1  0   0  1 -1  -1  1  0
                      -1  0  1  -1  0  0  -1  1  0       1  0 -1   1  0  0   1 -1  0
                       0  1  0   1  0  0   0  0  1       0 -1  0  -1  0  0   0  0 -1
                       0  0 -1   0  1 -1   1  0 -1       0  0  1   0 -1  1  -1  0  1
                       1 -1  0   0 -1  1   0 -1  0      -1  1  0   0  1 -1   0  1  0
                       0  0  1   1  0  0   0  1  0       0  0 -1  -1  0  0   0 -1  0
                      -1  1  0  -1  0  0  -1  0  1       1 -1  0   1  0  0   1  0 -1
                       0  0  1   0  1  0   1  0  0       0  0 -1   0 -1  0  -1  0  0
                       1 -1  0   0 -1  0   0 -1  1      -1  1  0   0  1  0   0  1 -1
                       0  0 -1   1  0 -1   0  1 -1       0  0  1  -1  0  1   0 -1  1
                      -1  1  0  -1  0  1  -1  0  0       1 -1  0   1  0 -1   1  0  0
           toldfe      1.00000000E-06 Hartree
           tsmear      5.00000000E-02 Hartree
            typat      1
              wtk1       0.75000    0.25000
              wtk2       0.09375    0.09375    0.09375    0.18750    0.09375    0.09375
                         0.09375    0.18750    0.03125    0.03125
              wtk3       0.02778    0.02778    0.02778    0.05556    0.02778    0.02778
                         0.05556    0.02778    0.05556    0.05556    0.02778    0.02778
                         0.02778    0.05556    0.02778    0.05556    0.05556    0.05556
                         0.02778    0.02778    0.02778    0.02778    0.02778    0.05556
                         0.05556    0.00926    0.00926    0.00926
              wtk4       0.01172    0.01172    0.01172    0.02344    0.01172    0.01172
                         0.02344    0.01172    0.02344    0.02344    0.01172    0.01172
                         0.02344    0.01172    0.02344    0.02344    0.01172    0.02344
                         0.02344    0.02344    0.01172    0.01172    0.01172    0.02344
                         0.01172    0.02344    0.02344    0.02344    0.01172    0.02344
                         0.02344    0.02344    0.02344    0.01172    0.01172    0.01172
                         0.01172    0.01172    0.02344    0.02344    0.01172    0.02344
                         0.02344    0.02344    0.02344    0.02344    0.01172    0.01172
                         0.01172    0.01172
                       outvars : Printing only first  50 k-points.
            znucl       13.00000

================================================================================

 chkinp: Checking input parameters for consistency, jdtset=   1.

 chkinp: Checking input parameters for consistency, jdtset=   2.

 chkinp: Checking input parameters for consistency, jdtset=   3.

 chkinp: Checking input parameters for consistency, jdtset=   4.

================================================================================
== DATASET  1 ==================================================================
-   nproc =    1

 Exchange-correlation functional for the present dataset will be:
  LDA: new Teter (4/93) with spin-polarized option - ixc=1
 Citation for XC functional:
  S. Goedecker, M. Teter, J. Huetter, PRB 54, 1703 (1996)

 Real(R)+Recip(G) space primitive vectors, cartesian coordinates (Bohr,Bohr^-1):
 R(1)=  0.0000000  3.8000000  3.8000000  G(1)= -0.1315789  0.1315789  0.1315789
 R(2)=  3.8000000  0.0000000  3.8000000  G(2)=  0.1315789 -0.1315789  0.1315789
 R(3)=  3.8000000  3.8000000  0.0000000  G(3)=  0.1315789  0.1315789 -0.1315789
 Unit cell volume ucvol=  1.0974400E+02 bohr^3
 Angles (23,13,12)=  6.00000000E+01  6.00000000E+01  6.00000000E+01 degrees

 getcut: wavevector=  0.0000  0.0000  0.0000  ngfft=  15  15  15
         ecut(hartree)=      6.615   => boxcut(ratio)=   2.26154

 getcut : COMMENT -
  Note that boxcut > 2.2 ; recall that boxcut=Gcut(box)/Gcut(sphere) = 2
  is sufficient for exact treatment of convolution.
  Such a large boxcut is a waste : you could raise ecut
  e.g. ecut=    8.458196 Hartrees makes boxcut=2


--- Pseudopotential description ------------------------------------------------
- pspini: atom type   1  psp file is /home/gonze/ABINIT/ABINITv7.9.3/trunk/7.9.3-private/tests/Psps_for_tests/13al.981214.fhi
- pspatm: opening atomic psp file    /home/gonze/ABINIT/ABINITv7.9.3/trunk/7.9.3-private/tests/Psps_for_tests/13al.981214.fhi
- Aluminum, fhi98PP : Hamann-type, LDA CA PerdewWang, l=2 local
- 13.00000   3.00000    981214                znucl, zion, pspdat
    6    7    2    2       493   0.00000      pspcod,pspxc,lmax,lloc,mmax,r2well
  No XC core correction.
  1.024700          amesh (Hamman grid)
 pspatm: epsatm=    1.36305739
         --- l  ekb(1:nproj) -->
             0    1.768744
             1    0.900554
 pspatm: atomic psp has been read  and splines computed

   4.08917216E+00                                ecore*ucvol(ha*bohr**3)
--------------------------------------------------------------------------------

P newkpt: treating      3 bands with npw=      90 for ikpt=   1 by node    0
P newkpt: treating      3 bands with npw=      89 for ikpt=   2 by node    0

_setup2: Arith. and geom. avg. npw (full set) are      89.750      89.749

================================================================================

=== [ionmov= 3] Broyden-Fletcher-Goldfard-Shanno method (forces,Tot energy) 
================================================================================

--- Iteration: ( 1/10) Internal Cycle: (1/1)
--------------------------------------------------------------------------------

---SELF-CONSISTENT-FIELD CONVERGENCE--------------------------------------------

     iter   Etot(hartree)      deltaE(h)  residm     vres2    diffor    maxfor
 ETOT  1  -2.0976647769159    -2.098E+00 1.024E-03 3.819E-01 0.000E+00 0.000E+00
 ETOT  2  -2.0979329058481    -2.681E-04 3.236E-10 1.004E-02 0.000E+00 0.000E+00
 ETOT  3  -2.0979387166807    -5.811E-06 1.050E-07 5.228E-05 0.000E+00 0.000E+00
 ETOT  4  -2.0979387453312    -2.865E-08 7.314E-10 1.924E-07 0.000E+00 0.000E+00
 ETOT  5  -2.0979387454056    -7.436E-11 1.449E-12 7.991E-10 0.000E+00 0.000E+00

 At SCF step    5, etot is converged : 
  for the second time, diff in etot=  7.436E-11 < toldfe=  1.000E-06

 Cartesian components of stress tensor (hartree/bohr^3)
  sigma(1 1)=  4.64978647E-05  sigma(3 2)=  0.00000000E+00
  sigma(2 2)=  4.64978647E-05  sigma(3 1)=  0.00000000E+00
  sigma(3 3)=  4.64978647E-05  sigma(2 1)=  0.00000000E+00


---OUTPUT-----------------------------------------------------------------------

 Cartesian coordinates (xcart) [bohr]
  0.00000000000000E+00  0.00000000000000E+00  0.00000000000000E+00
 Reduced coordinates (xred)
  0.00000000000000E+00  0.00000000000000E+00  0.00000000000000E+00
 Cartesian forces (fcart) [Ha/bohr]; max,rms= 0.00000E+00 0.00000E+00 (free atoms)
 -0.00000000000000E+00 -0.00000000000000E+00 -0.00000000000000E+00
 Reduced forces (fred)
  0.00000000000000E+00  0.00000000000000E+00  0.00000000000000E+00
 Scale of Primitive Cell (acell) [bohr]
  7.60000000000000E+00  7.60000000000000E+00  7.60000000000000E+00
 Real space primitive translations (rprimd) [bohr]
  0.00000000000000E+00  3.80000000000000E+00  3.80000000000000E+00
  3.80000000000000E+00  0.00000000000000E+00  3.80000000000000E+00
  3.80000000000000E+00  3.80000000000000E+00  0.00000000000000E+00
 Unitary Cell Volume (ucvol) [Bohr^3]=  1.09744000000000E+02
 Angles (23,13,12)= [degrees]
  6.00000000000000E+01  6.00000000000000E+01  6.00000000000000E+01
 Lengths [Bohr]
  5.37401153701776E+00  5.37401153701776E+00  5.37401153701776E+00
 Stress tensor in cartesian coordinates (strten) [Ha/bohr^3]
  4.64978646713111E-05  0.00000000000000E+00  0.00000000000000E+00
  0.00000000000000E+00  4.64978646713111E-05  0.00000000000000E+00
  0.00000000000000E+00  0.00000000000000E+00  4.64978646713110E-05
 Total energy (etotal) [Ha]= -2.09793874540560E+00

--- Iteration: ( 2/10) Internal Cycle: (1/1)
--------------------------------------------------------------------------------

---SELF-CONSISTENT-FIELD CONVERGENCE--------------------------------------------

     iter   Etot(hartree)      deltaE(h)  residm     vres2    diffor    maxfor
 ETOT  1  -2.0979574504260    -2.098E+00 2.153E-12 1.594E-05 0.000E+00 0.000E+00
 ETOT  2  -2.0979574577359    -7.310E-09 1.944E-15 9.906E-07 0.000E+00 0.000E+00
 ETOT  3  -2.0979574582395    -5.036E-10 7.562E-12 5.972E-10 0.000E+00 0.000E+00

 At SCF step    3, etot is converged : 
  for the second time, diff in etot=  5.036E-10 < toldfe=  1.000E-06

 Cartesian components of stress tensor (hartree/bohr^3)
  sigma(1 1)=  3.50337004E-05  sigma(3 2)=  0.00000000E+00
  sigma(2 2)=  3.50337004E-05  sigma(3 1)=  0.00000000E+00
  sigma(3 3)=  3.50337004E-05  sigma(2 1)=  0.00000000E+00


---OUTPUT-----------------------------------------------------------------------

 Cartesian coordinates (xcart) [bohr]
  0.00000000000000E+00  0.00000000000000E+00  0.00000000000000E+00
 Reduced coordinates (xred)
  0.00000000000000E+00  0.00000000000000E+00  0.00000000000000E+00
 Cartesian forces (fcart) [Ha/bohr]; max,rms= 0.00000E+00 0.00000E+00 (free atoms)
 -0.00000000000000E+00 -0.00000000000000E+00 -0.00000000000000E+00
 Reduced forces (fred)
  0.00000000000000E+00  0.00000000000000E+00  0.00000000000000E+00
 Scale of Primitive Cell (acell) [bohr]
  7.58939848685494E+00  7.58939848685494E+00  7.58939848685494E+00
 Real space primitive translations (rprimd) [bohr]
  0.00000000000000E+00  3.79469924342747E+00  3.79469924342747E+00
  3.79469924342747E+00  0.00000000000000E+00  3.79469924342747E+00
  3.79469924342747E+00  3.79469924342747E+00  0.00000000000000E+00
 Unitary Cell Volume (ucvol) [Bohr^3]=  1.09285382787536E+02
 Angles (23,13,12)= [degrees]
  6.00000000000000E+01  6.00000000000000E+01  6.00000000000000E+01
 Lengths [Bohr]
  5.36651513518205E+00  5.36651513518205E+00  5.36651513518205E+00
 Stress tensor in cartesian coordinates (strten) [Ha/bohr^3]
  3.50337003585004E-05  0.00000000000000E+00  0.00000000000000E+00
  0.00000000000000E+00  3.50337003585004E-05  0.00000000000000E+00
  0.00000000000000E+00  0.00000000000000E+00  3.50337003585005E-05
 Total energy (etotal) [Ha]= -2.09795745823949E+00

 Difference of energy with previous step (new-old):
           Absolute (Ha)=-1.87128E-05
           Relative     =-8.91959E-06

--- Iteration: ( 3/10) Internal Cycle: (1/1)
--------------------------------------------------------------------------------

---SELF-CONSISTENT-FIELD CONVERGENCE--------------------------------------------

     iter   Etot(hartree)      deltaE(h)  residm     vres2    diffor    maxfor
 ETOT  1  -2.0979806315739    -2.098E+00 1.852E-11 1.189E-04 0.000E+00 0.000E+00
 ETOT  2  -2.0979806851026    -5.353E-08 1.483E-14 7.351E-06 0.000E+00 0.000E+00
 ETOT  3  -2.0979806887725    -3.670E-09 5.397E-11 4.461E-09 0.000E+00 0.000E+00

 At SCF step    3, etot is converged : 
  for the second time, diff in etot=  3.670E-09 < toldfe=  1.000E-06

 Cartesian components of stress tensor (hartree/bohr^3)
  sigma(1 1)=  2.01634750E-06  sigma(3 2)=  0.00000000E+00
  sigma(2 2)=  2.01634750E-06  sigma(3 1)=  0.00000000E+00
  sigma(3 3)=  2.01634750E-06  sigma(2 1)=  0.00000000E+00


---OUTPUT-----------------------------------------------------------------------

 Cartesian coordinates (xcart) [bohr]
  0.00000000000000E+00  0.00000000000000E+00  0.00000000000000E+00
 Reduced coordinates (xred)
  0.00000000000000E+00  0.00000000000000E+00  0.00000000000000E+00
 Cartesian forces (fcart) [Ha/bohr]; max,rms= 0.00000E+00 0.00000E+00 (free atoms)
 -0.00000000000000E+00 -0.00000000000000E+00 -0.00000000000000E+00
 Reduced forces (fred)
  0.00000000000000E+00  0.00000000000000E+00  0.00000000000000E+00
 Scale of Primitive Cell (acell) [bohr]
  7.56057956019523E+00  7.56057956019523E+00  7.56057956019523E+00
 Real space primitive translations (rprimd) [bohr]
  0.00000000000000E+00  3.78028978009762E+00  3.78028978009762E+00
  3.78028978009762E+00  0.00000000000000E+00  3.78028978009762E+00
  3.78028978009762E+00  3.78028978009762E+00  0.00000000000000E+00
 Unitary Cell Volume (ucvol) [Bohr^3]=  1.08045148868226E+02
 Angles (23,13,12)= [degrees]
  6.00000000000000E+01  6.00000000000000E+01  6.00000000000000E+01
 Lengths [Bohr]
  5.34613707671446E+00  5.34613707671446E+00  5.34613707671446E+00
 Stress tensor in cartesian coordinates (strten) [Ha/bohr^3]
  2.01634749899684E-06  0.00000000000000E+00  0.00000000000000E+00
  0.00000000000000E+00  2.01634749899684E-06  0.00000000000000E+00
  0.00000000000000E+00  0.00000000000000E+00  2.01634749899695E-06
 Total energy (etotal) [Ha]= -2.09798068877254E+00

 Difference of energy with previous step (new-old):
           Absolute (Ha)=-2.32305E-05
           Relative     =-1.10729E-05

--- Iteration: ( 4/10) Internal Cycle: (1/1)
--------------------------------------------------------------------------------

---SELF-CONSISTENT-FIELD CONVERGENCE--------------------------------------------

     iter   Etot(hartree)      deltaE(h)  residm     vres2    diffor    maxfor
 ETOT  1  -2.0979807616500    -2.098E+00 6.101E-14 4.234E-07 0.000E+00 0.000E+00
 ETOT  2  -2.0979807618409    -1.908E-10 5.274E-17 2.617E-08 0.000E+00 0.000E+00
 ETOT  3  -2.0979807618539    -1.307E-11 1.922E-13 1.564E-11 0.000E+00 0.000E+00

 At SCF step    3, etot is converged : 
  for the second time, diff in etot=  1.307E-11 < toldfe=  1.000E-06

 Cartesian components of stress tensor (hartree/bohr^3)
  sigma(1 1)=  1.76697903E-08  sigma(3 2)=  0.00000000E+00
  sigma(2 2)=  1.76697903E-08  sigma(3 1)=  0.00000000E+00
  sigma(3 3)=  1.76697903E-08  sigma(2 1)=  0.00000000E+00


---OUTPUT-----------------------------------------------------------------------

 Cartesian coordinates (xcart) [bohr]
  0.00000000000000E+00  0.00000000000000E+00  0.00000000000000E+00
 Reduced coordinates (xred)
  0.00000000000000E+00  0.00000000000000E+00  0.00000000000000E+00
 Cartesian forces (fcart) [Ha/bohr]; max,rms= 0.00000E+00 0.00000E+00 (free atoms)
 -0.00000000000000E+00 -0.00000000000000E+00 -0.00000000000000E+00
 Reduced forces (fred)
  0.00000000000000E+00  0.00000000000000E+00  0.00000000000000E+00
 Scale of Primitive Cell (acell) [bohr]
  7.55889680862264E+00  7.55889680862264E+00  7.55889680862264E+00
 Real space primitive translations (rprimd) [bohr]
  0.00000000000000E+00  3.77944840431132E+00  3.77944840431132E+00
  3.77944840431132E+00  0.00000000000000E+00  3.77944840431132E+00
  3.77944840431132E+00  3.77944840431132E+00  0.00000000000000E+00
 Unitary Cell Volume (ucvol) [Bohr^3]=  1.07973022381203E+02
 Angles (23,13,12)= [degrees]
  6.00000000000000E+01  6.00000000000000E+01  6.00000000000000E+01
 Lengths [Bohr]
  5.34494719166642E+00  5.34494719166642E+00  5.34494719166642E+00
 Stress tensor in cartesian coordinates (strten) [Ha/bohr^3]
  1.76697903216724E-08  0.00000000000000E+00  0.00000000000000E+00
  0.00000000000000E+00  1.76697903217266E-08  0.00000000000000E+00
  0.00000000000000E+00  0.00000000000000E+00  1.76697903218892E-08
 Total energy (etotal) [Ha]= -2.09798076185392E+00

 Difference of energy with previous step (new-old):
           Absolute (Ha)=-7.30814E-08
           Relative     =-3.48342E-08

 At Broyd/MD step   4, gradients are converged : 
  max grad (force/stress) = 1.7670E-06 < tolmxf= 5.0000E-05 ha/bohr (free atoms)

================================================================================

 ----iterations are completed or convergence reached----

 Mean square residual over all n,k,spin=   1.1393E-13; max=  1.9217E-13
  -0.2500  0.5000  0.0000    1  1.92171E-13 kpt; spin; max resid(k); each band:
  1.59E-13 1.51E-13 1.92E-13
  -0.2500  0.0000  0.0000    1  8.13522E-14 kpt; spin; max resid(k); each band:
  5.73E-14 8.14E-14 4.28E-14
 reduced coordinates (array xred) for    1 atoms
       0.000000000000      0.000000000000      0.000000000000
 rms dE/dt=  0.0000E+00; max dE/dt=  0.0000E+00; dE/dt below (all hartree)
    1       0.000000000000      0.000000000000      0.000000000000

 cartesian coordinates (angstrom) at end:
    1      0.00000000000000     0.00000000000000     0.00000000000000

 cartesian forces (hartree/bohr) at end:
    1     -0.00000000000000    -0.00000000000000    -0.00000000000000
 frms,max,avg= 0.0000000E+00 0.0000000E+00   0.000E+00  0.000E+00  0.000E+00 h/b

 cartesian forces (eV/Angstrom) at end:
    1     -0.00000000000000    -0.00000000000000    -0.00000000000000
 frms,max,avg= 0.0000000E+00 0.0000000E+00   0.000E+00  0.000E+00  0.000E+00 e/A
 length scales=  7.558896808623  7.558896808623  7.558896808623 bohr
              =  3.999995913207  3.999995913207  3.999995913207 angstroms
 prteigrs : about to open file tbase4_2o_DS1_EIG
 Fermi (or HOMO) energy (hartree) =   0.26847   Average Vxc (hartree)=  -0.34746
 Eigenvalues (hartree) for nkpt=   2  k points:
 kpt#   1, nband=  3, wtk=  0.75000, kpt= -0.2500  0.5000  0.0000 (reduced coord)
   0.09425   0.25438   0.41909
      occupation numbers for kpt#   1
   2.00003   1.33307   0.00014
 kpt#   2, nband=  3, wtk=  0.25000, kpt= -0.2500  0.0000  0.0000 (reduced coord)
  -0.07038   0.41093   0.68874
      occupation numbers for kpt#   2
   2.00000   0.00030   0.00000
 Total charge density [el/Bohr^3]
,     Maximum=    3.3235E-02  at reduced coord.    0.8000    0.8667    0.8667
,Next maximum=    3.3235E-02  at reduced coord.    0.4667    0.8667    0.8667
,     Minimum=    2.7392E-03  at reduced coord.    0.0000    0.0000    0.0000
,Next minimum=    4.8415E-03  at reduced coord.    0.0667    0.0000    0.0000
,  Integrated=    3.0000E+00

--------------------------------------------------------------------------------
 Components of total free energy (in Hartree) :

    Kinetic energy  =  8.70954971785441E-01
    Hartree energy  =  3.84986358593304E-03
    XC energy       = -8.08434339503509E-01
    Ewald energy    = -2.72948286712641E+00
    PspCore energy  =  3.78721653639063E-02
    Loc. psp. energy=  8.26684645859832E-02
    NL   psp  energy=  4.52588269934519E-01
    >>>>> Internal E= -2.08998347137414E+00

    -kT*entropy     = -7.99729047978043E-03
    >>>>>>>>> Etotal= -2.09798076185392E+00

 Other information on the energy :
    Total energy(eV)= -5.70889598417023E+01 ; Band energy (Ha)=   3.6059822203E-01
--------------------------------------------------------------------------------

 Cartesian components of stress tensor (hartree/bohr^3)
  sigma(1 1)=  1.76697903E-08  sigma(3 2)=  0.00000000E+00
  sigma(2 2)=  1.76697903E-08  sigma(3 1)=  0.00000000E+00
  sigma(3 3)=  1.76697903E-08  sigma(2 1)=  0.00000000E+00

-Cartesian components of stress tensor (GPa)         [Pressure= -5.1986E-04 GPa]
- sigma(1 1)=  5.19863092E-04  sigma(3 2)=  0.00000000E+00
- sigma(2 2)=  5.19863092E-04  sigma(3 1)=  0.00000000E+00
- sigma(3 3)=  5.19863092E-04  sigma(2 1)=  0.00000000E+00

================================================================================
== DATASET  2 ==================================================================
-   nproc =    1

 mkfilename : getwfk/=0, take file _WFK from output of DATASET   1.

 Exchange-correlation functional for the present dataset will be:
  LDA: new Teter (4/93) with spin-polarized option - ixc=1
 Citation for XC functional:
  S. Goedecker, M. Teter, J. Huetter, PRB 54, 1703 (1996)

 Real(R)+Recip(G) space primitive vectors, cartesian coordinates (Bohr,Bohr^-1):
 R(1)=  0.0000000  3.8000000  3.8000000  G(1)= -0.1315789  0.1315789  0.1315789
 R(2)=  3.8000000  0.0000000  3.8000000  G(2)=  0.1315789 -0.1315789  0.1315789
 R(3)=  3.8000000  3.8000000  0.0000000  G(3)=  0.1315789  0.1315789 -0.1315789
 Unit cell volume ucvol=  1.0974400E+02 bohr^3
 Angles (23,13,12)=  6.00000000E+01  6.00000000E+01  6.00000000E+01 degrees

 getcut: wavevector=  0.0000  0.0000  0.0000  ngfft=  15  15  15
         ecut(hartree)=      6.615   => boxcut(ratio)=   2.26154

 getcut : COMMENT -
  Note that boxcut > 2.2 ; recall that boxcut=Gcut(box)/Gcut(sphere) = 2
  is sufficient for exact treatment of convolution.
  Such a large boxcut is a waste : you could raise ecut
  e.g. ecut=    8.458196 Hartrees makes boxcut=2

--------------------------------------------------------------------------------

-inwffil : will read wavefunctions from disk file tbase4_2o_DS1_WFK
- newkpt: read input wf with ikpt,npw=   1      85, make ikpt,npw=   1      85
- newkpt: read input wf with ikpt,npw=   2      87, make ikpt,npw=   2      87
- newkpt: read input wf with ikpt,npw=   3      87, make ikpt,npw=   3      87
- newkpt: read input wf with ikpt,npw=   4      88, make ikpt,npw=   4      88
- newkpt: read input wf with ikpt,npw=   5      89, make ikpt,npw=   5      89
- newkpt: read input wf with ikpt,npw=   6      90, make ikpt,npw=   6      90
- newkpt: read input wf with ikpt,npw=   7      92, make ikpt,npw=   7      92
- newkpt: read input wf with ikpt,npw=   8      92, make ikpt,npw=   8      92
- newkpt: read input wf with ikpt,npw=   9      89, make ikpt,npw=   9      89
- newkpt: read input wf with ikpt,npw=  10      89, make ikpt,npw=  10      89

_setup2: Arith. and geom. avg. npw (full set) are      89.000      88.972

================================================================================

=== [ionmov= 3] Broyden-Fletcher-Goldfard-Shanno method (forces,Tot energy) 
================================================================================

--- Iteration: ( 1/10) Internal Cycle: (1/1)
--------------------------------------------------------------------------------

---SELF-CONSISTENT-FIELD CONVERGENCE--------------------------------------------

     iter   Etot(hartree)      deltaE(h)  residm     vres2    diffor    maxfor
 ETOT  1  -2.0980846505012    -2.098E+00 3.075E-02 1.763E-04 0.000E+00 0.000E+00
 ETOT  2  -2.0980848307768    -1.803E-07 8.890E-07 1.026E-05 0.000E+00 0.000E+00
 ETOT  3  -2.0980848377369    -6.960E-09 3.123E-09 5.549E-09 0.000E+00 0.000E+00

 At SCF step    3, etot is converged : 
  for the second time, diff in etot=  6.960E-09 < toldfe=  1.000E-06

 Cartesian components of stress tensor (hartree/bohr^3)
  sigma(1 1)=  9.69836882E-05  sigma(3 2)=  0.00000000E+00
  sigma(2 2)=  9.69836882E-05  sigma(3 1)=  0.00000000E+00
  sigma(3 3)=  9.69836882E-05  sigma(2 1)=  0.00000000E+00


---OUTPUT-----------------------------------------------------------------------

 Cartesian coordinates (xcart) [bohr]
  0.00000000000000E+00  0.00000000000000E+00  0.00000000000000E+00
 Reduced coordinates (xred)
  0.00000000000000E+00  0.00000000000000E+00  0.00000000000000E+00
 Cartesian forces (fcart) [Ha/bohr]; max,rms= 0.00000E+00 0.00000E+00 (free atoms)
 -0.00000000000000E+00 -0.00000000000000E+00 -0.00000000000000E+00
 Reduced forces (fred)
  0.00000000000000E+00  0.00000000000000E+00  0.00000000000000E+00
 Scale of Primitive Cell (acell) [bohr]
  7.60000000000000E+00  7.60000000000000E+00  7.60000000000000E+00
 Real space primitive translations (rprimd) [bohr]
  0.00000000000000E+00  3.80000000000000E+00  3.80000000000000E+00
  3.80000000000000E+00  0.00000000000000E+00  3.80000000000000E+00
  3.80000000000000E+00  3.80000000000000E+00  0.00000000000000E+00
 Unitary Cell Volume (ucvol) [Bohr^3]=  1.09744000000000E+02
 Angles (23,13,12)= [degrees]
  6.00000000000000E+01  6.00000000000000E+01  6.00000000000000E+01
 Lengths [Bohr]
  5.37401153701776E+00  5.37401153701776E+00  5.37401153701776E+00
 Stress tensor in cartesian coordinates (strten) [Ha/bohr^3]
  9.69836881702529E-05  0.00000000000000E+00  0.00000000000000E+00
  0.00000000000000E+00  9.69836881702529E-05  0.00000000000000E+00
  0.00000000000000E+00  0.00000000000000E+00  9.69836881702530E-05
 Total energy (etotal) [Ha]= -2.09808483773691E+00

--- Iteration: ( 2/10) Internal Cycle: (1/1)
--------------------------------------------------------------------------------

---SELF-CONSISTENT-FIELD CONVERGENCE--------------------------------------------

     iter   Etot(hartree)      deltaE(h)  residm     vres2    diffor    maxfor
 ETOT  1  -2.0981675614301    -2.098E+00 4.053E-08 7.543E-05 0.000E+00 0.000E+00
 ETOT  2  -2.0981675951032    -3.367E-08 1.120E-13 4.639E-06 0.000E+00 0.000E+00
 ETOT  3  -2.0981675974391    -2.336E-09 4.878E-11 3.604E-09 0.000E+00 0.000E+00

 At SCF step    3, etot is converged : 
  for the second time, diff in etot=  2.336E-09 < toldfe=  1.000E-06

 Cartesian components of stress tensor (hartree/bohr^3)
  sigma(1 1)=  7.61857279E-05  sigma(3 2)=  0.00000000E+00
  sigma(2 2)=  7.61857279E-05  sigma(3 1)=  0.00000000E+00
  sigma(3 3)=  7.61857279E-05  sigma(2 1)=  0.00000000E+00


---OUTPUT-----------------------------------------------------------------------

 Cartesian coordinates (xcart) [bohr]
  0.00000000000000E+00  0.00000000000000E+00  0.00000000000000E+00
 Reduced coordinates (xred)
  0.00000000000000E+00  0.00000000000000E+00  0.00000000000000E+00
 Cartesian forces (fcart) [Ha/bohr]; max,rms= 0.00000E+00 0.00000E+00 (free atoms)
 -0.00000000000000E+00 -0.00000000000000E+00 -0.00000000000000E+00
 Reduced forces (fred)
  0.00000000000000E+00  0.00000000000000E+00  0.00000000000000E+00
 Scale of Primitive Cell (acell) [bohr]
  7.57788771909718E+00  7.57788771909718E+00  7.57788771909718E+00
 Real space primitive translations (rprimd) [bohr]
  0.00000000000000E+00  3.78894385954859E+00  3.78894385954859E+00
  3.78894385954859E+00  0.00000000000000E+00  3.78894385954859E+00
  3.78894385954859E+00  3.78894385954859E+00  0.00000000000000E+00
 Unitary Cell Volume (ucvol) [Bohr^3]=  1.08788880320234E+02
 Angles (23,13,12)= [degrees]
  6.00000000000000E+01  6.00000000000000E+01  6.00000000000000E+01
 Lengths [Bohr]
  5.35837579324388E+00  5.35837579324388E+00  5.35837579324388E+00
 Stress tensor in cartesian coordinates (strten) [Ha/bohr^3]
  7.61857278505831E-05  0.00000000000000E+00  0.00000000000000E+00
  0.00000000000000E+00  7.61857278505831E-05  0.00000000000000E+00
  0.00000000000000E+00  0.00000000000000E+00  7.61857278505831E-05
 Total energy (etotal) [Ha]= -2.09816759743906E+00

 Difference of energy with previous step (new-old):
           Absolute (Ha)=-8.27597E-05
           Relative     =-3.94446E-05

--- Iteration: ( 3/10) Internal Cycle: (1/1)
--------------------------------------------------------------------------------

---SELF-CONSISTENT-FIELD CONVERGENCE--------------------------------------------

     iter   Etot(hartree)      deltaE(h)  residm     vres2    diffor    maxfor
 ETOT  1  -2.0982863292515    -2.098E+00 2.974E-09 6.862E-04 0.000E+00 0.000E+00
 ETOT  2  -2.0982866240911    -2.948E-07 6.158E-13 4.167E-05 0.000E+00 0.000E+00
 ETOT  3  -2.0982866442113    -2.012E-08 4.094E-10 3.256E-08 0.000E+00 0.000E+00

 At SCF step    3, etot is converged : 
  for the second time, diff in etot=  2.012E-08 < toldfe=  1.000E-06

 Cartesian components of stress tensor (hartree/bohr^3)
  sigma(1 1)=  5.11082325E-06  sigma(3 2)=  0.00000000E+00
  sigma(2 2)=  5.11082325E-06  sigma(3 1)=  0.00000000E+00
  sigma(3 3)=  5.11082325E-06  sigma(2 1)=  0.00000000E+00


---OUTPUT-----------------------------------------------------------------------

 Cartesian coordinates (xcart) [bohr]
  0.00000000000000E+00  0.00000000000000E+00  0.00000000000000E+00
 Reduced coordinates (xred)
  0.00000000000000E+00  0.00000000000000E+00  0.00000000000000E+00
 Cartesian forces (fcart) [Ha/bohr]; max,rms= 0.00000E+00 0.00000E+00 (free atoms)
 -0.00000000000000E+00 -0.00000000000000E+00 -0.00000000000000E+00
 Reduced forces (fred)
  0.00000000000000E+00  0.00000000000000E+00  0.00000000000000E+00
 Scale of Primitive Cell (acell) [bohr]
  7.51129275273709E+00  7.51129275273709E+00  7.51129275273709E+00
 Real space primitive translations (rprimd) [bohr]
  0.00000000000000E+00  3.75564637636855E+00  3.75564637636855E+00
  3.75564637636855E+00  0.00000000000000E+00  3.75564637636855E+00
  3.75564637636855E+00  3.75564637636855E+00  0.00000000000000E+00
 Unitary Cell Volume (ucvol) [Bohr^3]=  1.05945880701364E+02
 Angles (23,13,12)= [degrees]
  6.00000000000000E+01  6.00000000000000E+01  6.00000000000000E+01
 Lengths [Bohr]
  5.31128604093777E+00  5.31128604093777E+00  5.31128604093777E+00
 Stress tensor in cartesian coordinates (strten) [Ha/bohr^3]
  5.11082325052722E-06  0.00000000000000E+00  0.00000000000000E+00
  0.00000000000000E+00  5.11082325052722E-06  0.00000000000000E+00
  0.00000000000000E+00  0.00000000000000E+00  5.11082325052728E-06
 Total energy (etotal) [Ha]= -2.09828664421135E+00

 Difference of energy with previous step (new-old):
           Absolute (Ha)=-1.19047E-04
           Relative     =-5.67368E-05

--- Iteration: ( 4/10) Internal Cycle: (1/1)
--------------------------------------------------------------------------------

---SELF-CONSISTENT-FIELD CONVERGENCE--------------------------------------------

     iter   Etot(hartree)      deltaE(h)  residm     vres2    diffor    maxfor
 ETOT  1  -2.0982871024298    -2.098E+00 2.520E-11 3.088E-06 0.000E+00 0.000E+00
 ETOT  2  -2.0982871037649    -1.335E-09 2.852E-15 1.879E-07 0.000E+00 0.000E+00
 ETOT  3  -2.0982871038556    -9.076E-11 1.854E-12 1.386E-10 0.000E+00 0.000E+00

 At SCF step    3, etot is converged : 
  for the second time, diff in etot=  9.076E-11 < toldfe=  1.000E-06

 Cartesian components of stress tensor (hartree/bohr^3)
  sigma(1 1)=  2.45575271E-08  sigma(3 2)=  0.00000000E+00
  sigma(2 2)=  2.45575271E-08  sigma(3 1)=  0.00000000E+00
  sigma(3 3)=  2.45575271E-08  sigma(2 1)=  0.00000000E+00


---OUTPUT-----------------------------------------------------------------------

 Cartesian coordinates (xcart) [bohr]
  0.00000000000000E+00  0.00000000000000E+00  0.00000000000000E+00
 Reduced coordinates (xred)
  0.00000000000000E+00  0.00000000000000E+00  0.00000000000000E+00
 Cartesian forces (fcart) [Ha/bohr]; max,rms= 0.00000E+00 0.00000E+00 (free atoms)
 -0.00000000000000E+00 -0.00000000000000E+00 -0.00000000000000E+00
 Reduced forces (fred)
  0.00000000000000E+00  0.00000000000000E+00  0.00000000000000E+00
 Scale of Primitive Cell (acell) [bohr]
  7.50704314993131E+00  7.50704314993131E+00  7.50704314993131E+00
 Real space primitive translations (rprimd) [bohr]
  0.00000000000000E+00  3.75352157496566E+00  3.75352157496566E+00
  3.75352157496566E+00  0.00000000000000E+00  3.75352157496566E+00
  3.75352157496566E+00  3.75352157496566E+00  0.00000000000000E+00
 Unitary Cell Volume (ucvol) [Bohr^3]=  1.05766162008603E+02
 Angles (23,13,12)= [degrees]
  6.00000000000000E+01  6.00000000000000E+01  6.00000000000000E+01
 Lengths [Bohr]
  5.30828111797645E+00  5.30828111797645E+00  5.30828111797645E+00
 Stress tensor in cartesian coordinates (strten) [Ha/bohr^3]
  2.45575271440790E-08  0.00000000000000E+00  0.00000000000000E+00
  0.00000000000000E+00  2.45575271441874E-08  0.00000000000000E+00
  0.00000000000000E+00  0.00000000000000E+00  2.45575271441874E-08
 Total energy (etotal) [Ha]= -2.09828710385564E+00

 Difference of energy with previous step (new-old):
           Absolute (Ha)=-4.59644E-07
           Relative     =-2.19057E-07

 At Broyd/MD step   4, gradients are converged : 
  max grad (force/stress) = 2.4558E-06 < tolmxf= 5.0000E-05 ha/bohr (free atoms)

================================================================================

 ----iterations are completed or convergence reached----

 Mean square residual over all n,k,spin=   8.4637E-13; max=  1.8537E-12
  -0.1250 -0.2500  0.0000    1  3.38763E-13 kpt; spin; max resid(k); each band:
  2.48E-13 3.39E-13 3.37E-13
  -0.1250  0.5000  0.0000    1  1.39433E-12 kpt; spin; max resid(k); each band:
  9.56E-13 9.48E-13 1.39E-12
  -0.2500 -0.3750  0.0000    1  1.24538E-12 kpt; spin; max resid(k); each band:
  8.27E-13 4.95E-13 1.25E-12
  -0.1250 -0.3750  0.1250    1  1.85370E-12 kpt; spin; max resid(k); each band:
  8.01E-13 1.04E-12 1.85E-12
  -0.1250  0.2500  0.0000    1  1.21669E-12 kpt; spin; max resid(k); each band:
  8.35E-13 1.08E-12 1.22E-12
  -0.2500  0.3750  0.0000    1  1.41880E-12 kpt; spin; max resid(k); each band:
  8.95E-13 1.23E-12 1.42E-12
  -0.3750  0.5000  0.0000    1  1.21547E-12 kpt; spin; max resid(k); each band:
  9.19E-13 1.22E-12 8.55E-13
  -0.2500  0.5000  0.1250    1  1.29086E-12 kpt; spin; max resid(k); each band:
  8.06E-13 5.99E-13 1.29E-12
  -0.1250  0.0000  0.0000    1  2.15246E-13 kpt; spin; max resid(k); each band:
  2.00E-13 2.15E-13 1.14E-13
  -0.3750  0.0000  0.0000    1  1.06083E-12 kpt; spin; max resid(k); each band:
  4.63E-13 5.01E-13 1.06E-12
 reduced coordinates (array xred) for    1 atoms
       0.000000000000      0.000000000000      0.000000000000
 rms dE/dt=  0.0000E+00; max dE/dt=  0.0000E+00; dE/dt below (all hartree)
    1       0.000000000000      0.000000000000      0.000000000000

 cartesian coordinates (angstrom) at end:
    1      0.00000000000000     0.00000000000000     0.00000000000000

 cartesian forces (hartree/bohr) at end:
    1     -0.00000000000000    -0.00000000000000    -0.00000000000000
 frms,max,avg= 0.0000000E+00 0.0000000E+00   0.000E+00  0.000E+00  0.000E+00 h/b

 cartesian forces (eV/Angstrom) at end:
    1     -0.00000000000000    -0.00000000000000    -0.00000000000000
 frms,max,avg= 0.0000000E+00 0.0000000E+00   0.000E+00  0.000E+00  0.000E+00 e/A
 length scales=  7.507043149931  7.507043149931  7.507043149931 bohr
              =  3.972556138845  3.972556138845  3.972556138845 angstroms
 prteigrs : about to open file tbase4_2o_DS2_EIG
 Fermi (or HOMO) energy (hartree) =   0.29229   Average Vxc (hartree)=  -0.34959
 Eigenvalues (hartree) for nkpt=  10  k points:
 kpt#   1, nband=  3, wtk=  0.09375, kpt= -0.1250 -0.2500  0.0000 (reduced coord)
  -0.07249   0.49038   0.62412
      occupation numbers for kpt#   1
   2.00000   0.00000   0.00000
 kpt#   2, nband=  3, wtk=  0.09375, kpt= -0.1250  0.5000  0.0000 (reduced coord)
   0.09456   0.17722   0.57712
      occupation numbers for kpt#   2
   2.00000   2.01301   0.00000
 kpt#   3, nband=  3, wtk=  0.09375, kpt= -0.2500 -0.3750  0.0000 (reduced coord)
   0.01177   0.41167   0.50140
      occupation numbers for kpt#   3
   2.00000   0.00176   0.00000
 kpt#   4, nband=  3, wtk=  0.18750, kpt= -0.1250 -0.3750  0.1250 (reduced coord)
   0.05343   0.29529   0.46360
      occupation numbers for kpt#   4
   2.00000   0.74138   0.00001
 kpt#   5, nband=  3, wtk=  0.09375, kpt= -0.1250  0.2500  0.0000 (reduced coord)
  -0.03015   0.37464   0.54039
      occupation numbers for kpt#   5
   2.00000   0.00486   0.00000
 kpt#   6, nband=  3, wtk=  0.09375, kpt= -0.2500  0.3750  0.0000 (reduced coord)
   0.13537   0.21567   0.38672
      occupation numbers for kpt#   6
   2.00024   2.10852   0.00500
 kpt#   7, nband=  3, wtk=  0.09375, kpt= -0.3750  0.5000  0.0000 (reduced coord)
   0.13405   0.30473   0.37401
      occupation numbers for kpt#   7
   2.00021   0.46198   0.00477
 kpt#   8, nband=  3, wtk=  0.18750, kpt= -0.2500  0.5000  0.1250 (reduced coord)
   0.17426   0.25500   0.34586
      occupation numbers for kpt#   8
   2.01035   1.95984   0.00327
 kpt#   9, nband=  3, wtk=  0.03125, kpt= -0.1250  0.0000  0.0000 (reduced coord)
  -0.11517   0.60439   0.73132
      occupation numbers for kpt#   9
   2.00000   0.00000   0.00000
 kpt#  10, nband=  3, wtk=  0.03125, kpt= -0.3750  0.0000  0.0000 (reduced coord)
   0.01181   0.25769   0.69841
      occupation numbers for kpt#  10
   2.00000   1.90987   0.00000
 Total charge density [el/Bohr^3]
,     Maximum=    3.4062E-02  at reduced coord.    0.8000    0.8667    0.8667
,Next maximum=    3.4062E-02  at reduced coord.    0.4667    0.8667    0.8667
,     Minimum=    2.6452E-03  at reduced coord.    0.0000    0.0000    0.0000
,Next minimum=    4.7215E-03  at reduced coord.    0.0667    0.0000    0.0000
,  Integrated=    3.0000E+00

--------------------------------------------------------------------------------
 Components of total free energy (in Hartree) :

    Kinetic energy  =  8.75803331987057E-01
    Hartree energy  =  4.20230901504113E-03
    XC energy       = -8.13717165136752E-01
    Ewald energy    = -2.74833631850124E+00
    PspCore energy  =  3.86623857839243E-02
    Loc. psp. energy=  9.56030886089655E-02
    NL   psp  energy=  4.51120219533605E-01
    >>>>> Internal E= -2.09666214870940E+00

    -kT*entropy     = -1.62495514624167E-03
    >>>>>>>>> Etotal= -2.09828710385564E+00

 Other information on the energy :
    Total energy(eV)= -5.70972958315036E+01 ; Band energy (Ha)=   3.7068377829E-01
--------------------------------------------------------------------------------

 Cartesian components of stress tensor (hartree/bohr^3)
  sigma(1 1)=  2.45575271E-08  sigma(3 2)=  0.00000000E+00
  sigma(2 2)=  2.45575271E-08  sigma(3 1)=  0.00000000E+00
  sigma(3 3)=  2.45575271E-08  sigma(2 1)=  0.00000000E+00

-Cartesian components of stress tensor (GPa)         [Pressure= -7.2251E-04 GPa]
- sigma(1 1)=  7.22507271E-04  sigma(3 2)=  0.00000000E+00
- sigma(2 2)=  7.22507271E-04  sigma(3 1)=  0.00000000E+00
- sigma(3 3)=  7.22507271E-04  sigma(2 1)=  0.00000000E+00

================================================================================
== DATASET  3 ==================================================================
-   nproc =    1

 mkfilename : getwfk/=0, take file _WFK from output of DATASET   2.

 Exchange-correlation functional for the present dataset will be:
  LDA: new Teter (4/93) with spin-polarized option - ixc=1
 Citation for XC functional:
  S. Goedecker, M. Teter, J. Huetter, PRB 54, 1703 (1996)

 Real(R)+Recip(G) space primitive vectors, cartesian coordinates (Bohr,Bohr^-1):
 R(1)=  0.0000000  3.8000000  3.8000000  G(1)= -0.1315789  0.1315789  0.1315789
 R(2)=  3.8000000  0.0000000  3.8000000  G(2)=  0.1315789 -0.1315789  0.1315789
 R(3)=  3.8000000  3.8000000  0.0000000  G(3)=  0.1315789  0.1315789 -0.1315789
 Unit cell volume ucvol=  1.0974400E+02 bohr^3
 Angles (23,13,12)=  6.00000000E+01  6.00000000E+01  6.00000000E+01 degrees

 getcut: wavevector=  0.0000  0.0000  0.0000  ngfft=  15  15  15
         ecut(hartree)=      6.615   => boxcut(ratio)=   2.26154

 getcut : COMMENT -
  Note that boxcut > 2.2 ; recall that boxcut=Gcut(box)/Gcut(sphere) = 2
  is sufficient for exact treatment of convolution.
  Such a large boxcut is a waste : you could raise ecut
  e.g. ecut=    8.458196 Hartrees makes boxcut=2

--------------------------------------------------------------------------------

-inwffil : will read wavefunctions from disk file tbase4_2o_DS2_WFK
- newkpt: read input wf with ikpt,npw=   1      85, make ikpt,npw=   1      85
- newkpt: read input wf with ikpt,npw=   2      87, make ikpt,npw=   2      87
- newkpt: read input wf with ikpt,npw=   3      87, make ikpt,npw=   3      87
- newkpt: read input wf with ikpt,npw=   4      86, make ikpt,npw=   4      86
- newkpt: read input wf with ikpt,npw=   5      86, make ikpt,npw=   5      86
- newkpt: read input wf with ikpt,npw=   6      87, make ikpt,npw=   6      87
- newkpt: read input wf with ikpt,npw=   7      87, make ikpt,npw=   7      87
- newkpt: read input wf with ikpt,npw=   8      87, make ikpt,npw=   8      87
- newkpt: read input wf with ikpt,npw=   9      88, make ikpt,npw=   9      88
- newkpt: read input wf with ikpt,npw=  10      89, make ikpt,npw=  10      89
- newkpt: read input wf with ikpt,npw=  11      88, make ikpt,npw=  11      88
- newkpt: read input wf with ikpt,npw=  12      91, make ikpt,npw=  12      91
- newkpt: read input wf with ikpt,npw=  13      90, make ikpt,npw=  13      90
- newkpt: read input wf with ikpt,npw=  14      90, make ikpt,npw=  14      90
- newkpt: read input wf with ikpt,npw=  15      88, make ikpt,npw=  15      88
- newkpt: read input wf with ikpt,npw=  16      90, make ikpt,npw=  16      90
- newkpt: read input wf with ikpt,npw=  17      90, make ikpt,npw=  17      90
- newkpt: read input wf with ikpt,npw=  18      93, make ikpt,npw=  18      93
- newkpt: read input wf with ikpt,npw=  19      89, make ikpt,npw=  19      89
- newkpt: read input wf with ikpt,npw=  20      89, make ikpt,npw=  20      89
- newkpt: read input wf with ikpt,npw=  21      90, make ikpt,npw=  21      90
- newkpt: read input wf with ikpt,npw=  22      94, make ikpt,npw=  22      94
- newkpt: read input wf with ikpt,npw=  23      92, make ikpt,npw=  23      92
- newkpt: read input wf with ikpt,npw=  24      94, make ikpt,npw=  24      94
- newkpt: read input wf with ikpt,npw=  25      92, make ikpt,npw=  25      92
- newkpt: read input wf with ikpt,npw=  26      89, make ikpt,npw=  26      89
- newkpt: read input wf with ikpt,npw=  27      89, make ikpt,npw=  27      89
- newkpt: read input wf with ikpt,npw=  28      89, make ikpt,npw=  28      89

_setup2: Arith. and geom. avg. npw (full set) are      89.361      89.328

================================================================================

=== [ionmov= 3] Broyden-Fletcher-Goldfard-Shanno method (forces,Tot energy) 
================================================================================

--- Iteration: ( 1/10) Internal Cycle: (1/1)
--------------------------------------------------------------------------------

---SELF-CONSISTENT-FIELD CONVERGENCE--------------------------------------------

     iter   Etot(hartree)      deltaE(h)  residm     vres2    diffor    maxfor
 ETOT  1  -2.0983307446550    -2.098E+00 1.789E-03 1.165E-03 0.000E+00 0.000E+00
 ETOT  2  -2.0983313974699    -6.528E-07 2.535E-09 6.940E-05 0.000E+00 0.000E+00
 ETOT  3  -2.0983314413694    -4.390E-08 2.117E-09 7.512E-08 0.000E+00 0.000E+00

 At SCF step    3, etot is converged : 
  for the second time, diff in etot=  4.390E-08 < toldfe=  1.000E-06

 Cartesian components of stress tensor (hartree/bohr^3)
  sigma(1 1)=  1.02680234E-04  sigma(3 2)=  0.00000000E+00
  sigma(2 2)=  1.02680234E-04  sigma(3 1)=  0.00000000E+00
  sigma(3 3)=  1.02680234E-04  sigma(2 1)=  0.00000000E+00


---OUTPUT-----------------------------------------------------------------------

 Cartesian coordinates (xcart) [bohr]
  0.00000000000000E+00  0.00000000000000E+00  0.00000000000000E+00
 Reduced coordinates (xred)
  0.00000000000000E+00  0.00000000000000E+00  0.00000000000000E+00
 Cartesian forces (fcart) [Ha/bohr]; max,rms= 0.00000E+00 0.00000E+00 (free atoms)
 -0.00000000000000E+00 -0.00000000000000E+00 -0.00000000000000E+00
 Reduced forces (fred)
  0.00000000000000E+00  0.00000000000000E+00  0.00000000000000E+00
 Scale of Primitive Cell (acell) [bohr]
  7.60000000000000E+00  7.60000000000000E+00  7.60000000000000E+00
 Real space primitive translations (rprimd) [bohr]
  0.00000000000000E+00  3.80000000000000E+00  3.80000000000000E+00
  3.80000000000000E+00  0.00000000000000E+00  3.80000000000000E+00
  3.80000000000000E+00  3.80000000000000E+00  0.00000000000000E+00
 Unitary Cell Volume (ucvol) [Bohr^3]=  1.09744000000000E+02
 Angles (23,13,12)= [degrees]
  6.00000000000000E+01  6.00000000000000E+01  6.00000000000000E+01
 Lengths [Bohr]
  5.37401153701776E+00  5.37401153701776E+00  5.37401153701776E+00
 Stress tensor in cartesian coordinates (strten) [Ha/bohr^3]
  1.02680233920024E-04  0.00000000000000E+00  0.00000000000000E+00
  0.00000000000000E+00  1.02680233920024E-04  0.00000000000000E+00
  0.00000000000000E+00  0.00000000000000E+00  1.02680233920024E-04
 Total energy (etotal) [Ha]= -2.09833144136938E+00

--- Iteration: ( 2/10) Internal Cycle: (1/1)
--------------------------------------------------------------------------------

---SELF-CONSISTENT-FIELD CONVERGENCE--------------------------------------------

     iter   Etot(hartree)      deltaE(h)  residm     vres2    diffor    maxfor
 ETOT  1  -2.0984239694027    -2.098E+00 2.129E-07 8.724E-05 0.000E+00 0.000E+00
 ETOT  2  -2.0984240079404    -3.854E-08 2.955E-11 5.407E-06 0.000E+00 0.000E+00
 ETOT  3  -2.0984240106576    -2.717E-09 8.411E-11 3.684E-09 0.000E+00 0.000E+00

 At SCF step    3, etot is converged : 
  for the second time, diff in etot=  2.717E-09 < toldfe=  1.000E-06

 Cartesian components of stress tensor (hartree/bohr^3)
  sigma(1 1)=  8.01971001E-05  sigma(3 2)=  0.00000000E+00
  sigma(2 2)=  8.01971001E-05  sigma(3 1)=  0.00000000E+00
  sigma(3 3)=  8.01971001E-05  sigma(2 1)=  0.00000000E+00


---OUTPUT-----------------------------------------------------------------------

 Cartesian coordinates (xcart) [bohr]
  0.00000000000000E+00  0.00000000000000E+00  0.00000000000000E+00
 Reduced coordinates (xred)
  0.00000000000000E+00  0.00000000000000E+00  0.00000000000000E+00
 Cartesian forces (fcart) [Ha/bohr]; max,rms= 0.00000E+00 0.00000E+00 (free atoms)
 -0.00000000000000E+00 -0.00000000000000E+00 -0.00000000000000E+00
 Reduced forces (fred)
  0.00000000000000E+00  0.00000000000000E+00  0.00000000000000E+00
 Scale of Primitive Cell (acell) [bohr]
  7.57658890666623E+00  7.57658890666623E+00  7.57658890666623E+00
 Real space primitive translations (rprimd) [bohr]
  0.00000000000000E+00  3.78829445333312E+00  3.78829445333312E+00
  3.78829445333312E+00  0.00000000000000E+00  3.78829445333312E+00
  3.78829445333312E+00  3.78829445333312E+00  0.00000000000000E+00
 Unitary Cell Volume (ucvol) [Bohr^3]=  1.08732952280957E+02
 Angles (23,13,12)= [degrees]
  6.00000000000000E+01  6.00000000000000E+01  6.00000000000000E+01
 Lengths [Bohr]
  5.35745739416646E+00  5.35745739416646E+00  5.35745739416646E+00
 Stress tensor in cartesian coordinates (strten) [Ha/bohr^3]
  8.01971000511581E-05  0.00000000000000E+00  0.00000000000000E+00
  0.00000000000000E+00  8.01971000511582E-05  0.00000000000000E+00
  0.00000000000000E+00  0.00000000000000E+00  8.01971000511581E-05
 Total energy (etotal) [Ha]= -2.09842401065761E+00

 Difference of energy with previous step (new-old):
           Absolute (Ha)=-9.25693E-05
           Relative     =-4.41147E-05

--- Iteration: ( 3/10) Internal Cycle: (1/1)
--------------------------------------------------------------------------------

---SELF-CONSISTENT-FIELD CONVERGENCE--------------------------------------------

     iter   Etot(hartree)      deltaE(h)  residm     vres2    diffor    maxfor
 ETOT  1  -2.0985539007825    -2.099E+00 1.989E-05 6.963E-04 0.000E+00 0.000E+00
 ETOT  2  -2.0985541961041    -2.953E-07 1.048E-10 4.261E-05 0.000E+00 0.000E+00
 ETOT  3  -2.0985542166311    -2.053E-08 6.168E-10 2.907E-08 0.000E+00 0.000E+00

 At SCF step    3, etot is converged : 
  for the second time, diff in etot=  2.053E-08 < toldfe=  1.000E-06

 Cartesian components of stress tensor (hartree/bohr^3)
  sigma(1 1)=  1.05847518E-05  sigma(3 2)=  0.00000000E+00
  sigma(2 2)=  1.05847518E-05  sigma(3 1)=  0.00000000E+00
  sigma(3 3)=  1.05847518E-05  sigma(2 1)=  0.00000000E+00


---OUTPUT-----------------------------------------------------------------------

 Cartesian coordinates (xcart) [bohr]
  0.00000000000000E+00  0.00000000000000E+00  0.00000000000000E+00
 Reduced coordinates (xred)
  0.00000000000000E+00  0.00000000000000E+00  0.00000000000000E+00
 Cartesian forces (fcart) [Ha/bohr]; max,rms= 0.00000E+00 0.00000E+00 (free atoms)
 -0.00000000000000E+00 -0.00000000000000E+00 -0.00000000000000E+00
 Reduced forces (fred)
  0.00000000000000E+00  0.00000000000000E+00  0.00000000000000E+00
 Scale of Primitive Cell (acell) [bohr]
  7.51070345840212E+00  7.51070345840212E+00  7.51070345840212E+00
 Real space primitive translations (rprimd) [bohr]
  0.00000000000000E+00  3.75535172920106E+00  3.75535172920106E+00
  3.75535172920106E+00  0.00000000000000E+00  3.75535172920106E+00
  3.75535172920106E+00  3.75535172920106E+00  0.00000000000000E+00
 Unitary Cell Volume (ucvol) [Bohr^3]=  1.05920946880520E+02
 Angles (23,13,12)= [degrees]
  6.00000000000000E+01  6.00000000000000E+01  6.00000000000000E+01
 Lengths [Bohr]
  5.31086934691739E+00  5.31086934691739E+00  5.31086934691739E+00
 Stress tensor in cartesian coordinates (strten) [Ha/bohr^3]
  1.05847518156197E-05  0.00000000000000E+00  0.00000000000000E+00
  0.00000000000000E+00  1.05847518156196E-05  0.00000000000000E+00
  0.00000000000000E+00  0.00000000000000E+00  1.05847518156197E-05
 Total energy (etotal) [Ha]= -2.09855421663112E+00

 Difference of energy with previous step (new-old):
           Absolute (Ha)=-1.30206E-04
           Relative     =-6.20475E-05

--- Iteration: ( 4/10) Internal Cycle: (1/1)
--------------------------------------------------------------------------------

---SELF-CONSISTENT-FIELD CONVERGENCE--------------------------------------------

     iter   Etot(hartree)      deltaE(h)  residm     vres2    diffor    maxfor
 ETOT  1  -2.0985563018879    -2.099E+00 9.576E-09 1.441E-05 0.000E+00 0.000E+00
 ETOT  2  -2.0985563080253    -6.137E-09 6.305E-13 8.829E-07 0.000E+00 0.000E+00
 ETOT  3  -2.0985563084501    -4.247E-10 1.287E-11 5.562E-10 0.000E+00 0.000E+00

 At SCF step    3, etot is converged : 
  for the second time, diff in etot=  4.247E-10 < toldfe=  1.000E-06

 Cartesian components of stress tensor (hartree/bohr^3)
  sigma(1 1)=  4.03205947E-07  sigma(3 2)=  0.00000000E+00
  sigma(2 2)=  4.03205947E-07  sigma(3 1)=  0.00000000E+00
  sigma(3 3)=  4.03205947E-07  sigma(2 1)=  0.00000000E+00


---OUTPUT-----------------------------------------------------------------------

 Cartesian coordinates (xcart) [bohr]
  0.00000000000000E+00  0.00000000000000E+00  0.00000000000000E+00
 Reduced coordinates (xred)
  0.00000000000000E+00  0.00000000000000E+00  0.00000000000000E+00
 Cartesian forces (fcart) [Ha/bohr]; max,rms= 0.00000E+00 0.00000E+00 (free atoms)
 -0.00000000000000E+00 -0.00000000000000E+00 -0.00000000000000E+00
 Reduced forces (fred)
  0.00000000000000E+00  0.00000000000000E+00  0.00000000000000E+00
 Scale of Primitive Cell (acell) [bohr]
  7.50168777561855E+00  7.50168777561855E+00  7.50168777561855E+00
 Real space primitive translations (rprimd) [bohr]
  0.00000000000000E+00  3.75084388780928E+00  3.75084388780928E+00
  3.75084388780928E+00  0.00000000000000E+00  3.75084388780928E+00
  3.75084388780928E+00  3.75084388780928E+00  0.00000000000000E+00
 Unitary Cell Volume (ucvol) [Bohr^3]=  1.05539969058409E+02
 Angles (23,13,12)= [degrees]
  6.00000000000000E+01  6.00000000000000E+01  6.00000000000000E+01
 Lengths [Bohr]
  5.30449429648411E+00  5.30449429648411E+00  5.30449429648411E+00
 Stress tensor in cartesian coordinates (strten) [Ha/bohr^3]
  4.03205947495714E-07  0.00000000000000E+00  0.00000000000000E+00
  0.00000000000000E+00  4.03205947495714E-07  0.00000000000000E+00
  0.00000000000000E+00  0.00000000000000E+00  4.03205947495714E-07
 Total energy (etotal) [Ha]= -2.09855630845007E+00

 Difference of energy with previous step (new-old):
           Absolute (Ha)=-2.09182E-06
           Relative     =-9.96790E-07

 At Broyd/MD step   4, gradients are converged : 
  max grad (force/stress) = 4.0321E-05 < tolmxf= 5.0000E-05 ha/bohr (free atoms)

================================================================================

 ----iterations are completed or convergence reached----

 Mean square residual over all n,k,spin=   4.2261E-12; max=  1.2873E-11
  -0.0833 -0.1667  0.0000    1  2.47134E-12 kpt; spin; max resid(k); each band:
  8.85E-13 2.47E-12 6.84E-14
  -0.0833 -0.3333  0.0000    1  2.58016E-12 kpt; spin; max resid(k); each band:
  2.11E-12 2.58E-12 1.01E-13
  -0.1667 -0.2500  0.0000    1  2.32167E-12 kpt; spin; max resid(k); each band:
  8.96E-13 2.32E-12 1.36E-12
  -0.0833 -0.2500  0.0833    1  5.54294E-12 kpt; spin; max resid(k); each band:
  3.81E-12 3.57E-12 5.54E-12
  -0.0833  0.5000  0.0000    1  7.26802E-12 kpt; spin; max resid(k); each band:
  3.81E-12 4.53E-12 7.27E-12
  -0.1667 -0.4167  0.0000    1  8.46745E-12 kpt; spin; max resid(k); each band:
  4.07E-12 4.48E-12 8.47E-12
  -0.0833 -0.4167  0.0833    1  1.02471E-11 kpt; spin; max resid(k); each band:
  4.14E-12 4.68E-12 1.02E-11
  -0.2500 -0.3333  0.0000    1  6.18376E-12 kpt; spin; max resid(k); each band:
  2.75E-12 2.36E-12 6.18E-12
  -0.1667 -0.3333  0.0833    1  1.28726E-11 kpt; spin; max resid(k); each band:
  3.33E-12 3.17E-12 1.29E-11
  -0.0833 -0.3333  0.1667    1  6.58642E-12 kpt; spin; max resid(k); each band:
  4.92E-12 4.27E-12 6.59E-12
  -0.0833  0.3333  0.0000    1  4.76633E-12 kpt; spin; max resid(k); each band:
  4.17E-12 4.77E-12 4.69E-12
  -0.1667  0.4167  0.0000    1  6.03731E-12 kpt; spin; max resid(k); each band:
  4.48E-12 5.78E-12 6.04E-12
  -0.2500  0.5000  0.0000    1  5.83048E-12 kpt; spin; max resid(k); each band:
  4.71E-12 4.99E-12 5.83E-12
  -0.1667  0.5000  0.0833    1  1.02272E-11 kpt; spin; max resid(k); each band:
  3.81E-12 4.73E-12 1.02E-11
  -0.3333 -0.4167  0.0000    1  3.78722E-12 kpt; spin; max resid(k); each band:
  3.46E-12 3.60E-12 3.79E-12
  -0.2500 -0.4167  0.0833    1  8.19880E-12 kpt; spin; max resid(k); each band:
  3.14E-12 2.33E-12 8.20E-12
  -0.1667 -0.4167  0.1667    1  9.45898E-12 kpt; spin; max resid(k); each band:
  3.51E-12 3.11E-12 9.46E-12
  -0.0833 -0.4167  0.2500    1  6.25335E-12 kpt; spin; max resid(k); each band:
  4.17E-12 4.75E-12 6.25E-12
  -0.0833  0.1667  0.0000    1  4.16653E-12 kpt; spin; max resid(k); each band:
  3.12E-12 3.28E-12 4.17E-12
  -0.1667  0.2500  0.0000    1  6.11958E-12 kpt; spin; max resid(k); each band:
  4.83E-12 4.27E-12 6.12E-12
  -0.2500  0.3333  0.0000    1  6.58117E-12 kpt; spin; max resid(k); each band:
  5.17E-12 4.49E-12 6.58E-12
  -0.3333  0.4167  0.0000    1  5.69948E-12 kpt; spin; max resid(k); each band:
  3.41E-12 4.41E-12 5.70E-12
  -0.4167  0.5000  0.0000    1  4.56089E-12 kpt; spin; max resid(k); each band:
  3.09E-12 4.56E-12 3.24E-12
  -0.3333  0.5000  0.0833    1  4.70662E-12 kpt; spin; max resid(k); each band:
  3.22E-12 4.37E-12 4.71E-12
  -0.2500  0.5000  0.1667    1  5.31101E-12 kpt; spin; max resid(k); each band:
  1.93E-12 2.18E-12 5.31E-12
  -0.0833  0.0000  0.0000    1  1.65725E-12 kpt; spin; max resid(k); each band:
  6.81E-13 1.04E-12 1.66E-12
  -0.2500  0.0000  0.0000    1  2.62739E-12 kpt; spin; max resid(k); each band:
  1.91E-12 2.63E-12 1.31E-12
  -0.4167  0.0000  0.0000    1  8.57938E-12 kpt; spin; max resid(k); each band:
  2.55E-12 2.65E-12 8.58E-12
 reduced coordinates (array xred) for    1 atoms
       0.000000000000      0.000000000000      0.000000000000
 rms dE/dt=  0.0000E+00; max dE/dt=  0.0000E+00; dE/dt below (all hartree)
    1       0.000000000000      0.000000000000      0.000000000000

 cartesian coordinates (angstrom) at end:
    1      0.00000000000000     0.00000000000000     0.00000000000000

 cartesian forces (hartree/bohr) at end:
    1     -0.00000000000000    -0.00000000000000    -0.00000000000000
 frms,max,avg= 0.0000000E+00 0.0000000E+00   0.000E+00  0.000E+00  0.000E+00 h/b

 cartesian forces (eV/Angstrom) at end:
    1     -0.00000000000000    -0.00000000000000    -0.00000000000000
 frms,max,avg= 0.0000000E+00 0.0000000E+00   0.000E+00  0.000E+00  0.000E+00 e/A
 length scales=  7.501687775619  7.501687775619  7.501687775619 bohr
              =  3.969722196816  3.969722196816  3.969722196816 angstroms
 prteigrs : about to open file tbase4_2o_DS3_EIG
 Fermi (or HOMO) energy (hartree) =   0.29137   Average Vxc (hartree)=  -0.34983
 Eigenvalues (hartree) for nkpt=  28  k points:
 kpt#   1, nband=  3, wtk=  0.02778, kpt= -0.0833 -0.1667  0.0000 (reduced coord)
  -0.10481   0.58777   0.66994
      occupation numbers for kpt#   1
   2.00000   0.00000   0.00000
 kpt#   2, nband=  3, wtk=  0.02778, kpt= -0.0833 -0.3333  0.0000 (reduced coord)
  -0.02922   0.35132   0.63863
      occupation numbers for kpt#   2
   2.00000   0.00008   0.00000
 kpt#   3, nband=  3, wtk=  0.02778, kpt= -0.1667 -0.2500  0.0000 (reduced coord)
  -0.06687   0.51920   0.60559
      occupation numbers for kpt#   3
   2.00000   0.00000   0.00000
 kpt#   4, nband=  3, wtk=  0.05556, kpt= -0.0833 -0.2500  0.0833 (reduced coord)
  -0.04801   0.43494   0.55069
      occupation numbers for kpt#   4
   2.00000   0.00027   0.00000
 kpt#   5, nband=  3, wtk=  0.02778, kpt= -0.0833  0.5000  0.0000 (reduced coord)
   0.10009   0.15603   0.63135
      occupation numbers for kpt#   5
   2.00000   2.00230   0.00000
 kpt#   6, nband=  3, wtk=  0.02778, kpt= -0.1667 -0.4167  0.0000 (reduced coord)
   0.02675   0.29825   0.56675
      occupation numbers for kpt#   6
   2.00000   0.61952   0.00000
 kpt#   7, nband=  3, wtk=  0.05556, kpt= -0.0833 -0.4167  0.0833 (reduced coord)
   0.06369   0.22743   0.54809
      occupation numbers for kpt#   7
   2.00000   2.14041   0.00000
 kpt#   8, nband=  3, wtk=  0.02778, kpt= -0.2500 -0.3333  0.0000 (reduced coord)
  -0.01052   0.46673   0.53290
      occupation numbers for kpt#   8
   2.00000   0.00001   0.00000
 kpt#   9, nband=  3, wtk=  0.05556, kpt= -0.1667 -0.3333  0.0833 (reduced coord)
   0.00814   0.38225   0.49910
      occupation numbers for kpt#   9
   2.00000   0.00522   0.00000
 kpt#  10, nband=  3, wtk=  0.05556, kpt= -0.0833 -0.3333  0.1667 (reduced coord)
   0.04527   0.31222   0.43367
      occupation numbers for kpt#  10
   2.00000   0.27045   0.00030
 kpt#  11, nband=  3, wtk=  0.02778, kpt= -0.0833  0.3333  0.0000 (reduced coord)
   0.00817   0.28097   0.59771
      occupation numbers for kpt#  11
   2.00000   1.20464   0.00000
 kpt#  12, nband=  3, wtk=  0.02778, kpt= -0.1667  0.4167  0.0000 (reduced coord)
   0.11824   0.17388   0.49891
      occupation numbers for kpt#  12
   2.00003   2.01080   0.00000
 kpt#  13, nband=  3, wtk=  0.02778, kpt= -0.2500  0.5000  0.0000 (reduced coord)
   0.10005   0.26243   0.42976
      occupation numbers for kpt#  13
   2.00000   1.78290   0.00043
 kpt#  14, nband=  3, wtk=  0.05556, kpt= -0.1667  0.5000  0.0833 (reduced coord)
   0.13609   0.19184   0.46321
      occupation numbers for kpt#  14
   2.00029   2.03741   0.00001
 kpt#  15, nband=  3, wtk=  0.02778, kpt= -0.3333 -0.4167  0.0000 (reduced coord)
   0.06344   0.39281   0.43328
      occupation numbers for kpt#  15
   2.00000   0.00419   0.00031
 kpt#  16, nband=  3, wtk=  0.05556, kpt= -0.2500 -0.4167  0.0833 (reduced coord)
   0.08181   0.34653   0.41091
      occupation numbers for kpt#  16
   2.00000   0.00191   0.00174
 kpt#  17, nband=  3, wtk=  0.05556, kpt= -0.1667 -0.4167  0.1667 (reduced coord)
   0.11830   0.27678   0.39643
      occupation numbers for kpt#  17
   2.00003   1.35018   0.00368
 kpt#  18, nband=  3, wtk=  0.05556, kpt= -0.0833 -0.4167  0.2500 (reduced coord)
   0.17211   0.22406   0.34600
      occupation numbers for kpt#  18
   2.00939   2.13520   0.00231
 kpt#  19, nband=  3, wtk=  0.02778, kpt= -0.0833  0.1667  0.0000 (reduced coord)
  -0.08581   0.50428   0.61509
      occupation numbers for kpt#  19
   2.00000   0.00000   0.00000
 kpt#  20, nband=  3, wtk=  0.02778, kpt= -0.1667  0.2500  0.0000 (reduced coord)
  -0.01048   0.36510   0.48535
      occupation numbers for kpt#  20
   2.00000   0.00296   0.00000
 kpt#  21, nband=  3, wtk=  0.02778, kpt= -0.2500  0.3333  0.0000 (reduced coord)
   0.10035   0.25923   0.38166
      occupation numbers for kpt#  21
   2.00000   1.85824   0.00524
 kpt#  22, nband=  3, wtk=  0.02778, kpt= -0.3333  0.4167  0.0000 (reduced coord)
   0.18709   0.24388   0.31130
      occupation numbers for kpt#  22
   2.02781   2.09006   0.28864
 kpt#  23, nband=  3, wtk=  0.02778, kpt= -0.4167  0.5000  0.0000 (reduced coord)
   0.15176   0.27271   0.41528
      occupation numbers for kpt#  23
   2.00152   1.48565   0.00131
 kpt#  24, nband=  3, wtk=  0.05556, kpt= -0.3333  0.5000  0.0833 (reduced coord)
   0.16955   0.28911   0.33178
      occupation numbers for kpt#  24
   2.00763   0.91827   0.04109
 kpt#  25, nband=  3, wtk=  0.05556, kpt= -0.2500  0.5000  0.1667 (reduced coord)
   0.20489   0.25855   0.32563
      occupation numbers for kpt#  25
   2.07433   1.87308   0.08475
 kpt#  26, nband=  3, wtk=  0.00926, kpt= -0.0833  0.0000  0.0000 (reduced coord)
  -0.12391   0.66947   0.74713
      occupation numbers for kpt#  26
   2.00000   0.00000   0.00000
 kpt#  27, nband=  3, wtk=  0.00926, kpt= -0.2500  0.0000  0.0000 (reduced coord)
  -0.06688   0.42111   0.70338
      occupation numbers for kpt#  27
   2.00000   0.00086   0.00000
 kpt#  28, nband=  3, wtk=  0.00926, kpt= -0.4167  0.0000  0.0000 (reduced coord)
[...]
                      -3.75000000E-01  0.00000000E+00  0.00000000E+00
              kpt3    -8.33333333E-02 -1.66666667E-01  0.00000000E+00
                      -8.33333333E-02 -3.33333333E-01  0.00000000E+00
                      -1.66666667E-01 -2.50000000E-01  0.00000000E+00
                      -8.33333333E-02 -2.50000000E-01  8.33333333E-02
                      -8.33333333E-02  5.00000000E-01  0.00000000E+00
                      -1.66666667E-01 -4.16666667E-01  0.00000000E+00
                      -8.33333333E-02 -4.16666667E-01  8.33333333E-02
                      -2.50000000E-01 -3.33333333E-01  0.00000000E+00
                      -1.66666667E-01 -3.33333333E-01  8.33333333E-02
                      -8.33333333E-02 -3.33333333E-01  1.66666667E-01
                      -8.33333333E-02  3.33333333E-01  0.00000000E+00
                      -1.66666667E-01  4.16666667E-01  0.00000000E+00
                      -2.50000000E-01  5.00000000E-01  0.00000000E+00
                      -1.66666667E-01  5.00000000E-01  8.33333333E-02
                      -3.33333333E-01 -4.16666667E-01  0.00000000E+00
                      -2.50000000E-01 -4.16666667E-01  8.33333333E-02
                      -1.66666667E-01 -4.16666667E-01  1.66666667E-01
                      -8.33333333E-02 -4.16666667E-01  2.50000000E-01
                      -8.33333333E-02  1.66666667E-01  0.00000000E+00
                      -1.66666667E-01  2.50000000E-01  0.00000000E+00
                      -2.50000000E-01  3.33333333E-01  0.00000000E+00
                      -3.33333333E-01  4.16666667E-01  0.00000000E+00
                      -4.16666667E-01  5.00000000E-01  0.00000000E+00
                      -3.33333333E-01  5.00000000E-01  8.33333333E-02
                      -2.50000000E-01  5.00000000E-01  1.66666667E-01
                      -8.33333333E-02  0.00000000E+00  0.00000000E+00
                      -2.50000000E-01  0.00000000E+00  0.00000000E+00
                      -4.16666667E-01  0.00000000E+00  0.00000000E+00
              kpt4    -6.25000000E-02 -1.25000000E-01  0.00000000E+00
                      -6.25000000E-02 -2.50000000E-01  0.00000000E+00
                      -1.25000000E-01 -1.87500000E-01  0.00000000E+00
                      -6.25000000E-02 -1.87500000E-01  6.25000000E-02
                      -6.25000000E-02 -3.75000000E-01  0.00000000E+00
                      -1.25000000E-01 -3.12500000E-01  0.00000000E+00
                      -6.25000000E-02 -3.12500000E-01  6.25000000E-02
                      -1.87500000E-01 -2.50000000E-01  0.00000000E+00
                      -1.25000000E-01 -2.50000000E-01  6.25000000E-02
                      -6.25000000E-02 -2.50000000E-01  1.25000000E-01
                      -6.25000000E-02  5.00000000E-01  0.00000000E+00
                      -1.25000000E-01 -4.37500000E-01  0.00000000E+00
                      -6.25000000E-02 -4.37500000E-01  6.25000000E-02
                      -1.87500000E-01 -3.75000000E-01  0.00000000E+00
                      -1.25000000E-01 -3.75000000E-01  6.25000000E-02
                      -6.25000000E-02 -3.75000000E-01  1.25000000E-01
                      -2.50000000E-01 -3.12500000E-01  0.00000000E+00
                      -1.87500000E-01 -3.12500000E-01  6.25000000E-02
                      -1.25000000E-01 -3.12500000E-01  1.25000000E-01
                      -6.25000000E-02 -3.12500000E-01  1.87500000E-01
                      -6.25000000E-02  3.75000000E-01  0.00000000E+00
                      -1.25000000E-01  4.37500000E-01  0.00000000E+00
                      -1.87500000E-01  5.00000000E-01  0.00000000E+00
                      -1.25000000E-01  5.00000000E-01  6.25000000E-02
                      -2.50000000E-01 -4.37500000E-01  0.00000000E+00
                      -1.87500000E-01 -4.37500000E-01  6.25000000E-02
                      -1.25000000E-01 -4.37500000E-01  1.25000000E-01
                      -6.25000000E-02 -4.37500000E-01  1.87500000E-01
                      -3.12500000E-01 -3.75000000E-01  0.00000000E+00
                      -2.50000000E-01 -3.75000000E-01  6.25000000E-02
                      -1.87500000E-01 -3.75000000E-01  1.25000000E-01
                      -1.25000000E-01 -3.75000000E-01  1.87500000E-01
                      -6.25000000E-02 -3.75000000E-01  2.50000000E-01
                      -6.25000000E-02  2.50000000E-01  0.00000000E+00
                      -1.25000000E-01  3.12500000E-01  0.00000000E+00
                      -1.87500000E-01  3.75000000E-01  0.00000000E+00
                      -2.50000000E-01  4.37500000E-01  0.00000000E+00
                      -3.12500000E-01  5.00000000E-01  0.00000000E+00
                      -2.50000000E-01  5.00000000E-01  6.25000000E-02
                      -1.87500000E-01  5.00000000E-01  1.25000000E-01
                      -3.75000000E-01 -4.37500000E-01  0.00000000E+00
                      -3.12500000E-01 -4.37500000E-01  6.25000000E-02
                      -2.50000000E-01 -4.37500000E-01  1.25000000E-01
                      -1.87500000E-01 -4.37500000E-01  1.87500000E-01
                      -1.25000000E-01 -4.37500000E-01  2.50000000E-01
                      -6.25000000E-02 -4.37500000E-01  3.12500000E-01
                      -6.25000000E-02  1.25000000E-01  0.00000000E+00
                      -1.25000000E-01  1.87500000E-01  0.00000000E+00
                      -1.87500000E-01  2.50000000E-01  0.00000000E+00
                      -2.50000000E-01  3.12500000E-01  0.00000000E+00
                       outvar_i_n : Printing only first  50 k-points.
         kptrlatt1       2   -2    2     -2    2    2     -2   -2    2
         kptrlatt2       4   -4    4     -4    4    4     -4   -4    4
         kptrlatt3       6   -6    6     -6    6    6     -6   -6    6
         kptrlatt4       8   -8    8     -8    8    8     -8   -8    8
          kptrlen1     1.52000000E+01
          kptrlen2     3.04000000E+01
          kptrlen3     4.56000000E+01
          kptrlen4     6.08000000E+01
P           mkmem1          2
P           mkmem2         10
P           mkmem3         28
P           mkmem4         60
            natom           1
            nband1          3
            nband2          3
            nband3          3
            nband4          3
           ndtset           4
            ngfft          15      15      15
             nkpt1          2
             nkpt2         10
             nkpt3         28
             nkpt4         60
            nstep          10
             nsym          48
            ntime          10
           ntypat           1
              occ1     2.000029  1.333066  0.000138
                       2.000000  0.000299  0.000000
              occ2     2.000000  0.000000  0.000000
                       2.000001  2.013008  0.000000
                       2.000000  0.001757  0.000000
                       2.000000  0.741378  0.000014
                       2.000000  0.004856  0.000000
                       2.000241  2.108517  0.005003
                       2.000207  0.461980  0.004770
                       2.010353  1.959837  0.003268
                       2.000000  0.000000  0.000000
                       2.000000  1.909875  0.000000
              occ3     2.000000  0.000000  0.000000
                       2.000000  0.000077  0.000000
                       2.000000  0.000000  0.000000
                       2.000000  0.000270  0.000000
                       2.000003  2.002302  0.000000
                       2.000000  0.619522  0.000000
                       2.000000  2.140411  0.000000
                       2.000000  0.000009  0.000000
                       2.000000  0.005221  0.000000
                       2.000000  0.270448  0.000303
                       2.000000  1.204641  0.000000
                       2.000034  2.010799  0.000000
                       2.000003  1.782903  0.000427
                       2.000290  2.037415  0.000013
                       2.000000  0.004193  0.000314
                       2.000000  0.001912  0.001740
                       2.000034  1.350179  0.003675
                       2.009386  2.135201  0.002312
                       2.000000  0.000000  0.000000
                       2.000000  0.002965  0.000001
                       2.000003  1.858239  0.005240
                       2.027806  2.090058  0.288640
                       2.001523  1.485650  0.001307
                       2.007633  0.918274  0.041088
                       2.074332  1.873080  0.084753
                       2.000000  0.000000  0.000000
                       2.000000  0.000859  0.000000
                       2.000000  2.091346  0.000000
              occ4     2.000000  0.000000  0.000000
                       2.000000  0.000040  0.000000
                       2.000000  0.000000  0.000000
                       2.000000  0.000000  0.000000
                       2.000000  0.976472  0.000000
                       2.000000  0.002483  0.000000
                       2.000000  0.002066  0.000000
                       2.000000  0.000000  0.000000
                       2.000000  0.000007  0.000000
                       2.000000  0.001851  0.000000
                       2.000005  2.000919  0.000000
                       2.000000  2.056477  0.000000
                       2.000000  2.050333  0.000000
                       2.000000  0.002994  0.000000
                       2.000000  0.394513  0.000000
                       2.000000  1.911602  0.000000
                       2.000000  0.000000  0.000000
                       2.000000  0.000453  0.000000
                       2.000000  0.004289  0.000008
                       2.000000  0.133702  0.000901
                       2.000000  2.129031  0.000000
                       2.000020  2.002500  0.000000
                       2.000001  2.116152  0.000000
                       2.000073  2.006225  0.000000
                       2.000000  0.025507  0.000014
                       2.000000  1.364165  0.000001
                       2.000005  2.139366  0.000005
                       2.000738  2.027311  0.000286
                       2.000000  0.000144  0.000009
                       2.000000  0.003300  0.000051
                       2.000000  0.009770  0.000250
                       2.000001  0.847778  0.004520
                       2.000258  2.001570  0.000079
                       2.000000  0.003790  0.000000
                       2.000000  0.665441  0.000000
                       2.000001  2.114480  0.000012
                       2.001938  2.051095  0.002442
                       2.000020  0.234190  0.003327
                       2.000241  1.921862  0.005061
                       2.004913  2.081082  0.001598
                       2.000001  0.004158  0.000090
                       2.000005  0.000012  0.005235
                       2.000073  0.143859  0.004684
                       2.002044  1.534509  0.003415
                       2.043969  2.141108  0.047753
                       2.060695  2.079638  0.510999
                       2.000000  0.000000  0.000000
                       2.000000  0.000022  0.000000
                       2.000000  0.001583  0.000021
                       2.000000  1.193103  0.005248
                       prtocc : prtvol=0, do not print more k-points.
           occopt           4
          optcell           1
        optforces           1
            rprim      0.0000000000E+00  5.0000000000E-01  5.0000000000E-01
                       5.0000000000E-01  0.0000000000E+00  5.0000000000E-01
                       5.0000000000E-01  5.0000000000E-01  0.0000000000E+00
           shiftk      5.00000000E-01  5.00000000E-01  5.00000000E-01
          spgroup         225
           strten1     1.7669790322E-08  1.7669790322E-08  1.7669790322E-08
                       0.0000000000E+00  0.0000000000E+00  0.0000000000E+00
           strten2     2.4557527144E-08  2.4557527144E-08  2.4557527144E-08
                       0.0000000000E+00  0.0000000000E+00  0.0000000000E+00
           strten3     4.0320594750E-07  4.0320594750E-07  4.0320594750E-07
                       0.0000000000E+00  0.0000000000E+00  0.0000000000E+00
           strten4     3.0923585938E-07  3.0923585938E-07  3.0923585938E-07
                       0.0000000000E+00  0.0000000000E+00  0.0000000000E+00
           symrel      1  0  0   0  1  0   0  0  1      -1  0  0   0 -1  0   0  0 -1
                       0 -1  1   0 -1  0   1 -1  0       0  1 -1   0  1  0  -1  1  0
                      -1  0  0  -1  0  1  -1  1  0       1  0  0   1  0 -1   1 -1  0
                       0  1 -1   1  0 -1   0  0 -1       0 -1  1  -1  0  1   0  0  1
                      -1  0  0  -1  1  0  -1  0  1       1  0  0   1 -1  0   1  0 -1
                       0 -1  1   1 -1  0   0 -1  0       0  1 -1  -1  1  0   0  1  0
                       1  0  0   0  0  1   0  1  0      -1  0  0   0  0 -1   0 -1  0
                       0  1 -1   0  0 -1   1  0 -1       0 -1  1   0  0  1  -1  0  1
                      -1  0  1  -1  1  0  -1  0  0       1  0 -1   1 -1  0   1  0  0
                       0 -1  0   1 -1  0   0 -1  1       0  1  0  -1  1  0   0  1 -1
                       1  0 -1   0  0 -1   0  1 -1      -1  0  1   0  0  1   0 -1  1
                       0  1  0   0  0  1   1  0  0       0 -1  0   0  0 -1  -1  0  0
                       1  0 -1   0  1 -1   0  0 -1      -1  0  1   0 -1  1   0  0  1
                       0 -1  0   0 -1  1   1 -1  0       0  1  0   0  1 -1  -1  1  0
                      -1  0  1  -1  0  0  -1  1  0       1  0 -1   1  0  0   1 -1  0
                       0  1  0   1  0  0   0  0  1       0 -1  0  -1  0  0   0  0 -1
                       0  0 -1   0  1 -1   1  0 -1       0  0  1   0 -1  1  -1  0  1
                       1 -1  0   0 -1  1   0 -1  0      -1  1  0   0  1 -1   0  1  0
                       0  0  1   1  0  0   0  1  0       0  0 -1  -1  0  0   0 -1  0
                      -1  1  0  -1  0  0  -1  0  1       1 -1  0   1  0  0   1  0 -1
                       0  0  1   0  1  0   1  0  0       0  0 -1   0 -1  0  -1  0  0
                       1 -1  0   0 -1  0   0 -1  1      -1  1  0   0  1  0   0  1 -1
                       0  0 -1   1  0 -1   0  1 -1       0  0  1  -1  0  1   0 -1  1
                      -1  1  0  -1  0  1  -1  0  0       1 -1  0   1  0 -1   1  0  0
           toldfe      1.00000000E-06 Hartree
           tsmear      5.00000000E-02 Hartree
            typat      1
              wtk1       0.75000    0.25000
              wtk2       0.09375    0.09375    0.09375    0.18750    0.09375    0.09375
                         0.09375    0.18750    0.03125    0.03125
              wtk3       0.02778    0.02778    0.02778    0.05556    0.02778    0.02778
                         0.05556    0.02778    0.05556    0.05556    0.02778    0.02778
                         0.02778    0.05556    0.02778    0.05556    0.05556    0.05556
                         0.02778    0.02778    0.02778    0.02778    0.02778    0.05556
                         0.05556    0.00926    0.00926    0.00926
              wtk4       0.01172    0.01172    0.01172    0.02344    0.01172    0.01172
                         0.02344    0.01172    0.02344    0.02344    0.01172    0.01172
                         0.02344    0.01172    0.02344    0.02344    0.01172    0.02344
                         0.02344    0.02344    0.01172    0.01172    0.01172    0.02344
                         0.01172    0.02344    0.02344    0.02344    0.01172    0.02344
                         0.02344    0.02344    0.02344    0.01172    0.01172    0.01172
                         0.01172    0.01172    0.02344    0.02344    0.01172    0.02344
                         0.02344    0.02344    0.02344    0.02344    0.01172    0.01172
                         0.01172    0.01172
                       outvars : Printing only first  50 k-points.
            znucl       13.00000

================================================================================


- Timing analysis has been suppressed with timopt=0



================================================================================

 Suggested references for the acknowledgment of ABINIT usage.

 The users of ABINIT have little formal obligations with respect to the ABINIT group
 (those specified in the GNU General Public License, http://www.gnu.org/copyleft/gpl.txt).
 However, it is common practice in the scientific literature,
 to acknowledge the efforts of people that have made the research possible.
 In this spirit, please find below suggested citations of work written by ABINIT developers,
 corresponding to implementations inside of ABINIT that you have used in the present run.
 Note also that it will be of great value to readers of publications presenting these results,
 to read papers enabling them to understand the theoretical formalism and details
 of the ABINIT implementation.
 For information on why they are suggested, see also http://www.abinit.org/about/?text=acknowledgments.

 [1] Ab initio pseudopotentials for electronic structure calculations of poly-atomic systems, 
 using density-functional theory.
 M. Fuchs, M. Scheffler, Comput. Phys. Commun. 119, 67 (1999).
 Comment : Some pseudopotential generated using the FHI code were used.

 [2] ABINIT : First-principles approach of materials and nanosystem properties.
 X. Gonze, B. Amadon, P.-M. Anglade, J.-M. Beuken, F. Bottin, P. Boulanger, F. Bruneval,
 D. Caliste, R. Caracas, M. Cote, T. Deutsch, L. Genovese, Ph. Ghosez, M. Giantomassi
 S. Goedecker, D.R. Hamann, P. Hermet, F. Jollet, G. Jomard, S. Leroux, M. Mancini, S. Mazevet,
 M.J.T. Oliveira, G. Onida, Y. Pouillon, T. Rangel, G.-M. Rignanese, D. Sangalli, R. Shaltaf,
 M. Torrent, M.J. Verstraete, G. Zerah, J.W. Zwanziger
 Computer Phys. Comm. 180, 2582-2615 (2009).
 Comment : the third generic paper describing the ABINIT project.
 Note that a version of this paper, that is not formatted for Computer Phys. Comm. 
 is available at http://www.abinit.org/about/ABINIT_CPC_v10.pdf .
 The licence allows the authors to put it on the Web.

 [3] A brief introduction to the ABINIT software package.
 X. Gonze, G.-M. Rignanese, M. Verstraete, J.-M. Beuken, Y. Pouillon, R. Caracas, F. Jollet,
 M. Torrent, G. Zerah, M. Mikami, Ph. Ghosez, M. Veithen, J.-Y. Raty, V. Olevano, F. Bruneval,
 L. Reining, R. Godby, G. Onida, D.R. Hamann, and D.C. Allan.
 Z. Kristallogr. 220, 558-562 (2005).
 Comment : the second generic paper describing the ABINIT project. Note that this paper
 should be cited especially if you are using the GW part of ABINIT, as several authors
 of this part are not in the list of authors of the first or third paper.
 The .pdf of the latter paper is available at http://www.abinit.org/about/zfk_0505-06_558-562.pdf.
 Note that it should not redistributed (Copyright by Oldenburg Wissenshaftverlag,
 the licence allows the authors to put it on the Web).


 And optionally :

 [4] First-principles computation of material properties : the ABINIT software project. 
 X. Gonze, J.-M. Beuken, R. Caracas, F. Detraux, M. Fuchs, G.-M. Rignanese, L. Sindic,
 M. Verstraete, G. Zerah, F. Jollet, M. Torrent, A. Roy, M. Mikami, Ph. Ghosez, J.-Y. Raty, D.C. Allan.
 Computational Materials Science 25, 478-492 (2002). http://dx.doi.org/10.1016/S0927-0256(02)00325-7
 Comment : the original paper describing the ABINIT project.

 [5] Fast radix 2, 3, 4 and 5 kernels for Fast Fourier Transformations
 on computers with overlapping multiply-add instructions.
 S. Goedecker, SIAM J. on Scientific Computing 18, 1605 (1997).
-
- Proc.   0 individual time (sec): cpu=          5.2  wall=          5.2

================================================================================

 Calculation completed.
.Delivered    7 WARNINGs and  20 COMMENTs to log file.
+Overall time at end (sec) : cpu=          5.2  wall=          5.2
