
.Version 7.10.2 of ABINIT 
.(MPI version, prepared for a x86_64_linux_gnu4.7 computer) 

.Copyright (C) 1998-2014 ABINIT group . 
 ABINIT comes with ABSOLUTELY NO WARRANTY.
 It is free software, and you are welcome to redistribute it
 under certain conditions (GNU General Public License,
 see ~abinit/COPYING or http://www.gnu.org/copyleft/gpl.txt).

 ABINIT is a project of the Universite Catholique de Louvain,
 Corning Inc. and other collaborators, see ~abinit/doc/developers/contributors.txt .
 Please read ~abinit/doc/users/acknowledgments.html for suggested
 acknowledgments of the ABINIT effort.
 For more information, see http://www.abinit.org .

.Starting date : Tue 11 Nov 2014.
- ( at 11h46 )
  
- input  file    -> tbase4_1.in
- output file    -> tbase4_1.out
- root for input  files -> tbase4_1i
- root for output files -> tbase4_1o


 Symmetries : space group Fm -3 m (#225); Bravais cF (face-center cubic)
================================================================================
 Values of the parameters that define the memory need of the present run
   intxc =         0  ionmov =         3    iscf =         7 xclevel =         1
  lmnmax =         3   lnmax =         3   mband =         3  mffmem =         1
P  mgfft =        15   mkmem =         2 mpssoang=         3     mpw =        90
  mqgrid =      3001   natom =         1    nfft =      3375    nkpt =         2
  nloalg =         4  nspden =         1 nspinor =         1  nsppol =         1
    nsym =        48  n1xccc =         0  ntypat =         1  occopt =         4
================================================================================
P This job should need less than                       2.142 Mbytes of memory.
  Rough estimation (10% accuracy) of disk space for files :
_ WF disk file :      0.010 Mbytes ; DEN or POT disk file :      0.028 Mbytes.
================================================================================

--------------------------------------------------------------------------------
------------- Echo of variables that govern the present computation ------------
--------------------------------------------------------------------------------
-
- outvars: echo of selected default values                                      
-   accesswff0 =  0 , fftalg0 =112 , wfoptalg0 =  0
-
- outvars: echo of global parameters not present in the input file              
-  max_nthreads =    0
-
 -outvars: echo values of preprocessed input variables --------
            acell      7.6000000000E+00  7.6000000000E+00  7.6000000000E+00 Bohr
              amu      2.69815390E+01
          dilatmx      1.05000000E+00
             ecut      6.00000000E+00 Hartree
           ecutsm      5.00000000E-01 Hartree
-          fftalg         112
           ionmov           3
              kpt     -2.50000000E-01  5.00000000E-01  0.00000000E+00
                      -2.50000000E-01  0.00000000E+00  0.00000000E+00
         kptrlatt        2   -2    2     -2    2    2     -2   -2    2
          kptrlen      1.52000000E+01
P           mkmem           2
            natom           1
            nband           3
            ngfft          15      15      15
             nkpt           2
            nstep          10
             nsym          48
            ntime          10
           ntypat           1
              occ      2.000000  1.000000  0.000000
                       2.000000  1.000000  0.000000
           occopt           4
          optcell           1
            rprim      0.0000000000E+00  5.0000000000E-01  5.0000000000E-01
                       5.0000000000E-01  0.0000000000E+00  5.0000000000E-01
                       5.0000000000E-01  5.0000000000E-01  0.0000000000E+00
           shiftk      5.00000000E-01  5.00000000E-01  5.00000000E-01
          spgroup         225
           symrel      1  0  0   0  1  0   0  0  1      -1  0  0   0 -1  0   0  0 -1
                       0 -1  1   0 -1  0   1 -1  0       0  1 -1   0  1  0  -1  1  0
                      -1  0  0  -1  0  1  -1  1  0       1  0  0   1  0 -1   1 -1  0
                       0  1 -1   1  0 -1   0  0 -1       0 -1  1  -1  0  1   0  0  1
                      -1  0  0  -1  1  0  -1  0  1       1  0  0   1 -1  0   1  0 -1
                       0 -1  1   1 -1  0   0 -1  0       0  1 -1  -1  1  0   0  1  0
                       1  0  0   0  0  1   0  1  0      -1  0  0   0  0 -1   0 -1  0
                       0  1 -1   0  0 -1   1  0 -1       0 -1  1   0  0  1  -1  0  1
                      -1  0  1  -1  1  0  -1  0  0       1  0 -1   1 -1  0   1  0  0
                       0 -1  0   1 -1  0   0 -1  1       0  1  0  -1  1  0   0  1 -1
                       1  0 -1   0  0 -1   0  1 -1      -1  0  1   0  0  1   0 -1  1
                       0  1  0   0  0  1   1  0  0       0 -1  0   0  0 -1  -1  0  0
                       1  0 -1   0  1 -1   0  0 -1      -1  0  1   0 -1  1   0  0  1
                       0 -1  0   0 -1  1   1 -1  0       0  1  0   0  1 -1  -1  1  0
                      -1  0  1  -1  0  0  -1  1  0       1  0 -1   1  0  0   1 -1  0
                       0  1  0   1  0  0   0  0  1       0 -1  0  -1  0  0   0  0 -1
                       0  0 -1   0  1 -1   1  0 -1       0  0  1   0 -1  1  -1  0  1
                       1 -1  0   0 -1  1   0 -1  0      -1  1  0   0  1 -1   0  1  0
                       0  0  1   1  0  0   0  1  0       0  0 -1  -1  0  0   0 -1  0
                      -1  1  0  -1  0  0  -1  0  1       1 -1  0   1  0  0   1  0 -1
                       0  0  1   0  1  0   1  0  0       0  0 -1   0 -1  0  -1  0  0
                       1 -1  0   0 -1  0   0 -1  1      -1  1  0   0  1  0   0  1 -1
                       0  0 -1   1  0 -1   0  1 -1       0  0  1  -1  0  1   0 -1  1
                      -1  1  0  -1  0  1  -1  0  0       1 -1  0   1  0 -1   1  0  0
           toldfe      1.00000000E-06 Hartree
           tsmear      5.00000000E-02 Hartree
            typat      1
              wtk        0.75000    0.25000
            znucl       13.00000

================================================================================

 chkinp: Checking input parameters for consistency.

================================================================================
== DATASET  1 ==================================================================
-   nproc =    1

 Exchange-correlation functional for the present dataset will be:
  LDA: new Teter (4/93) with spin-polarized option - ixc=1
 Citation for XC functional:
  S. Goedecker, M. Teter, J. Huetter, PRB 54, 1703 (1996)

 Real(R)+Recip(G) space primitive vectors, cartesian coordinates (Bohr,Bohr^-1):
 R(1)=  0.0000000  3.8000000  3.8000000  G(1)= -0.1315789  0.1315789  0.1315789
 R(2)=  3.8000000  0.0000000  3.8000000  G(2)=  0.1315789 -0.1315789  0.1315789
 R(3)=  3.8000000  3.8000000  0.0000000  G(3)=  0.1315789  0.1315789 -0.1315789
 Unit cell volume ucvol=  1.0974400E+02 bohr^3
 Angles (23,13,12)=  6.00000000E+01  6.00000000E+01  6.00000000E+01 degrees

 getcut: wavevector=  0.0000  0.0000  0.0000  ngfft=  15  15  15
         ecut(hartree)=      6.615   => boxcut(ratio)=   2.26154

 getcut : COMMENT -
  Note that boxcut > 2.2 ; recall that boxcut=Gcut(box)/Gcut(sphere) = 2
  is sufficient for exact treatment of convolution.
  Such a large boxcut is a waste : you could raise ecut
  e.g. ecut=    8.458196 Hartrees makes boxcut=2


--- Pseudopotential description ------------------------------------------------
- pspini: atom type   1  psp file is /data/ABINIT/testf_gcc47/trunk_7.10.2-private/tests/Psps_for_tests/13al.981214.fhi
- pspatm: opening atomic psp file    /data/ABINIT/testf_gcc47/trunk_7.10.2-private/tests/Psps_for_tests/13al.981214.fhi
- Aluminum, fhi98PP : Hamann-type, LDA CA PerdewWang, l=2 local
- 13.00000   3.00000    981214                znucl, zion, pspdat
    6    7    2    2       493   0.00000      pspcod,pspxc,lmax,lloc,mmax,r2well
  No XC core correction.
  1.024700          amesh (Hamman grid)
 pspatm: epsatm=    1.36305739
         --- l  ekb(1:nproj) -->
             0    1.768744
             1    0.900554
 pspatm: atomic psp has been read  and splines computed

   4.08917216E+00                                ecore*ucvol(ha*bohr**3)
--------------------------------------------------------------------------------

P newkpt: treating      3 bands with npw=      90 for ikpt=   1 by node    0
P newkpt: treating      3 bands with npw=      89 for ikpt=   2 by node    0

_setup2: Arith. and geom. avg. npw (full set) are      89.750      89.749

================================================================================

=== [ionmov= 3] Broyden-Fletcher-Goldfard-Shanno method (forces,Tot energy) 
================================================================================

--- Iteration: ( 1/10) Internal Cycle: (1/1)
--------------------------------------------------------------------------------

---SELF-CONSISTENT-FIELD CONVERGENCE--------------------------------------------

     iter   Etot(hartree)      deltaE(h)  residm     vres2
 ETOT  1  -2.0976647769158    -2.098E+00 1.024E-03 3.819E-01
 ETOT  2  -2.0979329058481    -2.681E-04 3.236E-10 1.004E-02
 ETOT  3  -2.0979387166807    -5.811E-06 1.050E-07 5.228E-05
 ETOT  4  -2.0979387453313    -2.865E-08 7.314E-10 1.924E-07
 ETOT  5  -2.0979387454056    -7.432E-11 1.449E-12 7.991E-10

 At SCF step    5, etot is converged : 
  for the second time, diff in etot=  7.432E-11 < toldfe=  1.000E-06

 Cartesian components of stress tensor (hartree/bohr^3)
  sigma(1 1)=  4.64978647E-05  sigma(3 2)=  0.00000000E+00
  sigma(2 2)=  4.64978647E-05  sigma(3 1)=  0.00000000E+00
  sigma(3 3)=  4.64978647E-05  sigma(2 1)=  0.00000000E+00


---OUTPUT-----------------------------------------------------------------------

 Cartesian coordinates (xcart) [bohr]
  0.00000000000000E+00  0.00000000000000E+00  0.00000000000000E+00
 Reduced coordinates (xred)
  0.00000000000000E+00  0.00000000000000E+00  0.00000000000000E+00
 Cartesian forces (fcart) [Ha/bohr]; max,rms= 0.00000E+00 0.00000E+00 (free atoms)
 -0.00000000000000E+00 -0.00000000000000E+00 -0.00000000000000E+00
 Reduced forces (fred)
  0.00000000000000E+00  0.00000000000000E+00  0.00000000000000E+00
 Scale of Primitive Cell (acell) [bohr]
  7.60000000000000E+00  7.60000000000000E+00  7.60000000000000E+00
 Real space primitive translations (rprimd) [bohr]
  0.00000000000000E+00  3.80000000000000E+00  3.80000000000000E+00
  3.80000000000000E+00  0.00000000000000E+00  3.80000000000000E+00
  3.80000000000000E+00  3.80000000000000E+00  0.00000000000000E+00
 Unitary Cell Volume (ucvol) [Bohr^3]=  1.09744000000000E+02
 Angles (23,13,12)= [degrees]
  6.00000000000000E+01  6.00000000000000E+01  6.00000000000000E+01
 Lengths [Bohr]
  5.37401153701776E+00  5.37401153701776E+00  5.37401153701776E+00
 Stress tensor in cartesian coordinates (strten) [Ha/bohr^3]
  4.64978646711324E-05  0.00000000000000E+00  0.00000000000000E+00
  0.00000000000000E+00  4.64978646711325E-05  0.00000000000000E+00
  0.00000000000000E+00  0.00000000000000E+00  4.64978646711322E-05
 Total energy (etotal) [Ha]= -2.09793874540558E+00

--- Iteration: ( 2/10) Internal Cycle: (1/1)
--------------------------------------------------------------------------------

---SELF-CONSISTENT-FIELD CONVERGENCE--------------------------------------------

     iter   Etot(hartree)      deltaE(h)  residm     vres2
 ETOT  1  -2.0979574504260    -2.098E+00 2.153E-12 1.594E-05
 ETOT  2  -2.0979574577359    -7.310E-09 1.944E-15 9.906E-07
 ETOT  3  -2.0979574582395    -5.036E-10 7.562E-12 5.972E-10

 At SCF step    3, etot is converged : 
  for the second time, diff in etot=  5.036E-10 < toldfe=  1.000E-06

 Cartesian components of stress tensor (hartree/bohr^3)
  sigma(1 1)=  3.50337004E-05  sigma(3 2)=  0.00000000E+00
  sigma(2 2)=  3.50337004E-05  sigma(3 1)=  0.00000000E+00
  sigma(3 3)=  3.50337004E-05  sigma(2 1)=  0.00000000E+00


---OUTPUT-----------------------------------------------------------------------

 Cartesian coordinates (xcart) [bohr]
  0.00000000000000E+00  0.00000000000000E+00  0.00000000000000E+00
 Reduced coordinates (xred)
  0.00000000000000E+00  0.00000000000000E+00  0.00000000000000E+00
 Cartesian forces (fcart) [Ha/bohr]; max,rms= 0.00000E+00 0.00000E+00 (free atoms)
 -0.00000000000000E+00 -0.00000000000000E+00 -0.00000000000000E+00
 Reduced forces (fred)
  0.00000000000000E+00  0.00000000000000E+00  0.00000000000000E+00
 Scale of Primitive Cell (acell) [bohr]
  7.58939848685498E+00  7.58939848685498E+00  7.58939848685498E+00
 Real space primitive translations (rprimd) [bohr]
  0.00000000000000E+00  3.79469924342749E+00  3.79469924342749E+00
  3.79469924342749E+00  0.00000000000000E+00  3.79469924342749E+00
  3.79469924342749E+00  3.79469924342749E+00  0.00000000000000E+00
 Unitary Cell Volume (ucvol) [Bohr^3]=  1.09285382787538E+02
 Angles (23,13,12)= [degrees]
  6.00000000000000E+01  6.00000000000000E+01  6.00000000000000E+01
 Lengths [Bohr]
  5.36651513518208E+00  5.36651513518208E+00  5.36651513518208E+00
 Stress tensor in cartesian coordinates (strten) [Ha/bohr^3]
  3.50337003583756E-05  0.00000000000000E+00  0.00000000000000E+00
  0.00000000000000E+00  3.50337003583755E-05  0.00000000000000E+00
  0.00000000000000E+00  0.00000000000000E+00  3.50337003583756E-05
 Total energy (etotal) [Ha]= -2.09795745823948E+00

 Difference of energy with previous step (new-old):
           Absolute (Ha)=-1.87128E-05
           Relative     =-8.91959E-06

--- Iteration: ( 3/10) Internal Cycle: (1/1)
--------------------------------------------------------------------------------

---SELF-CONSISTENT-FIELD CONVERGENCE--------------------------------------------

     iter   Etot(hartree)      deltaE(h)  residm     vres2
 ETOT  1  -2.0979806315738    -2.098E+00 1.852E-11 1.189E-04
 ETOT  2  -2.0979806851026    -5.353E-08 1.483E-14 7.351E-06
 ETOT  3  -2.0979806887725    -3.670E-09 5.397E-11 4.461E-09

 At SCF step    3, etot is converged : 
  for the second time, diff in etot=  3.670E-09 < toldfe=  1.000E-06

 Cartesian components of stress tensor (hartree/bohr^3)
  sigma(1 1)=  2.01634831E-06  sigma(3 2)=  0.00000000E+00
  sigma(2 2)=  2.01634831E-06  sigma(3 1)=  0.00000000E+00
  sigma(3 3)=  2.01634831E-06  sigma(2 1)=  0.00000000E+00


---OUTPUT-----------------------------------------------------------------------

 Cartesian coordinates (xcart) [bohr]
  0.00000000000000E+00  0.00000000000000E+00  0.00000000000000E+00
 Reduced coordinates (xred)
  0.00000000000000E+00  0.00000000000000E+00  0.00000000000000E+00
 Cartesian forces (fcart) [Ha/bohr]; max,rms= 0.00000E+00 0.00000E+00 (free atoms)
 -0.00000000000000E+00 -0.00000000000000E+00 -0.00000000000000E+00
 Reduced forces (fred)
  0.00000000000000E+00  0.00000000000000E+00  0.00000000000000E+00
 Scale of Primitive Cell (acell) [bohr]
  7.56057956088203E+00  7.56057956088203E+00  7.56057956088203E+00
 Real space primitive translations (rprimd) [bohr]
  0.00000000000000E+00  3.78028978044101E+00  3.78028978044101E+00
  3.78028978044101E+00  0.00000000000000E+00  3.78028978044101E+00
  3.78028978044101E+00  3.78028978044101E+00  0.00000000000000E+00
 Unitary Cell Volume (ucvol) [Bohr^3]=  1.08045148897670E+02
 Angles (23,13,12)= [degrees]
  6.00000000000000E+01  6.00000000000000E+01  6.00000000000000E+01
 Lengths [Bohr]
  5.34613707720009E+00  5.34613707720009E+00  5.34613707720009E+00
 Stress tensor in cartesian coordinates (strten) [Ha/bohr^3]
  2.01634831004132E-06  0.00000000000000E+00  0.00000000000000E+00
  0.00000000000000E+00  2.01634831004148E-06  0.00000000000000E+00
  0.00000000000000E+00  0.00000000000000E+00  2.01634831004154E-06
 Total energy (etotal) [Ha]= -2.09798068877249E+00

 Difference of energy with previous step (new-old):
           Absolute (Ha)=-2.32305E-05
           Relative     =-1.10729E-05

--- Iteration: ( 4/10) Internal Cycle: (1/1)
--------------------------------------------------------------------------------

---SELF-CONSISTENT-FIELD CONVERGENCE--------------------------------------------

     iter   Etot(hartree)      deltaE(h)  residm     vres2
 ETOT  1  -2.0979807616501    -2.098E+00 6.101E-14 4.234E-07
 ETOT  2  -2.0979807618409    -1.908E-10 5.275E-17 2.617E-08
 ETOT  3  -2.0979807618540    -1.310E-11 1.922E-13 1.564E-11

 At SCF step    3, etot is converged : 
  for the second time, diff in etot=  1.310E-11 < toldfe=  1.000E-06

 Cartesian components of stress tensor (hartree/bohr^3)
  sigma(1 1)=  1.76698086E-08  sigma(3 2)=  0.00000000E+00
  sigma(2 2)=  1.76698086E-08  sigma(3 1)=  0.00000000E+00
  sigma(3 3)=  1.76698086E-08  sigma(2 1)=  0.00000000E+00


---OUTPUT-----------------------------------------------------------------------

 Cartesian coordinates (xcart) [bohr]
  0.00000000000000E+00  0.00000000000000E+00  0.00000000000000E+00
 Reduced coordinates (xred)
  0.00000000000000E+00  0.00000000000000E+00  0.00000000000000E+00
 Cartesian forces (fcart) [Ha/bohr]; max,rms= 0.00000E+00 0.00000E+00 (free atoms)
 -0.00000000000000E+00 -0.00000000000000E+00 -0.00000000000000E+00
 Reduced forces (fred)
  0.00000000000000E+00  0.00000000000000E+00  0.00000000000000E+00
 Scale of Primitive Cell (acell) [bohr]
  7.55889680863762E+00  7.55889680863762E+00  7.55889680863762E+00
 Real space primitive translations (rprimd) [bohr]
  0.00000000000000E+00  3.77944840431881E+00  3.77944840431881E+00
  3.77944840431881E+00  0.00000000000000E+00  3.77944840431881E+00
  3.77944840431881E+00  3.77944840431881E+00  0.00000000000000E+00
 Unitary Cell Volume (ucvol) [Bohr^3]=  1.07973022381845E+02
 Angles (23,13,12)= [degrees]
  6.00000000000000E+01  6.00000000000000E+01  6.00000000000000E+01
 Lengths [Bohr]
  5.34494719167702E+00  5.34494719167702E+00  5.34494719167702E+00
 Stress tensor in cartesian coordinates (strten) [Ha/bohr^3]
  1.76698085985021E-08  0.00000000000000E+00  0.00000000000000E+00
  0.00000000000000E+00  1.76698085983936E-08  0.00000000000000E+00
  0.00000000000000E+00  0.00000000000000E+00  1.76698085981768E-08
 Total energy (etotal) [Ha]= -2.09798076185395E+00

 Difference of energy with previous step (new-old):
           Absolute (Ha)=-7.30815E-08
           Relative     =-3.48342E-08

 At Broyd/MD step   4, gradients are converged : 
  max grad (force/stress) = 1.7670E-06 < tolmxf= 5.0000E-05 ha/bohr (free atoms)

================================================================================

 ----iterations are completed or convergence reached----

 Mean square residual over all n,k,spin=   1.1393E-13; max=  1.9217E-13
  -0.2500  0.5000  0.0000    1  1.92171E-13 kpt; spin; max resid(k); each band:
  1.59E-13 1.51E-13 1.92E-13
  -0.2500  0.0000  0.0000    1  8.13522E-14 kpt; spin; max resid(k); each band:
  5.73E-14 8.14E-14 4.28E-14
 reduced coordinates (array xred) for    1 atoms
       0.000000000000      0.000000000000      0.000000000000
 rms dE/dt=  0.0000E+00; max dE/dt=  0.0000E+00; dE/dt below (all hartree)
    1       0.000000000000      0.000000000000      0.000000000000

 cartesian coordinates (angstrom) at end:
    1      0.00000000000000     0.00000000000000     0.00000000000000

 cartesian forces (hartree/bohr) at end:
    1     -0.00000000000000    -0.00000000000000    -0.00000000000000
 frms,max,avg= 0.0000000E+00 0.0000000E+00   0.000E+00  0.000E+00  0.000E+00 h/b

 cartesian forces (eV/Angstrom) at end:
    1     -0.00000000000000    -0.00000000000000    -0.00000000000000
 frms,max,avg= 0.0000000E+00 0.0000000E+00   0.000E+00  0.000E+00  0.000E+00 e/A
 length scales=  7.558896808638  7.558896808638  7.558896808638 bohr
              =  3.999995913215  3.999995913215  3.999995913215 angstroms
 prteigrs : about to open file tbase4_1o_EIG
 Fermi (or HOMO) energy (hartree) =   0.26847   Average Vxc (hartree)=  -0.34746
 Eigenvalues (hartree) for nkpt=   2  k points:
 kpt#   1, nband=  3, wtk=  0.75000, kpt= -0.2500  0.5000  0.0000 (reduced coord)
   0.09425   0.25438   0.41909
      occupation numbers for kpt#   1
   2.00003   1.33307   0.00014
 kpt#   2, nband=  3, wtk=  0.25000, kpt= -0.2500  0.0000  0.0000 (reduced coord)
  -0.07038   0.41093   0.68874
      occupation numbers for kpt#   2
   2.00000   0.00030   0.00000
 Total charge density [el/Bohr^3]
,     Maximum=    3.3235E-02  at reduced coord.    0.8000    0.8667    0.8667
,Next maximum=    3.3235E-02  at reduced coord.    0.4667    0.8667    0.8667
,     Minimum=    2.7392E-03  at reduced coord.    0.0000    0.0000    0.0000
,Next minimum=    4.8415E-03  at reduced coord.    0.0667    0.0000    0.0000
,  Integrated=    3.0000E+00

--------------------------------------------------------------------------------
 Components of total free energy (in Hartree) :

    Kinetic energy  =  8.70954971782036E-01
    Hartree energy  =  3.84986358589993E-03
    XC energy       = -8.08434339502008E-01
    Ewald energy    = -2.72948286712101E+00
    PspCore energy  =  3.78721653636811E-02
    Loc. psp. energy=  8.26684645834975E-02
    NL   psp  energy=  4.52588269933732E-01
    >>>>> Internal E= -2.08998347137417E+00

    -kT*entropy     = -7.99729047978331E-03
    >>>>>>>>> Etotal= -2.09798076185395E+00

 Other information on the energy :
    Total energy(eV)= -5.70889598417032E+01 ; Band energy (Ha)=   3.6059822202E-01
--------------------------------------------------------------------------------

 Cartesian components of stress tensor (hartree/bohr^3)
  sigma(1 1)=  1.76698086E-08  sigma(3 2)=  0.00000000E+00
  sigma(2 2)=  1.76698086E-08  sigma(3 1)=  0.00000000E+00
  sigma(3 3)=  1.76698086E-08  sigma(2 1)=  0.00000000E+00

-Cartesian components of stress tensor (GPa)         [Pressure= -5.1986E-04 GPa]
- sigma(1 1)=  5.19863630E-04  sigma(3 2)=  0.00000000E+00
- sigma(2 2)=  5.19863630E-04  sigma(3 1)=  0.00000000E+00
- sigma(3 3)=  5.19863630E-04  sigma(2 1)=  0.00000000E+00

== END DATASET(S) ==============================================================
================================================================================
  
 -outvars: echo values of variables after computation  --------
            acell      7.5588968086E+00  7.5588968086E+00  7.5588968086E+00 Bohr
              amu      2.69815390E+01
          dilatmx      1.05000000E+00
             ecut      6.00000000E+00 Hartree
           ecutsm      5.00000000E-01 Hartree
           etotal     -2.0979807619E+00
            fcart     -0.0000000000E+00 -0.0000000000E+00 -0.0000000000E+00
-          fftalg         112
           ionmov           3
              kpt     -2.50000000E-01  5.00000000E-01  0.00000000E+00
                      -2.50000000E-01  0.00000000E+00  0.00000000E+00
         kptrlatt        2   -2    2     -2    2    2     -2   -2    2
          kptrlen      1.52000000E+01
P           mkmem           2
            natom           1
            nband           3
            ngfft          15      15      15
             nkpt           2
            nstep          10
             nsym          48
            ntime          10
           ntypat           1
              occ      2.000029  1.333066  0.000138
                       2.000000  0.000299  0.000000
           occopt           4
          optcell           1
            rprim      0.0000000000E+00  5.0000000000E-01  5.0000000000E-01
                       5.0000000000E-01  0.0000000000E+00  5.0000000000E-01
                       5.0000000000E-01  5.0000000000E-01  0.0000000000E+00
           shiftk      5.00000000E-01  5.00000000E-01  5.00000000E-01
          spgroup         225
           strten      1.7669808599E-08  1.7669808598E-08  1.7669808598E-08
                       0.0000000000E+00  0.0000000000E+00  0.0000000000E+00
           symrel      1  0  0   0  1  0   0  0  1      -1  0  0   0 -1  0   0  0 -1
                       0 -1  1   0 -1  0   1 -1  0       0  1 -1   0  1  0  -1  1  0
                      -1  0  0  -1  0  1  -1  1  0       1  0  0   1  0 -1   1 -1  0
                       0  1 -1   1  0 -1   0  0 -1       0 -1  1  -1  0  1   0  0  1
                      -1  0  0  -1  1  0  -1  0  1       1  0  0   1 -1  0   1  0 -1
                       0 -1  1   1 -1  0   0 -1  0       0  1 -1  -1  1  0   0  1  0
                       1  0  0   0  0  1   0  1  0      -1  0  0   0  0 -1   0 -1  0
                       0  1 -1   0  0 -1   1  0 -1       0 -1  1   0  0  1  -1  0  1
                      -1  0  1  -1  1  0  -1  0  0       1  0 -1   1 -1  0   1  0  0
                       0 -1  0   1 -1  0   0 -1  1       0  1  0  -1  1  0   0  1 -1
                       1  0 -1   0  0 -1   0  1 -1      -1  0  1   0  0  1   0 -1  1
                       0  1  0   0  0  1   1  0  0       0 -1  0   0  0 -1  -1  0  0
                       1  0 -1   0  1 -1   0  0 -1      -1  0  1   0 -1  1   0  0  1
                       0 -1  0   0 -1  1   1 -1  0       0  1  0   0  1 -1  -1  1  0
                      -1  0  1  -1  0  0  -1  1  0       1  0 -1   1  0  0   1 -1  0
                       0  1  0   1  0  0   0  0  1       0 -1  0  -1  0  0   0  0 -1
                       0  0 -1   0  1 -1   1  0 -1       0  0  1   0 -1  1  -1  0  1
                       1 -1  0   0 -1  1   0 -1  0      -1  1  0   0  1 -1   0  1  0
                       0  0  1   1  0  0   0  1  0       0  0 -1  -1  0  0   0 -1  0
                      -1  1  0  -1  0  0  -1  0  1       1 -1  0   1  0  0   1  0 -1
                       0  0  1   0  1  0   1  0  0       0  0 -1   0 -1  0  -1  0  0
                       1 -1  0   0 -1  0   0 -1  1      -1  1  0   0  1  0   0  1 -1
                       0  0 -1   1  0 -1   0  1 -1       0  0  1  -1  0  1   0 -1  1
                      -1  1  0  -1  0  1  -1  0  0       1 -1  0   1  0 -1   1  0  0
           toldfe      1.00000000E-06 Hartree
           tsmear      5.00000000E-02 Hartree
            typat      1
              wtk        0.75000    0.25000
            znucl       13.00000

================================================================================


- Timing analysis has been suppressed with timopt=0



================================================================================

 Suggested references for the acknowledgment of ABINIT usage.

 The users of ABINIT have little formal obligations with respect to the ABINIT group
 (those specified in the GNU General Public License, http://www.gnu.org/copyleft/gpl.txt).
 However, it is common practice in the scientific literature,
 to acknowledge the efforts of people that have made the research possible.
 In this spirit, please find below suggested citations of work written by ABINIT developers,
 corresponding to implementations inside of ABINIT that you have used in the present run.
 Note also that it will be of great value to readers of publications presenting these results,
 to read papers enabling them to understand the theoretical formalism and details
 of the ABINIT implementation.
 For information on why they are suggested, see also http://www.abinit.org/about/?text=acknowledgments.

 [1] Ab initio pseudopotentials for electronic structure calculations of poly-atomic systems, 
 using density-functional theory.
 M. Fuchs, M. Scheffler, Comput. Phys. Commun. 119, 67 (1999).
 Comment : Some pseudopotential generated using the FHI code were used.

 [2] ABINIT : First-principles approach of materials and nanosystem properties.
 X. Gonze, B. Amadon, P.-M. Anglade, J.-M. Beuken, F. Bottin, P. Boulanger, F. Bruneval,
 D. Caliste, R. Caracas, M. Cote, T. Deutsch, L. Genovese, Ph. Ghosez, M. Giantomassi
 S. Goedecker, D.R. Hamann, P. Hermet, F. Jollet, G. Jomard, S. Leroux, M. Mancini, S. Mazevet,
 M.J.T. Oliveira, G. Onida, Y. Pouillon, T. Rangel, G.-M. Rignanese, D. Sangalli, R. Shaltaf,
 M. Torrent, M.J. Verstraete, G. Zerah, J.W. Zwanziger
 Computer Phys. Comm. 180, 2582-2615 (2009).
 Comment : the third generic paper describing the ABINIT project.
 Note that a version of this paper, that is not formatted for Computer Phys. Comm. 
 is available at http://www.abinit.org/about/ABINIT_CPC_v10.pdf .
 The licence allows the authors to put it on the Web.

 [3] A brief introduction to the ABINIT software package.
 X. Gonze, G.-M. Rignanese, M. Verstraete, J.-M. Beuken, Y. Pouillon, R. Caracas, F. Jollet,
 M. Torrent, G. Zerah, M. Mikami, Ph. Ghosez, M. Veithen, J.-Y. Raty, V. Olevano, F. Bruneval,
 L. Reining, R. Godby, G. Onida, D.R. Hamann, and D.C. Allan.
 Z. Kristallogr. 220, 558-562 (2005).
 Comment : the second generic paper describing the ABINIT project. Note that this paper
 should be cited especially if you are using the GW part of ABINIT, as several authors
 of this part are not in the list of authors of the first or third paper.
 The .pdf of the latter paper is available at http://www.abinit.org/about/zfk_0505-06_558-562.pdf.
 Note that it should not redistributed (Copyright by Oldenburg Wissenshaftverlag,
 the licence allows the authors to put it on the Web).


 And optionally :

 [4] First-principles computation of material properties : the ABINIT software project. 
 X. Gonze, J.-M. Beuken, R. Caracas, F. Detraux, M. Fuchs, G.-M. Rignanese, L. Sindic,
 M. Verstraete, G. Zerah, F. Jollet, M. Torrent, A. Roy, M. Mikami, Ph. Ghosez, J.-Y. Raty, D.C. Allan.
 Computational Materials Science 25, 478-492 (2002). http://dx.doi.org/10.1016/S0927-0256(02)00325-7
 Comment : the original paper describing the ABINIT project.

 [5] Fast radix 2, 3, 4 and 5 kernels for Fast Fourier Transformations
 on computers with overlapping multiply-add instructions.
 S. Goedecker, SIAM J. on Scientific Computing 18, 1605 (1997).
-
- Proc.   0 individual time (sec): cpu=          0.6  wall=          0.6

================================================================================

 Calculation completed.
.Delivered    1 WARNINGs and   5 COMMENTs to log file.
+Overall time at end (sec) : cpu=          0.6  wall=          0.6
