
.Version 7.10.4 of ABINIT 
.(MPI version, prepared for a x86_64_linux_gnu4.7 computer) 

.Copyright (C) 1998-2014 ABINIT group . 
 ABINIT comes with ABSOLUTELY NO WARRANTY.
 It is free software, and you are welcome to redistribute it
 under certain conditions (GNU General Public License,
 see ~abinit/COPYING or http://www.gnu.org/copyleft/gpl.txt).

 ABINIT is a project of the Universite Catholique de Louvain,
 Corning Inc. and other collaborators, see ~abinit/doc/developers/contributors.txt .
 Please read ~abinit/doc/users/acknowledgments.html for suggested
 acknowledgments of the ABINIT effort.
 For more information, see http://www.abinit.org .

.Starting date : Wed 11 Mar 2015.
- ( at 10h21 )
  
- input  file    -> tbase4_7.in
- output file    -> tbase4_7.out
- root for input  files -> tbase4_7i
- root for output files -> tbase4_7o


 DATASET    1 : space group P4/m m m (#123); Bravais tP (primitive tetrag.)
================================================================================
 Values of the parameters that define the memory need for DATASET  1.
   intxc =         0  ionmov =         3    iscf =         7 xclevel =         1
  lmnmax =         3   lnmax =         3   mband =         7  mffmem =         1
P  mgfft =        45   mkmem =         6 mpssoang=         3     mpw =       378
  mqgrid =      3001   natom =         3    nfft =      6480    nkpt =         6
  nloalg =         4  nspden =         1 nspinor =         1  nsppol =         1
    nsym =        16  n1xccc =         0  ntypat =         1  occopt =         4
 For the susceptibility and dielectric matrices, or tddft :
   mgfft =        30  nbnd_in_blk=     4    nfft =      1920     npw =        85
================================================================================
P This job should need less than                       3.644 Mbytes of memory.
  Rough estimation (10% accuracy) of disk space for files :
_ WF disk file :      0.244 Mbytes ; DEN or POT disk file :      0.051 Mbytes.
================================================================================


 DATASET    2 : space group P4/n m m (#129); Bravais tP (primitive tetrag.)
================================================================================
 Values of the parameters that define the memory need for DATASET  2.
   intxc =         0  ionmov =         3    iscf =         7 xclevel =         1
  lmnmax =         3   lnmax =         3   mband =         8  mffmem =         1
P  mgfft =        50   mkmem =         6 mpssoang=         3     mpw =       452
  mqgrid =      3001   natom =         4    nfft =      7200    nkpt =         6
  nloalg =         4  nspden =         1 nspinor =         1  nsppol =         1
    nsym =        16  n1xccc =         0  ntypat =         1  occopt =         4
 For the susceptibility and dielectric matrices, or tddft :
   mgfft =        36  nbnd_in_blk=     4    nfft =      2304     npw =       103
================================================================================
P This job should need less than                       4.080 Mbytes of memory.
  Rough estimation (10% accuracy) of disk space for files :
_ WF disk file :      0.333 Mbytes ; DEN or POT disk file :      0.057 Mbytes.
================================================================================


 DATASET    3 : space group P4/m m m (#123); Bravais tP (primitive tetrag.)
================================================================================
 Values of the parameters that define the memory need for DATASET  3.
   intxc =         0  ionmov =         3    iscf =         7 xclevel =         1
  lmnmax =         3   lnmax =         3   mband =        11  mffmem =         1
P  mgfft =        60   mkmem =         6 mpssoang=         3     mpw =       532
  mqgrid =      3001   natom =         5    nfft =      8640    nkpt =         6
  nloalg =         4  nspden =         1 nspinor =         1  nsppol =         1
    nsym =        16  n1xccc =         0  ntypat =         1  occopt =         4
 For the susceptibility and dielectric matrices, or tddft :
   mgfft =        40  nbnd_in_blk=     6    nfft =      2560     npw =       121
================================================================================
P This job should need less than                       4.855 Mbytes of memory.
  Rough estimation (10% accuracy) of disk space for files :
_ WF disk file :      0.538 Mbytes ; DEN or POT disk file :      0.068 Mbytes.
================================================================================

--------------------------------------------------------------------------------
------------- Echo of variables that govern the present computation ------------
--------------------------------------------------------------------------------
-
- outvars: echo of selected default values                                      
-   accesswff0 =  0 , fftalg0 =112 , wfoptalg0 =  0
-
- outvars: echo of global parameters not present in the input file              
-  max_nthreads =    0
-
 -outvars: echo values of preprocessed input variables --------
            acell      7.5055909000E+00  7.5055909000E+00  7.5055909000E+00 Bohr
              amu      2.69815390E+01
      chksymbreak           0
             ecut      6.00000000E+00 Hartree
-          fftalg         112
           ionmov           3
           iprcel          45
           jdtset        1    2    3
              kpt      0.00000000E+00  1.25000000E-01  0.00000000E+00
                       0.00000000E+00  3.75000000E-01  0.00000000E+00
                       1.25000000E-01  2.50000000E-01  0.00000000E+00
                       1.25000000E-01  5.00000000E-01  0.00000000E+00
                       2.50000000E-01  3.75000000E-01  0.00000000E+00
                       3.75000000E-01  5.00000000E-01  0.00000000E+00
         kptrlatt        4   -4    0      4    4    0      0    0    1
          kptrlen      3.00223636E+01
P           mkmem           6
            natom1          3
            natom2          4
            natom3          5
            nband1          7
            nband2          8
            nband3         11
           ndtset           3
            ngfft1         12      12      45
            ngfft2         12      12      50
            ngfft3         12      12      60
             nkpt           6
            nstep          10
             nsym          16
            ntime          10
           ntypat           1
              occ1     2.000000  2.000000  2.000000  2.000000  1.000000  0.000000
                       0.000000
                       2.000000  2.000000  2.000000  2.000000  1.000000  0.000000
                       0.000000
                       2.000000  2.000000  2.000000  2.000000  1.000000  0.000000
                       0.000000
                       2.000000  2.000000  2.000000  2.000000  1.000000  0.000000
                       0.000000
                       2.000000  2.000000  2.000000  2.000000  1.000000  0.000000
                       0.000000
                       2.000000  2.000000  2.000000  2.000000  1.000000  0.000000
                       0.000000
              occ2     2.000000  2.000000  2.000000  2.000000  2.000000  2.000000
                       0.000000  0.000000
                       2.000000  2.000000  2.000000  2.000000  2.000000  2.000000
                       0.000000  0.000000
                       2.000000  2.000000  2.000000  2.000000  2.000000  2.000000
                       0.000000  0.000000
                       2.000000  2.000000  2.000000  2.000000  2.000000  2.000000
                       0.000000  0.000000
                       2.000000  2.000000  2.000000  2.000000  2.000000  2.000000
                       0.000000  0.000000
                       2.000000  2.000000  2.000000  2.000000  2.000000  2.000000
                       0.000000  0.000000
              occ3     2.000000  2.000000  2.000000  2.000000  2.000000  2.000000
                       2.000000  1.000000  0.000000  0.000000  0.000000
                       2.000000  2.000000  2.000000  2.000000  2.000000  2.000000
                       2.000000  1.000000  0.000000  0.000000  0.000000
                       2.000000  2.000000  2.000000  2.000000  2.000000  2.000000
                       2.000000  1.000000  0.000000  0.000000  0.000000
                       2.000000  2.000000  2.000000  2.000000  2.000000  2.000000
                       2.000000  1.000000  0.000000  0.000000  0.000000
                       2.000000  2.000000  2.000000  2.000000  2.000000  2.000000
                       2.000000  1.000000  0.000000  0.000000  0.000000
                       2.000000  2.000000  2.000000  2.000000  2.000000  2.000000
                       2.000000  1.000000  0.000000  0.000000  0.000000
           occopt           4
        optforces           1
            rprim1     5.0000000000E-01 -5.0000000000E-01  0.0000000000E+00
                       5.0000000000E-01  5.0000000000E-01  0.0000000000E+00
                       0.0000000000E+00  0.0000000000E+00  2.5000000000E+00
            rprim2     5.0000000000E-01 -5.0000000000E-01  0.0000000000E+00
                       5.0000000000E-01  5.0000000000E-01  0.0000000000E+00
                       0.0000000000E+00  0.0000000000E+00  3.0000000000E+00
            rprim3     5.0000000000E-01 -5.0000000000E-01  0.0000000000E+00
                       5.0000000000E-01  5.0000000000E-01  0.0000000000E+00
                       0.0000000000E+00  0.0000000000E+00  3.5000000000E+00
           shiftk     -5.00000000E-01  5.00000000E-01  0.00000000E+00
          spgroup1        123
          spgroup2        129
          spgroup3        123
           symrel      1  0  0   0  1  0   0  0  1      -1  0  0   0 -1  0   0  0 -1
                      -1  0  0   0  1  0   0  0 -1       1  0  0   0 -1  0   0  0  1
                      -1  0  0   0 -1  0   0  0  1       1  0  0   0  1  0   0  0 -1
                       1  0  0   0 -1  0   0  0 -1      -1  0  0   0  1  0   0  0  1
                       0  1  0   1  0  0   0  0  1       0 -1  0  -1  0  0   0  0 -1
                       0 -1  0   1  0  0   0  0 -1       0  1  0  -1  0  0   0  0  1
                       0 -1  0  -1  0  0   0  0  1       0  1  0   1  0  0   0  0 -1
                       0  1  0  -1  0  0   0  0 -1       0 -1  0   1  0  0   0  0  1
            tnons1     0.0000000  0.0000000  0.0000000     0.0000000  0.0000000  0.4000000
                       0.0000000  0.0000000  0.4000000     0.0000000  0.0000000  0.0000000
                       0.0000000  0.0000000  0.0000000     0.0000000  0.0000000  0.4000000
                       0.0000000  0.0000000  0.4000000     0.0000000  0.0000000  0.0000000
                       0.0000000  0.0000000  0.0000000     0.0000000  0.0000000  0.4000000
                       0.0000000  0.0000000  0.4000000     0.0000000  0.0000000  0.0000000
                       0.0000000  0.0000000  0.0000000     0.0000000  0.0000000  0.4000000
                       0.0000000  0.0000000  0.4000000     0.0000000  0.0000000  0.0000000
            tnons2     0.0000000  0.0000000  0.0000000     0.5000000  0.5000000  0.5000000
                       0.5000000  0.5000000  0.5000000     0.0000000  0.0000000  0.0000000
                       0.0000000  0.0000000  0.0000000     0.5000000  0.5000000  0.5000000
                       0.5000000  0.5000000  0.5000000     0.0000000  0.0000000  0.0000000
                       0.0000000  0.0000000  0.0000000     0.5000000  0.5000000  0.5000000
                       0.5000000  0.5000000  0.5000000     0.0000000  0.0000000  0.0000000
                       0.0000000  0.0000000  0.0000000     0.5000000  0.5000000  0.5000000
                       0.5000000  0.5000000  0.5000000     0.0000000  0.0000000  0.0000000
            tnons3     0.0000000  0.0000000  0.0000000     0.0000000  0.0000000 -0.4285714
                       0.0000000  0.0000000 -0.4285714     0.0000000  0.0000000  0.0000000
                       0.0000000  0.0000000  0.0000000     0.0000000  0.0000000 -0.4285714
                       0.0000000  0.0000000 -0.4285714     0.0000000  0.0000000  0.0000000
                       0.0000000  0.0000000  0.0000000     0.0000000  0.0000000 -0.4285714
                       0.0000000  0.0000000 -0.4285714     0.0000000  0.0000000  0.0000000
                       0.0000000  0.0000000  0.0000000     0.0000000  0.0000000 -0.4285714
                       0.0000000  0.0000000 -0.4285714     0.0000000  0.0000000  0.0000000
           toldff      5.00000000E-05
           tolmxf      5.00000000E-04
            typat1     1  1  1
            typat2     1  1  1  1
            typat3     1  1  1  1  1
              wtk        0.12500    0.12500    0.25000    0.12500    0.25000    0.12500
           xangst1     0.0000000000E+00  0.0000000000E+00  0.0000000000E+00
                       0.0000000000E+00  1.9858938206E+00  1.9858938206E+00
                       0.0000000000E+00  0.0000000000E+00  3.9717876413E+00
           xangst2     0.0000000000E+00  0.0000000000E+00  0.0000000000E+00
                       0.0000000000E+00  1.9858938206E+00  1.9858938206E+00
                       0.0000000000E+00  0.0000000000E+00  3.9717876413E+00
                       0.0000000000E+00  1.9858938206E+00  5.9576814619E+00
           xangst3     0.0000000000E+00  0.0000000000E+00  0.0000000000E+00
                       0.0000000000E+00  1.9858938206E+00  1.9858938206E+00
                       0.0000000000E+00  0.0000000000E+00  3.9717876413E+00
                       0.0000000000E+00  1.9858938206E+00  5.9576814619E+00
                       0.0000000000E+00  0.0000000000E+00  7.9435752826E+00
            xcart1     0.0000000000E+00  0.0000000000E+00  0.0000000000E+00
                       0.0000000000E+00  3.7527954500E+00  3.7527954500E+00
                       0.0000000000E+00  0.0000000000E+00  7.5055909000E+00
            xcart2     0.0000000000E+00  0.0000000000E+00  0.0000000000E+00
                       0.0000000000E+00  3.7527954500E+00  3.7527954500E+00
                       0.0000000000E+00  0.0000000000E+00  7.5055909000E+00
                       0.0000000000E+00  3.7527954500E+00  1.1258386350E+01
            xcart3     0.0000000000E+00  0.0000000000E+00  0.0000000000E+00
                       0.0000000000E+00  3.7527954500E+00  3.7527954500E+00
                       0.0000000000E+00  0.0000000000E+00  7.5055909000E+00
                       0.0000000000E+00  3.7527954500E+00  1.1258386350E+01
                       0.0000000000E+00  0.0000000000E+00  1.5011181800E+01
             xred1     0.0000000000E+00  0.0000000000E+00  0.0000000000E+00
                      -5.0000000000E-01  5.0000000000E-01  2.0000000000E-01
                       0.0000000000E+00  0.0000000000E+00  4.0000000000E-01
             xred2     0.0000000000E+00  0.0000000000E+00  0.0000000000E+00
                      -5.0000000000E-01  5.0000000000E-01  1.6666666667E-01
                       0.0000000000E+00  0.0000000000E+00  3.3333333333E-01
                      -5.0000000000E-01  5.0000000000E-01  5.0000000000E-01
             xred3     0.0000000000E+00  0.0000000000E+00  0.0000000000E+00
                      -5.0000000000E-01  5.0000000000E-01  1.4285714286E-01
                       0.0000000000E+00  0.0000000000E+00  2.8571428571E-01
                      -5.0000000000E-01  5.0000000000E-01  4.2857142857E-01
                       0.0000000000E+00  0.0000000000E+00  5.7142857143E-01
            znucl       13.00000

================================================================================

 chkinp: Checking input parameters for consistency, jdtset=   1.

 chkinp: Checking input parameters for consistency, jdtset=   2.

 chkinp: Checking input parameters for consistency, jdtset=   3.

================================================================================
== DATASET  1 ==================================================================
-   nproc =    1

 Exchange-correlation functional for the present dataset will be:
  LDA: new Teter (4/93) with spin-polarized option - ixc=1
 Citation for XC functional:
  S. Goedecker, M. Teter, J. Huetter, PRB 54, 1703 (1996)

 Real(R)+Recip(G) space primitive vectors, cartesian coordinates (Bohr,Bohr^-1):
 R(1)=  3.7527955 -3.7527954  0.0000000  G(1)=  0.1332340 -0.1332340  0.0000000
 R(2)=  3.7527955  3.7527955  0.0000000  G(2)=  0.1332340  0.1332340  0.0000000
 R(3)=  0.0000000  0.0000000 18.7639773  G(3)=  0.0000000  0.0000000  0.0532936
 Unit cell volume ucvol=  5.2852396E+02 bohr^3
 Angles (23,13,12)=  9.00000000E+01  9.00000000E+01  9.00000000E+01 degrees

 getcut: wavevector=  0.0000  0.0000  0.0000  ngfft=  12  12  45
         ecut(hartree)=      6.000   => boxcut(ratio)=   2.05055

--- Pseudopotential description ------------------------------------------------
- pspini: atom type   1  psp file is /home/gonze/ABINIT/ABINITv7.10.4/trunk/7.10.4-private/tests/Psps_for_tests/13al.981214.fhi
- pspatm: opening atomic psp file    /home/gonze/ABINIT/ABINITv7.10.4/trunk/7.10.4-private/tests/Psps_for_tests/13al.981214.fhi
- Aluminum, fhi98PP : Hamann-type, LDA CA PerdewWang, l=2 local
- 13.00000   3.00000    981214                znucl, zion, pspdat
    6    7    2    2       493   0.00000      pspcod,pspxc,lmax,lloc,mmax,r2well
  No XC core correction.
  1.024700          amesh (Hamman grid)
 pspatm: epsatm=    1.36305739
         --- l  ekb(1:nproj) -->
             0    1.768744
             1    0.900554
 pspatm: atomic psp has been read  and splines computed

   3.68025494E+01                                ecore*ucvol(ha*bohr**3)
--------------------------------------------------------------------------------

P newkpt: treating      7 bands with npw=     356 for ikpt=   1 by node    0
P newkpt: treating      7 bands with npw=     368 for ikpt=   2 by node    0
P newkpt: treating      7 bands with npw=     362 for ikpt=   3 by node    0
P newkpt: treating      7 bands with npw=     368 for ikpt=   4 by node    0
P newkpt: treating      7 bands with npw=     378 for ikpt=   5 by node    0
P newkpt: treating      7 bands with npw=     372 for ikpt=   6 by node    0

_setup2: Arith. and geom. avg. npw (full set) are     368.000     367.927

================================================================================

=== [ionmov= 3] Broyden-Fletcher-Goldfard-Shanno method (forces,Tot energy) 
================================================================================

--- Iteration: ( 1/10) Internal Cycle: (1/1)
--------------------------------------------------------------------------------

---SELF-CONSISTENT-FIELD CONVERGENCE--------------------------------------------

     iter   Etot(hartree)      deltaE(h)  residm     vres2    diffor    maxfor
 ETOT  1  -6.1883559736790    -6.188E+00 3.166E-03 1.753E+02 8.073E-03 8.073E-03
 ETOT  2  -6.2520805584515    -6.372E-02 2.065E-04 5.483E+00 1.306E-02 4.991E-03
 ETOT  3  -6.2539319959763    -1.851E-03 2.999E-05 2.050E-02 8.162E-04 4.175E-03
 ETOT  4  -6.2539516662763    -1.967E-05 2.435E-06 2.488E-03 1.604E-04 4.335E-03
 ETOT  5  -6.2539524347356    -7.685E-07 1.493E-07 7.945E-07 2.466E-05 4.310E-03
 ETOT  6  -6.2539524363100    -1.574E-09 2.288E-08 7.104E-08 9.835E-07 4.309E-03

 At SCF step    6, forces are converged : 
  for the second time, max diff in force=  9.835E-07 < toldff=  5.000E-05

 Cartesian components of stress tensor (hartree/bohr^3)
  sigma(1 1)=  1.30985968E-04  sigma(3 2)=  0.00000000E+00
  sigma(2 2)=  1.30985968E-04  sigma(3 1)=  0.00000000E+00
  sigma(3 3)= -5.46820486E-05  sigma(2 1)=  0.00000000E+00


---OUTPUT-----------------------------------------------------------------------

 Cartesian coordinates (xcart) [bohr]
  0.00000000000000E+00  0.00000000000000E+00  0.00000000000000E+00
  0.00000000000000E+00  3.75279545000000E+00  3.75279545000000E+00
  0.00000000000000E+00  0.00000000000000E+00  7.50559090000000E+00
 Reduced coordinates (xred)
  0.00000000000000E+00  0.00000000000000E+00  0.00000000000000E+00
 -5.00000000000000E-01  5.00000000000000E-01  2.00000000000000E-01
  0.00000000000000E+00  0.00000000000000E+00  4.00000000000000E-01
 Cartesian forces (fcart) [Ha/bohr]; max,rms= 4.30948E-03 2.03151E-03 (free atoms)
 -0.00000000000000E+00 -0.00000000000000E+00 -4.30947544345783E-03
 -0.00000000000000E+00 -0.00000000000000E+00 -0.00000000000000E+00
 -0.00000000000000E+00 -0.00000000000000E+00  4.30947544345783E-03
 Reduced forces (fred)
  0.00000000000000E+00  0.00000000000000E+00  8.08628991804764E-02
  0.00000000000000E+00  0.00000000000000E+00  0.00000000000000E+00
  0.00000000000000E+00  0.00000000000000E+00 -8.08628991804764E-02
 Total energy (etotal) [Ha]= -6.25395243630998E+00

--- Iteration: ( 2/10) Internal Cycle: (1/1)
--------------------------------------------------------------------------------

---SELF-CONSISTENT-FIELD CONVERGENCE--------------------------------------------

     iter   Etot(hartree)      deltaE(h)  residm     vres2    diffor    maxfor
 ETOT  1  -6.2539882785394    -6.254E+00 2.161E-09 1.559E-03 1.053E-04 4.204E-03
 ETOT  2  -6.2539890820828    -8.035E-07 1.994E-11 5.424E-05 9.029E-06 4.195E-03
 ETOT  3  -6.2539890999073    -1.782E-08 2.181E-10 3.600E-07 3.717E-06 4.199E-03

 At SCF step    3, forces are converged : 
  for the second time, max diff in force=  3.717E-06 < toldff=  5.000E-05

 Cartesian components of stress tensor (hartree/bohr^3)
  sigma(1 1)=  1.32118482E-04  sigma(3 2)=  0.00000000E+00
  sigma(2 2)=  1.32118482E-04  sigma(3 1)=  0.00000000E+00
  sigma(3 3)= -5.32832580E-05  sigma(2 1)=  0.00000000E+00


---OUTPUT-----------------------------------------------------------------------

 Cartesian coordinates (xcart) [bohr]
  0.00000000000000E+00  0.00000000000000E+00 -4.30947544345783E-03
  0.00000000000000E+00  3.75279545000000E+00  3.75279545000000E+00
  0.00000000000000E+00  0.00000000000000E+00  7.50990037544346E+00
 Reduced coordinates (xred)
  0.00000000000000E+00  0.00000000000000E+00 -2.29667483926300E-04
 -5.00000000000000E-01  5.00000000000000E-01  2.00000000000000E-01
  0.00000000000000E+00  0.00000000000000E+00  4.00229667483926E-01
 Cartesian forces (fcart) [Ha/bohr]; max,rms= 4.19886E-03 1.97936E-03 (free atoms)
 -0.00000000000000E+00 -0.00000000000000E+00 -4.19885513791839E-03
 -0.00000000000000E+00 -0.00000000000000E+00 -0.00000000000000E+00
 -0.00000000000000E+00 -0.00000000000000E+00  4.19885513791839E-03
 Reduced forces (fred)
  0.00000000000000E+00  0.00000000000000E+00  7.87872222839463E-02
  0.00000000000000E+00  0.00000000000000E+00  0.00000000000000E+00
  0.00000000000000E+00  0.00000000000000E+00 -7.87872222839463E-02
 Total energy (etotal) [Ha]= -6.25398909990733E+00

 Difference of energy with previous step (new-old):
           Absolute (Ha)=-3.66636E-05
           Relative     =-5.86245E-06

--- Iteration: ( 3/10) Internal Cycle: (1/1)
--------------------------------------------------------------------------------

---SELF-CONSISTENT-FIELD CONVERGENCE--------------------------------------------

     iter   Etot(hartree)      deltaE(h)  residm     vres2    diffor    maxfor
 ETOT  1  -6.2514917897707    -6.251E+00 5.100E-03 2.307E+00 1.212E-02 7.921E-03
 ETOT  2  -6.2524169483323    -9.252E-04 3.852E-04 1.607E-01 8.526E-04 7.068E-03
 ETOT  3  -6.2524725791079    -5.563E-05 3.620E-05 6.213E-03 1.067E-05 7.058E-03
 ETOT  4  -6.2524754801126    -2.901E-06 8.162E-05 3.067E-06 3.343E-06 7.054E-03

 At SCF step    4, forces are converged : 
  for the second time, max diff in force=  3.343E-06 < toldff=  5.000E-05

 Cartesian components of stress tensor (hartree/bohr^3)
  sigma(1 1)=  2.17815737E-04  sigma(3 2)=  0.00000000E+00
  sigma(2 2)=  2.17815737E-04  sigma(3 1)=  0.00000000E+00
  sigma(3 3)=  1.05945264E-04  sigma(2 1)=  0.00000000E+00


---OUTPUT-----------------------------------------------------------------------

 Cartesian coordinates (xcart) [bohr]
  0.00000000000000E+00  0.00000000000000E+00 -4.88762061675145E-01
  0.00000000000000E+00  3.75279545000000E+00  3.75279545000000E+00
  0.00000000000000E+00  0.00000000000000E+00  7.99435296167515E+00
 Reduced coordinates (xred)
  0.00000000000000E+00  0.00000000000000E+00 -2.60478924677414E-02
 -5.00000000000000E-01  5.00000000000000E-01  2.00000000000000E-01
  0.00000000000000E+00  0.00000000000000E+00  4.26047892467741E-01
 Cartesian forces (fcart) [Ha/bohr]; max,rms= 7.05419E-03 3.32538E-03 (free atoms)
 -0.00000000000000E+00 -0.00000000000000E+00  7.05419186558634E-03
 -0.00000000000000E+00 -0.00000000000000E+00  5.78241158658936E-19
 -0.00000000000000E+00 -0.00000000000000E+00 -7.05419186558634E-03
 Reduced forces (fred)
  0.00000000000000E+00  0.00000000000000E+00 -1.32364695682997E-01
  0.00000000000000E+00  0.00000000000000E+00  0.00000000000000E+00
  0.00000000000000E+00  0.00000000000000E+00  1.32364695682997E-01
 Total energy (etotal) [Ha]= -6.25247548011263E+00

 Difference of energy with previous step (new-old):
           Absolute (Ha)= 1.51362E-03
           Relative     = 2.42054E-04

--- Iteration: ( 4/10) Internal Cycle: (1/1)
--------------------------------------------------------------------------------

---SELF-CONSISTENT-FIELD CONVERGENCE--------------------------------------------

     iter   Etot(hartree)      deltaE(h)  residm     vres2    diffor    maxfor
 ETOT  1  -6.2545918881384    -6.255E+00 8.991E-03 2.861E-01 7.612E-03 5.580E-04
 ETOT  2  -6.2546993751361    -1.075E-04 8.386E-06 1.456E-03 5.656E-04 7.521E-06
 ETOT  3  -6.2547007750682    -1.400E-06 5.280E-06 4.098E-05 8.678E-06 1.620E-05
 ETOT  4  -6.2547008082743    -3.321E-08 2.010E-07 1.372E-06 4.820E-06 1.138E-05

 At SCF step    4, forces are converged : 
  for the second time, max diff in force=  4.820E-06 < toldff=  5.000E-05

 Cartesian components of stress tensor (hartree/bohr^3)
  sigma(1 1)=  1.72598283E-04  sigma(3 2)=  0.00000000E+00
  sigma(2 2)=  1.72598283E-04  sigma(3 1)=  0.00000000E+00
  sigma(3 3)=  1.99001616E-06  sigma(2 1)=  0.00000000E+00


---OUTPUT-----------------------------------------------------------------------

 Cartesian coordinates (xcart) [bohr]
  0.00000000000000E+00  0.00000000000000E+00 -1.77073288359703E-01
  0.00000000000000E+00  3.75279545000000E+00  3.75279545000000E+00
  0.00000000000000E+00  0.00000000000000E+00  7.68266418835970E+00
 Reduced coordinates (xred)
  0.00000000000000E+00  0.00000000000000E+00 -9.43687396336524E-03
 -5.00000000000000E-01  5.00000000000000E-01  2.00000000000000E-01
  0.00000000000000E+00  0.00000000000000E+00  4.09436873963365E-01
 Cartesian forces (fcart) [Ha/bohr]; max,rms= 1.13785E-05 5.36387E-06 (free atoms)
 -0.00000000000000E+00 -0.00000000000000E+00  1.13784831692662E-05
 -0.00000000000000E+00 -0.00000000000000E+00 -0.00000000000000E+00
 -0.00000000000000E+00 -0.00000000000000E+00 -1.13784831692662E-05
 Reduced forces (fred)
  0.00000000000000E+00  0.00000000000000E+00 -2.13505599327620E-04
  0.00000000000000E+00  0.00000000000000E+00  0.00000000000000E+00
  0.00000000000000E+00  0.00000000000000E+00  2.13505599327620E-04
 Total energy (etotal) [Ha]= -6.25470080827432E+00

 Difference of energy with previous step (new-old):
           Absolute (Ha)=-2.22533E-03
           Relative     =-3.55848E-04

 At Broyd/MD step   4, gradients are converged : 
  max grad (force/stress) = 1.1378E-05 < tolmxf= 5.0000E-04 ha/bohr (free atoms)

================================================================================

 ----iterations are completed or convergence reached----

 Mean square residual over all n,k,spin=   4.9198E-09; max=  2.0097E-07
   0.0000  0.1250  0.0000    1  3.65742E-10 kpt; spin; max resid(k); each band:
  9.50E-11 3.66E-10 2.24E-11 3.41E-10 8.74E-11 1.99E-11 3.94E-11
   0.0000  0.3750  0.0000    1  3.63525E-10 kpt; spin; max resid(k); each band:
  2.63E-11 3.64E-10 2.48E-11 5.85E-11 2.01E-11 3.53E-10 6.57E-11
   0.1250  0.2500  0.0000    1  3.62283E-10 kpt; spin; max resid(k); each band:
  9.17E-11 3.62E-10 1.63E-11 3.16E-10 1.21E-11 5.30E-11 8.94E-11
   0.1250  0.5000  0.0000    1  2.70099E-10 kpt; spin; max resid(k); each band:
  3.17E-12 1.56E-11 2.64E-10 5.16E-12 5.97E-12 1.30E-11 2.70E-10
   0.2500  0.3750  0.0000    1  2.00974E-07 kpt; spin; max resid(k); each band:
  4.16E-11 3.24E-10 2.84E-11 1.27E-11 1.64E-11 3.16E-10 2.01E-07
   0.3750  0.5000  0.0000    1  1.32601E-09 kpt; spin; max resid(k); each band:
  6.30E-11 3.82E-12 2.50E-12 4.09E-12 8.53E-11 1.33E-09 3.40E-11
 reduced coordinates (array xred) for    3 atoms
       0.000000000000      0.000000000000     -0.009436873963
      -0.500000000000      0.500000000000      0.200000000000
       0.000000000000      0.000000000000      0.409436873963
 rms dE/dt=  1.0065E-04; max dE/dt=  2.1351E-04; dE/dt below (all hartree)
    1       0.000000000000      0.000000000000     -0.000213505599
    2       0.000000000000      0.000000000000      0.000000000000
    3       0.000000000000      0.000000000000      0.000213505599

 cartesian coordinates (angstrom) at end:
    1      0.00000000000000     0.00000000000000    -0.09370314845004
    2      0.00000000000000     1.98589382064025     1.98589382064025
    3      0.00000000000000     0.00000000000000     4.06549078973055

 cartesian forces (hartree/bohr) at end:
    1     -0.00000000000000    -0.00000000000000     0.00001137848317
    2     -0.00000000000000    -0.00000000000000    -0.00000000000000
    3     -0.00000000000000    -0.00000000000000    -0.00001137848317
 frms,max,avg= 5.3638684E-06 1.1378483E-05   0.000E+00  0.000E+00  0.000E+00 h/b

 cartesian forces (eV/Angstrom) at end:
    1     -0.00000000000000    -0.00000000000000     0.00058510508056
    2     -0.00000000000000    -0.00000000000000    -0.00000000000000
    3     -0.00000000000000    -0.00000000000000    -0.00058510508056
 frms,max,avg= 2.7582118E-04 5.8510508E-04   0.000E+00  0.000E+00  0.000E+00 e/A
 length scales=  7.505590900000  7.505590900000  7.505590900000 bohr
              =  3.971787641281  3.971787641281  3.971787641281 angstroms
 prteigrs : about to open file tbase4_7o_DS1_EIG
 Fermi (or HOMO) energy (hartree) =   0.11290   Average Vxc (hartree)=  -0.27142
 Eigenvalues (hartree) for nkpt=   6  k points:
 kpt#   1, nband=  7, wtk=  0.12500, kpt=  0.0000  0.1250  0.0000 (reduced coord)
  -0.25632  -0.17574  -0.05935   0.05799   0.17116   0.23104   0.30473
      occupation numbers for kpt#   1
   2.00000   2.00000   2.00000   2.13230   0.00270   0.00018   0.00000
 kpt#   2, nband=  7, wtk=  0.12500, kpt=  0.0000  0.3750  0.0000 (reduced coord)
  -0.17150  -0.09185  -0.00589   0.02346   0.07115   0.13862   0.18607
      occupation numbers for kpt#   2
   2.00000   2.00000   2.00061   2.01658   2.12122   0.10513   0.00520
 kpt#   3, nband=  7, wtk=  0.25000, kpt=  0.1250  0.2500  0.0000 (reduced coord)
  -0.21372  -0.13360  -0.01761   0.09756   0.11287   0.18992   0.21261
      occupation numbers for kpt#   3
   2.00000   2.00000   2.00012   1.50237   0.84257   0.00483   0.00124
 kpt#   4, nband=  7, wtk=  0.12500, kpt=  0.1250  0.5000  0.0000 (reduced coord)
  -0.09027  -0.08575  -0.01112  -0.00769   0.09270   0.11940   0.20079
      occupation numbers for kpt#   4
   2.00000   2.00000   2.00030   2.00048   1.68525   0.58228   0.00298
 kpt#   5, nband=  7, wtk=  0.25000, kpt=  0.2500  0.3750  0.0000 (reduced coord)
  -0.12965  -0.05047   0.03283   0.06426   0.10914   0.17746   0.20384
      occupation numbers for kpt#   5
   2.00000   2.00000   2.03618   2.14180   1.00349   0.00461   0.00245
 kpt#   6, nband=  7, wtk=  0.12500, kpt=  0.3750  0.5000  0.0000 (reduced coord)
  -0.00969  -0.00553   0.06946   0.06977   0.15929   0.16873   0.17255
      occupation numbers for kpt#   6
   2.00036   2.00064   2.13023   2.12879   0.00048   0.00176   0.00321
 Total charge density [el/Bohr^3]
,     Maximum=    3.4148E-02  at reduced coord.    0.0000    0.6667    0.4000
,Next maximum=    3.4148E-02  at reduced coord.    0.0000    0.3333    0.4000
,     Minimum=    2.2431E-04  at reduced coord.    0.5000    0.5000    0.6889
,Next minimum=    2.2431E-04  at reduced coord.    0.5000    0.5000    0.7111
,  Integrated=    9.0000E+00

--------------------------------------------------------------------------------
 Components of total free energy (in Hartree) :

    Kinetic energy  =  2.38985026010464E+00
    Hartree energy  =  3.32458605926621E+00
    XC energy       = -2.30396521129883E+00
    Ewald energy    = -3.42739981701811E+00
    PspCore energy  =  6.96326982763048E-02
    Loc. psp. energy= -7.67589187633976E+00
    NL   psp  energy=  1.36986414543572E+00
    >>>>> Internal E= -6.25332374157383E+00

    -kT*entropy     = -1.37706670048858E-03
    >>>>>>>>> Etotal= -6.25470080827432E+00

 Other information on the energy :
    Total energy(eV)= -1.70199064623405E+02 ; Band energy (Ha)=  -2.6794871785E-01
--------------------------------------------------------------------------------
 rms coord change=  4.4486E-03   atom, delta coord (reduced):
     1        0.000000000000      0.000000000000     -0.009436873963
     2        0.000000000000      0.000000000000      0.000000000000
     3        0.000000000000      0.000000000000      0.009436873963

 Cartesian components of stress tensor (hartree/bohr^3)
  sigma(1 1)=  1.72598283E-04  sigma(3 2)=  0.00000000E+00
  sigma(2 2)=  1.72598283E-04  sigma(3 1)=  0.00000000E+00
  sigma(3 3)=  1.99001616E-06  sigma(2 1)=  0.00000000E+00

-Cartesian components of stress tensor (GPa)         [Pressure= -3.4049E+00 GPa]
- sigma(1 1)=  5.07801594E+00  sigma(3 2)=  0.00000000E+00
- sigma(2 2)=  5.07801594E+00  sigma(3 1)=  0.00000000E+00
- sigma(3 3)=  5.85482870E-02  sigma(2 1)=  0.00000000E+00

================================================================================
== DATASET  2 ==================================================================
-   nproc =    1

 Exchange-correlation functional for the present dataset will be:
  LDA: new Teter (4/93) with spin-polarized option - ixc=1
 Citation for XC functional:
  S. Goedecker, M. Teter, J. Huetter, PRB 54, 1703 (1996)

 Real(R)+Recip(G) space primitive vectors, cartesian coordinates (Bohr,Bohr^-1):
 R(1)=  3.7527955 -3.7527954  0.0000000  G(1)=  0.1332340 -0.1332340  0.0000000
 R(2)=  3.7527955  3.7527955  0.0000000  G(2)=  0.1332340  0.1332340  0.0000000
 R(3)=  0.0000000  0.0000000 22.5167727  G(3)=  0.0000000  0.0000000  0.0444113
 Unit cell volume ucvol=  6.3422875E+02 bohr^3
 Angles (23,13,12)=  9.00000000E+01  9.00000000E+01  9.00000000E+01 degrees

 getcut: wavevector=  0.0000  0.0000  0.0000  ngfft=  12  12  50
         ecut(hartree)=      6.000   => boxcut(ratio)=   2.01383
   6.54267545E+01                                ecore*ucvol(ha*bohr**3)
--------------------------------------------------------------------------------

P newkpt: treating      8 bands with npw=     432 for ikpt=   1 by node    0
P newkpt: treating      8 bands with npw=     442 for ikpt=   2 by node    0
P newkpt: treating      8 bands with npw=     438 for ikpt=   3 by node    0
P newkpt: treating      8 bands with npw=     452 for ikpt=   4 by node    0
P newkpt: treating      8 bands with npw=     450 for ikpt=   5 by node    0
P newkpt: treating      8 bands with npw=     452 for ikpt=   6 by node    0

_setup2: Arith. and geom. avg. npw (full set) are     444.250     444.191

================================================================================

=== [ionmov= 3] Broyden-Fletcher-Goldfard-Shanno method (forces,Tot energy) 
================================================================================

--- Iteration: ( 1/10) Internal Cycle: (1/1)
--------------------------------------------------------------------------------

---SELF-CONSISTENT-FIELD CONVERGENCE--------------------------------------------

     iter   Etot(hartree)      deltaE(h)  residm     vres2    diffor    maxfor
 ETOT  1  -8.2571154630704    -8.257E+00 4.006E-03 3.485E+02 7.135E-03 7.135E-03
 ETOT  2  -8.3482157446056    -9.110E-02 9.173E-05 2.420E+01 1.384E-02 6.702E-03
 ETOT  3  -8.3546409550350    -6.425E-03 6.249E-05 1.125E-01 1.576E-03 6.181E-03
 ETOT  4  -8.3546859038954    -4.495E-05 2.588E-06 4.897E-03 2.005E-04 6.251E-03
 ETOT  5  -8.3546873340993    -1.430E-06 4.098E-07 2.107E-06 1.755E-05 6.233E-03
 ETOT  6  -8.3546873356953    -1.596E-09 2.816E-08 2.842E-07 1.003E-06 6.233E-03

 At SCF step    6, forces are converged : 
  for the second time, max diff in force=  1.003E-06 < toldff=  5.000E-05

 Cartesian components of stress tensor (hartree/bohr^3)
  sigma(1 1)=  1.43477494E-04  sigma(3 2)=  0.00000000E+00
  sigma(2 2)=  1.43477494E-04  sigma(3 1)=  0.00000000E+00
  sigma(3 3)= -5.96637764E-05  sigma(2 1)=  0.00000000E+00


---OUTPUT-----------------------------------------------------------------------

 Cartesian coordinates (xcart) [bohr]
  0.00000000000000E+00  0.00000000000000E+00  0.00000000000000E+00
  0.00000000000000E+00  3.75279545000000E+00  3.75279545000000E+00
  0.00000000000000E+00  0.00000000000000E+00  7.50559090000000E+00
  0.00000000000000E+00  3.75279545000000E+00  1.12583863500000E+01
 Reduced coordinates (xred)
  0.00000000000000E+00  0.00000000000000E+00  0.00000000000000E+00
 -5.00000000000000E-01  5.00000000000000E-01  1.66666666666667E-01
  0.00000000000000E+00  0.00000000000000E+00  3.33333333333333E-01
 -5.00000000000000E-01  5.00000000000000E-01  5.00000000000000E-01
 Cartesian forces (fcart) [Ha/bohr]; max,rms= 6.23292E-03 2.55521E-03 (free atoms)
 -0.00000000000000E+00 -0.00000000000000E+00 -6.23292412667915E-03
 -0.00000000000000E+00 -0.00000000000000E+00  5.70283806976072E-04
 -0.00000000000000E+00 -0.00000000000000E+00 -5.70283806976072E-04
 -0.00000000000000E+00 -0.00000000000000E+00  6.23292412667915E-03
 Reduced forces (fred)
  0.00000000000000E+00  0.00000000000000E+00  1.40345335816780E-01
  0.00000000000000E+00  0.00000000000000E+00 -1.28409508561709E-02
  0.00000000000000E+00  0.00000000000000E+00  1.28409508561709E-02
  0.00000000000000E+00  0.00000000000000E+00 -1.40345335816780E-01
 Total energy (etotal) [Ha]= -8.35468733569531E+00

--- Iteration: ( 2/10) Internal Cycle: (1/1)
--------------------------------------------------------------------------------

---SELF-CONSISTENT-FIELD CONVERGENCE--------------------------------------------

     iter   Etot(hartree)      deltaE(h)  residm     vres2    diffor    maxfor
 ETOT  1  -8.3547607087358    -8.355E+00 1.939E-09 9.123E-03 3.029E-04 5.996E-03
 ETOT  2  -8.3547639731517    -3.264E-06 3.766E-10 3.649E-04 3.834E-05 5.994E-03
 ETOT  3  -8.3547640651139    -9.196E-08 3.240E-09 4.956E-06 6.331E-06 5.999E-03

 At SCF step    3, forces are converged : 
  for the second time, max diff in force=  6.331E-06 < toldff=  5.000E-05

 Cartesian components of stress tensor (hartree/bohr^3)
  sigma(1 1)=  1.44366997E-04  sigma(3 2)=  0.00000000E+00
  sigma(2 2)=  1.44366997E-04  sigma(3 1)=  0.00000000E+00
  sigma(3 3)= -5.70291300E-05  sigma(2 1)=  0.00000000E+00


---OUTPUT-----------------------------------------------------------------------

 Cartesian coordinates (xcart) [bohr]
  0.00000000000000E+00  0.00000000000000E+00 -6.23292412667915E-03
  0.00000000000000E+00  3.75279545000000E+00  3.75336573380698E+00
  0.00000000000000E+00  0.00000000000000E+00  7.50502061619302E+00
  0.00000000000000E+00  3.75279545000000E+00  1.12646192741267E+01
 Reduced coordinates (xred)
  0.00000000000000E+00  0.00000000000000E+00 -2.76812499274336E-04
 -5.00000000000000E-01  5.00000000000000E-01  1.66691993733497E-01
  0.00000000000000E+00  0.00000000000000E+00  3.33308006266503E-01
 -5.00000000000000E-01  5.00000000000000E-01  5.00276812499274E-01
 Cartesian forces (fcart) [Ha/bohr]; max,rms= 5.99920E-03 2.45221E-03 (free atoms)
 -0.00000000000000E+00 -0.00000000000000E+00 -5.99920452896058E-03
 -0.00000000000000E+00 -0.00000000000000E+00  2.99404534150226E-04
 -0.00000000000000E+00 -0.00000000000000E+00 -2.99404534150226E-04
 -0.00000000000000E+00 -0.00000000000000E+00  5.99920452896058E-03
 Reduced forces (fred)
  0.00000000000000E+00  0.00000000000000E+00  1.35082724759416E-01
  0.00000000000000E+00  0.00000000000000E+00 -6.74162384081003E-03
  0.00000000000000E+00  0.00000000000000E+00  6.74162384081003E-03
  0.00000000000000E+00  0.00000000000000E+00 -1.35082724759416E-01
 Total energy (etotal) [Ha]= -8.35476406511391E+00

 Difference of energy with previous step (new-old):
           Absolute (Ha)=-7.67294E-05
           Relative     =-9.18395E-06

--- Iteration: ( 3/10) Internal Cycle: (1/1)
--------------------------------------------------------------------------------

---SELF-CONSISTENT-FIELD CONVERGENCE--------------------------------------------

     iter   Etot(hartree)      deltaE(h)  residm     vres2    diffor    maxfor
 ETOT  1  -8.3462504640799    -8.346E+00 4.209E-04 1.271E+01 1.939E-02 1.910E-02
 ETOT  2  -8.3500126909639    -3.762E-03 6.426E-06 1.210E+00 1.588E-03 1.751E-02
 ETOT  3  -8.3503216012916    -3.089E-04 2.199E-06 3.725E-02 3.153E-04 1.782E-02
 ETOT  4  -8.3503323010315    -1.070E-05 5.512E-07 1.052E-05 4.147E-05 1.778E-02
 ETOT  5  -8.3503323190313    -1.800E-08 3.662E-08 1.311E-06 7.469E-07 1.778E-02

 At SCF step    5, forces are converged : 
  for the second time, max diff in force=  7.469E-07 < toldff=  5.000E-05

 Cartesian components of stress tensor (hartree/bohr^3)
  sigma(1 1)=  1.77998858E-04  sigma(3 2)=  0.00000000E+00
  sigma(2 2)=  1.77998858E-04  sigma(3 1)=  0.00000000E+00
  sigma(3 3)=  1.63044890E-04  sigma(2 1)=  0.00000000E+00


---OUTPUT-----------------------------------------------------------------------

 Cartesian coordinates (xcart) [bohr]
  0.00000000000000E+00  0.00000000000000E+00 -6.21756516975269E-01
  0.00000000000000E+00  3.75279545000000E+00  3.78579718250529E+00
  0.00000000000000E+00  0.00000000000000E+00  7.47258916749471E+00
  0.00000000000000E+00  3.75279545000000E+00  1.18801428669753E+01
 Reduced coordinates (xred)
  0.00000000000000E+00  0.00000000000000E+00 -2.76130387449028E-02
 -5.00000000000000E-01  5.00000000000000E-01  1.68132317759076E-01
  0.00000000000000E+00  0.00000000000000E+00  3.31867682240924E-01
 -5.00000000000000E-01  5.00000000000000E-01  5.27613038744903E-01
 Cartesian forces (fcart) [Ha/bohr]; max,rms= 1.77806E-02 8.23349E-03 (free atoms)
 -0.00000000000000E+00 -0.00000000000000E+00  9.51808341826116E-03
 -0.00000000000000E+00 -0.00000000000000E+00 -1.77805608247872E-02
 -0.00000000000000E+00 -0.00000000000000E+00  1.77805608247872E-02
 -0.00000000000000E+00 -0.00000000000000E+00 -9.51808341826116E-03
 Reduced forces (fred)
  0.00000000000000E+00  0.00000000000000E+00 -2.14316520868626E-01
  0.00000000000000E+00  0.00000000000000E+00  4.00360846570257E-01
  0.00000000000000E+00  0.00000000000000E+00 -4.00360846570257E-01
  0.00000000000000E+00  0.00000000000000E+00  2.14316520868626E-01
 Total energy (etotal) [Ha]= -8.35033231903131E+00

 Difference of energy with previous step (new-old):
           Absolute (Ha)= 4.43175E-03
           Relative     = 5.30586E-04

--- Iteration: ( 4/10) Internal Cycle: (1/1)
--------------------------------------------------------------------------------

---SELF-CONSISTENT-FIELD CONVERGENCE--------------------------------------------

     iter   Etot(hartree)      deltaE(h)  residm     vres2    diffor    maxfor
 ETOT  1  -8.3542194980954    -8.354E+00 1.982E-04 5.963E+00 1.293E-02 4.847E-03
 ETOT  2  -8.3556812147097    -1.462E-03 2.619E-06 3.991E-01 1.058E-03 5.905E-03
 ETOT  3  -8.3557887937728    -1.076E-04 7.453E-07 1.428E-02 1.992E-04 5.706E-03
 ETOT  4  -8.3557927553103    -3.962E-06 1.302E-07 9.451E-06 2.270E-05 5.729E-03
 ETOT  5  -8.3557927722573    -1.695E-08 1.633E-08 1.562E-06 3.403E-06 5.725E-03

 At SCF step    5, forces are converged : 
  for the second time, max diff in force=  3.403E-06 < toldff=  5.000E-05

 Cartesian components of stress tensor (hartree/bohr^3)
  sigma(1 1)=  1.63377963E-04  sigma(3 2)=  0.00000000E+00
  sigma(2 2)=  1.63377963E-04  sigma(3 1)=  0.00000000E+00
  sigma(3 3)=  1.27605891E-05  sigma(2 1)=  0.00000000E+00


---OUTPUT-----------------------------------------------------------------------

 Cartesian coordinates (xcart) [bohr]
  0.00000000000000E+00  0.00000000000000E+00 -1.73342477521943E-01
  0.00000000000000E+00  3.75279545000000E+00  3.75777765889909E+00
  0.00000000000000E+00  0.00000000000000E+00  7.50060869110091E+00
  0.00000000000000E+00  3.75279545000000E+00  1.14317288275219E+01
 Reduced coordinates (xred)
  0.00000000000000E+00  0.00000000000000E+00 -7.69837133551307E-03
 -5.00000000000000E-01  5.00000000000000E-01  1.66887933229396E-01
  0.00000000000000E+00  0.00000000000000E+00  3.33112066770604E-01
 -5.00000000000000E-01  5.00000000000000E-01  5.07698371335513E-01
 Cartesian forces (fcart) [Ha/bohr]; max,rms= 5.72535E-03 2.34375E-03 (free atoms)
 -0.00000000000000E+00 -0.00000000000000E+00 -4.23523336240390E-04
 -0.00000000000000E+00 -0.00000000000000E+00 -5.72534628141920E-03
 -0.00000000000000E+00 -0.00000000000000E+00  5.72534628141920E-03
 -0.00000000000000E+00 -0.00000000000000E+00  4.23523336240390E-04
 Reduced forces (fred)
  0.00000000000000E+00  0.00000000000000E+00  9.53637869527053E-03
  0.00000000000000E+00  0.00000000000000E+00  1.28916320847506E-01
  0.00000000000000E+00  0.00000000000000E+00 -1.28916320847506E-01
  0.00000000000000E+00  0.00000000000000E+00 -9.53637869527053E-03
 Total energy (etotal) [Ha]= -8.35579277225733E+00

 Difference of energy with previous step (new-old):
           Absolute (Ha)=-5.46045E-03
           Relative     =-6.53707E-04

--- Iteration: ( 5/10) Internal Cycle: (1/1)
--------------------------------------------------------------------------------

---SELF-CONSISTENT-FIELD CONVERGENCE--------------------------------------------

     iter   Etot(hartree)      deltaE(h)  residm     vres2    diffor    maxfor
 ETOT  1  -8.3558545934327    -8.356E+00 4.144E-08 6.819E-03 1.625E-04 5.563E-03
 ETOT  2  -8.3558574696280    -2.876E-06 9.108E-11 2.676E-04 3.903E-05 5.524E-03
 ETOT  3  -8.3558575350079    -6.538E-08 7.299E-10 1.403E-05 4.195E-06 5.528E-03

 At SCF step    3, forces are converged : 
  for the second time, max diff in force=  4.195E-06 < toldff=  5.000E-05

 Cartesian components of stress tensor (hartree/bohr^3)
  sigma(1 1)=  1.64727195E-04  sigma(3 2)=  0.00000000E+00
  sigma(2 2)=  1.64727195E-04  sigma(3 1)=  0.00000000E+00
  sigma(3 3)=  1.57683168E-05  sigma(2 1)=  0.00000000E+00


---OUTPUT-----------------------------------------------------------------------

 Cartesian coordinates (xcart) [bohr]
  0.00000000000000E+00  0.00000000000000E+00 -1.81637533197591E-01
  0.00000000000000E+00  3.75279545000000E+00  3.75258419450394E+00
  0.00000000000000E+00  0.00000000000000E+00  7.50580215549606E+00
  0.00000000000000E+00  3.75279545000000E+00  1.14400238831976E+01
 Reduced coordinates (xred)
  0.00000000000000E+00  0.00000000000000E+00 -8.06676585572989E-03
 -5.00000000000000E-01  5.00000000000000E-01  1.66657284527455E-01
  0.00000000000000E+00  0.00000000000000E+00  3.33342715472545E-01
 -5.00000000000000E-01  5.00000000000000E-01  5.08066765855730E-01
 Cartesian forces (fcart) [Ha/bohr]; max,rms= 5.52803E-03 2.26107E-03 (free atoms)
 -0.00000000000000E+00 -0.00000000000000E+00 -3.39817116416594E-04
 -0.00000000000000E+00 -0.00000000000000E+00 -5.52802817985478E-03
 -0.00000000000000E+00 -0.00000000000000E+00  5.52802817985478E-03
 -0.00000000000000E+00 -0.00000000000000E+00  3.39817116416594E-04
 Reduced forces (fred)
  0.00000000000000E+00  0.00000000000000E+00  7.65158476992188E-03
  0.00000000000000E+00  0.00000000000000E+00  1.24473354004985E-01
  0.00000000000000E+00  0.00000000000000E+00 -1.24473354004985E-01
  0.00000000000000E+00  0.00000000000000E+00 -7.65158476992188E-03
 Total energy (etotal) [Ha]= -8.35585753500792E+00

 Difference of energy with previous step (new-old):
           Absolute (Ha)=-6.47628E-05
           Relative     =-7.75061E-06

--- Iteration: ( 6/10) Internal Cycle: (1/1)
--------------------------------------------------------------------------------

---SELF-CONSISTENT-FIELD CONVERGENCE--------------------------------------------

     iter   Etot(hartree)      deltaE(h)  residm     vres2    diffor    maxfor
 ETOT  1  -8.3482115203159    -8.348E+00 4.530E-05 1.491E+01 8.311E-03 7.971E-03
 ETOT  2  -8.3524856375630    -4.274E-03 3.273E-06 1.338E+00 7.498E-04 7.221E-03
 ETOT  3  -8.3528367642005    -3.511E-04 2.218E-06 5.385E-02 1.908E-04 7.030E-03
 ETOT  4  -8.3528513569315    -1.459E-05 7.549E-08 2.880E-05 2.155E-05 7.052E-03
 ETOT  5  -8.3528513852578    -2.833E-08 5.217E-08 1.292E-06 2.914E-06 7.055E-03

 At SCF step    5, forces are converged : 
  for the second time, max diff in force=  2.914E-06 < toldff=  5.000E-05

 Cartesian components of stress tensor (hartree/bohr^3)
  sigma(1 1)=  2.19152814E-04  sigma(3 2)=  0.00000000E+00
  sigma(2 2)=  2.19152814E-04  sigma(3 1)=  0.00000000E+00
  sigma(3 3)=  2.32884776E-04  sigma(2 1)=  0.00000000E+00


---OUTPUT-----------------------------------------------------------------------

 Cartesian coordinates (xcart) [bohr]
  0.00000000000000E+00  0.00000000000000E+00 -8.48878964406102E-01
  0.00000000000000E+00  3.75279545000000E+00  3.40815474135790E+00
  0.00000000000000E+00  0.00000000000000E+00  7.85023160864210E+00
  0.00000000000000E+00  3.75279545000000E+00  1.21072653144061E+01
 Reduced coordinates (xred)
  0.00000000000000E+00  0.00000000000000E+00 -3.76998504943873E-02
 -5.00000000000000E-01  5.00000000000000E-01  1.51360711713269E-01
  0.00000000000000E+00  0.00000000000000E+00  3.48639288286731E-01
 -5.00000000000000E-01  5.00000000000000E-01  5.37699850494388E-01
 Cartesian forces (fcart) [Ha/bohr]; max,rms= 7.05479E-03 2.92118E-03 (free atoms)
 -0.00000000000000E+00 -0.00000000000000E+00  7.05479419894268E-03
 -0.00000000000000E+00 -0.00000000000000E+00 -1.19573135280372E-03
 -0.00000000000000E+00 -0.00000000000000E+00  1.19573135280372E-03
 -0.00000000000000E+00 -0.00000000000000E+00 -7.05479419894268E-03
 Reduced forces (fred)
  0.00000000000000E+00  0.00000000000000E+00 -1.58851197422871E-01
  0.00000000000000E+00  0.00000000000000E+00  2.69240110813449E-02
  0.00000000000000E+00  0.00000000000000E+00 -2.69240110813449E-02
  0.00000000000000E+00  0.00000000000000E+00  1.58851197422871E-01
 Total energy (etotal) [Ha]= -8.35285138525779E+00

 Difference of energy with previous step (new-old):
           Absolute (Ha)= 3.00615E-03
           Relative     = 3.59830E-04

--- Iteration: ( 7/10) Internal Cycle: (1/1)
--------------------------------------------------------------------------------

---SELF-CONSISTENT-FIELD CONVERGENCE--------------------------------------------

     iter   Etot(hartree)      deltaE(h)  residm     vres2    diffor    maxfor
 ETOT  1  -8.3512271804870    -8.351E+00 2.024E-04 1.987E+01 7.332E-03 1.631E-03
 ETOT  2  -8.3561877075505    -4.961E-03 1.328E-07 1.267E+00 6.761E-04 9.552E-04
 ETOT  3  -8.3565347444497    -3.470E-04 2.048E-06 2.378E-02 2.281E-04 1.155E-03
 ETOT  4  -8.3565411563415    -6.412E-06 3.706E-08 2.444E-05 2.665E-05 1.129E-03
 ETOT  5  -8.3565411748778    -1.854E-08 4.169E-09 8.557E-07 1.952E-06 1.128E-03

 At SCF step    5, forces are converged : 
  for the second time, max diff in force=  1.952E-06 < toldff=  5.000E-05

 Cartesian components of stress tensor (hartree/bohr^3)
  sigma(1 1)=  1.88159416E-04  sigma(3 2)=  0.00000000E+00
  sigma(2 2)=  1.88159416E-04  sigma(3 1)=  0.00000000E+00
  sigma(3 3)=  5.80486072E-05  sigma(2 1)=  0.00000000E+00


---OUTPUT-----------------------------------------------------------------------

 Cartesian coordinates (xcart) [bohr]
  0.00000000000000E+00  0.00000000000000E+00 -3.20986363008627E-01
  0.00000000000000E+00  3.75279545000000E+00  3.61278852797323E+00
  0.00000000000000E+00  0.00000000000000E+00  7.64559782202676E+00
  0.00000000000000E+00  3.75279545000000E+00  1.15793727130086E+01
 Reduced coordinates (xred)
  0.00000000000000E+00  0.00000000000000E+00 -1.42554338175038E-02
 -5.00000000000000E-01  5.00000000000000E-01  1.60448771949154E-01
  0.00000000000000E+00  0.00000000000000E+00  3.39551228050846E-01
 -5.00000000000000E-01  5.00000000000000E-01  5.14255433817504E-01
 Cartesian forces (fcart) [Ha/bohr]; max,rms= 1.12826E-03 5.15908E-04 (free atoms)
 -0.00000000000000E+00 -0.00000000000000E+00 -5.69208779517347E-04
 -0.00000000000000E+00 -0.00000000000000E+00  1.12825959118618E-03
 -0.00000000000000E+00 -0.00000000000000E+00 -1.12825959118618E-03
 -0.00000000000000E+00 -0.00000000000000E+00  5.69208779517347E-04
 Reduced forces (fred)
  0.00000000000000E+00  0.00000000000000E+00  1.28167447072365E-02
  0.00000000000000E+00  0.00000000000000E+00 -2.54047647613341E-02
  0.00000000000000E+00  0.00000000000000E+00  2.54047647613341E-02
  0.00000000000000E+00  0.00000000000000E+00 -1.28167447072365E-02
 Total energy (etotal) [Ha]= -8.35654117487783E+00

 Difference of energy with previous step (new-old):
           Absolute (Ha)=-3.68979E-03
           Relative     =-4.41643E-04

--- Iteration: ( 8/10) Internal Cycle: (1/1)
--------------------------------------------------------------------------------

---SELF-CONSISTENT-FIELD CONVERGENCE--------------------------------------------

     iter   Etot(hartree)      deltaE(h)  residm     vres2    diffor    maxfor
 ETOT  1  -8.3564899419368    -8.356E+00 7.476E-08 2.388E-01 1.157E-03 1.084E-04
 ETOT  2  -8.3565565749722    -6.663E-05 3.714E-10 9.897E-03 1.200E-04 1.189E-04
 ETOT  3  -8.3565593162458    -2.741E-06 1.311E-08 3.283E-06 1.815E-05 1.060E-04
 ETOT  4  -8.3565593186749    -2.429E-09 3.314E-11 3.774E-08 1.687E-06 1.077E-04

 At SCF step    4, forces are converged : 
  for the second time, max diff in force=  1.687E-06 < toldff=  5.000E-05

 Cartesian components of stress tensor (hartree/bohr^3)
  sigma(1 1)=  1.87446238E-04  sigma(3 2)=  0.00000000E+00
  sigma(2 2)=  1.87446238E-04  sigma(3 1)=  0.00000000E+00
  sigma(3 3)=  6.10071616E-05  sigma(2 1)=  0.00000000E+00


---OUTPUT-----------------------------------------------------------------------

 Cartesian coordinates (xcart) [bohr]
  0.00000000000000E+00  0.00000000000000E+00 -3.23330629598083E-01
  0.00000000000000E+00  3.75279545000000E+00  3.62921542453522E+00
  0.00000000000000E+00  0.00000000000000E+00  7.62917092546477E+00
  0.00000000000000E+00  3.75279545000000E+00  1.15817169795981E+01
 Reduced coordinates (xred)
  0.00000000000000E+00  0.00000000000000E+00 -1.43595458330529E-02
 -5.00000000000000E-01  5.00000000000000E-01  1.61178312402435E-01
  0.00000000000000E+00  0.00000000000000E+00  3.38821687597565E-01
 -5.00000000000000E-01  5.00000000000000E-01  5.14359545833053E-01
 Cartesian forces (fcart) [Ha/bohr]; max,rms= 1.07696E-04 4.40566E-05 (free atoms)
 -0.00000000000000E+00 -0.00000000000000E+00  6.89436959945098E-06
 -0.00000000000000E+00 -0.00000000000000E+00 -1.07695791230652E-04
 -0.00000000000000E+00 -0.00000000000000E+00  1.07695791230652E-04
 -0.00000000000000E+00 -0.00000000000000E+00 -6.89436959945098E-06
 Reduced forces (fred)
  0.00000000000000E+00  0.00000000000000E+00 -1.55238953180628E-04
  0.00000000000000E+00  0.00000000000000E+00  2.42496165188725E-03
  0.00000000000000E+00  0.00000000000000E+00 -2.42496165188725E-03
  0.00000000000000E+00  0.00000000000000E+00  1.55238953180628E-04
 Total energy (etotal) [Ha]= -8.35655931867494E+00

 Difference of energy with previous step (new-old):
           Absolute (Ha)=-1.81438E-05
           Relative     =-2.17121E-06

 At Broyd/MD step   8, gradients are converged : 
  max grad (force/stress) = 1.0770E-04 < tolmxf= 5.0000E-04 ha/bohr (free atoms)

================================================================================

 ----iterations are completed or convergence reached----

 Mean square residual over all n,k,spin=   7.4044E-12; max=  3.3135E-11
   0.0000  0.1250  0.0000    1  3.31353E-11 kpt; spin; max resid(k); each band:
  1.86E-11 5.11E-12 7.80E-12 1.22E-11 1.10E-11 1.06E-11 2.22E-12 3.31E-11
   0.0000  0.3750  0.0000    1  1.25316E-11 kpt; spin; max resid(k); each band:
  1.18E-11 4.09E-12 7.98E-12 5.50E-12 1.33E-12 3.83E-12 4.96E-12 1.25E-11
   0.1250  0.2500  0.0000    1  1.92932E-11 kpt; spin; max resid(k); each band:
  1.13E-11 5.14E-12 7.42E-12 1.04E-11 1.08E-11 5.12E-12 1.67E-12 1.93E-11
   0.1250  0.5000  0.0000    1  7.25326E-12 kpt; spin; max resid(k); each band:
  6.34E-12 6.34E-12 3.68E-12 3.68E-12 6.51E-12 6.51E-12 7.25E-12 7.25E-12
   0.2500  0.3750  0.0000    1  1.27493E-11 kpt; spin; max resid(k); each band:
  1.12E-11 3.80E-12 8.06E-12 4.95E-12 1.12E-12 3.96E-12 5.54E-12 1.27E-11
   0.3750  0.5000  0.0000    1  5.73285E-12 kpt; spin; max resid(k); each band:
  4.59E-12 4.59E-12 2.64E-12 2.64E-12 3.37E-12 3.37E-12 5.73E-12 5.73E-12
 reduced coordinates (array xred) for    4 atoms
       0.000000000000      0.000000000000     -0.014359545833
      -0.500000000000      0.500000000000      0.161178312402
       0.000000000000      0.000000000000      0.338821687598
      -0.500000000000      0.500000000000      0.514359545833
 rms dE/dt=  9.9201E-04; max dE/dt=  2.4250E-03; dE/dt below (all hartree)
    1       0.000000000000      0.000000000000     -0.000155238953
    2       0.000000000000      0.000000000000      0.002424961652
    3       0.000000000000      0.000000000000     -0.002424961652
    4       0.000000000000      0.000000000000      0.000155238953

 cartesian coordinates (angstrom) at end:
    1      0.00000000000000     0.00000000000000    -0.17109920002236
    2      0.00000000000000     1.98589382064025     1.92049808772732
    3      0.00000000000000     0.00000000000000     4.03718337419344
    4      0.00000000000000     1.98589382064025     6.12878066194312

 cartesian forces (hartree/bohr) at end:
    1     -0.00000000000000    -0.00000000000000     0.00000689436960
    2     -0.00000000000000    -0.00000000000000    -0.00010769579123
    3     -0.00000000000000    -0.00000000000000     0.00010769579123
    4     -0.00000000000000    -0.00000000000000    -0.00000689436960
 frms,max,avg= 4.4056622E-05 1.0769579E-04   0.000E+00  0.000E+00  0.000E+00 h/b

 cartesian forces (eV/Angstrom) at end:
    1     -0.00000000000000    -0.00000000000000     0.00035452270921
    2     -0.00000000000000    -0.00000000000000    -0.00553793978220
    3     -0.00000000000000    -0.00000000000000     0.00553793978220
    4     -0.00000000000000    -0.00000000000000    -0.00035452270921
 frms,max,avg= 2.2654824E-03 5.5379398E-03   0.000E+00  0.000E+00  0.000E+00 e/A
 length scales=  7.505590900000  7.505590900000  7.505590900000 bohr
              =  3.971787641281  3.971787641281  3.971787641281 angstroms
 prteigrs : about to open file tbase4_7o_DS2_EIG
 Fermi (or HOMO) energy (hartree) =   0.14399   Average Vxc (hartree)=  -0.28811
 Eigenvalues (hartree) for nkpt=   6  k points:
 kpt#   1, nband=  8, wtk=  0.12500, kpt=  0.0000  0.1250  0.0000 (reduced coord)
  -0.23708  -0.18962  -0.11490  -0.01295   0.06589   0.20863   0.25164   0.25947
      occupation numbers for kpt#   1
   2.00000   2.00000   2.00000   2.00000   2.04184   0.00463   0.00059   0.00025
 kpt#   2, nband=  8, wtk=  0.12500, kpt=  0.0000  0.3750  0.0000 (reduced coord)
  -0.15212  -0.10527  -0.03141   0.01379   0.05933   0.06931   0.13240   0.14558
      occupation numbers for kpt#   2
   2.00000   2.00000   2.00000   2.00012   2.02512   2.05306   1.34663   0.77458
 kpt#   3, nband=  8, wtk=  0.25000, kpt=  0.1250  0.2500  0.0000 (reduced coord)
  -0.19441  -0.14727  -0.07297   0.02857   0.10599   0.13303   0.17782   0.24160
      occupation numbers for kpt#   3
   2.00000   2.00000   2.00000   2.00095   2.09013   1.31987   0.03177   0.00149
 kpt#   4, nband=  8, wtk=  0.12500, kpt=  0.1250  0.5000  0.0000 (reduced coord)
  -0.06860  -0.06860  -0.02218  -0.02218   0.05040   0.05040   0.15008   0.15008
      occupation numbers for kpt#   4
   2.00000   2.00000   2.00000   2.00000   2.01123   2.01123   0.59747   0.59747
 kpt#   5, nband=  8, wtk=  0.25000, kpt=  0.2500  0.3750  0.0000 (reduced coord)
  -0.11017  -0.06365   0.00976   0.05265   0.09768   0.10979   0.16976   0.18548
      occupation numbers for kpt#   5
   2.00000   2.00000   2.00007   2.01391   2.13933   2.04096   0.10437   0.00527
 kpt#   6, nband=  8, wtk=  0.12500, kpt=  0.3750  0.5000  0.0000 (reduced coord)
   0.01209   0.01209   0.05751   0.05751   0.12899   0.12899   0.18343   0.18343
      occupation numbers for kpt#   6
   2.00009   2.00009   2.02153   2.02153   1.48861   1.48861   0.00954   0.00954
 Total charge density [el/Bohr^3]
,     Maximum=    3.3869E-02  at reduced coord.    0.5000    0.8333    0.5000
,Next maximum=    3.3869E-02  at reduced coord.    0.8333    0.5000    0.5000
,     Minimum=    6.1662E-04  at reduced coord.    0.0000    0.0000    0.7400
,Next minimum=    6.1662E-04  at reduced coord.    0.5000    0.5000    0.7600
,  Integrated=    1.2000E+01

--------------------------------------------------------------------------------
 Components of total free energy (in Hartree) :

    Kinetic energy  =  3.20897162630119E+00
    Hartree energy  =  4.59832302139211E+00
    XC energy       = -3.09493818096033E+00
    Ewald energy    = -4.72597244870103E+00
    PspCore energy  =  1.03159553001933E-01
    Loc. psp. energy= -1.02558683603460E+01
    NL   psp  energy=  1.81153141041057E+00
    >>>>> Internal E= -8.35479337890154E+00

    -kT*entropy     = -1.76593977339741E-03
    >>>>>>>>> Etotal= -8.35655931867494E+00

 Other information on the energy :
    Total energy(eV)= -2.27393543369324E+02 ; Band energy (Ha)=  -7.0158073497E-02
--------------------------------------------------------------------------------
 rms coord change=  6.2759E-03   atom, delta coord (reduced):
     1        0.000000000000      0.000000000000     -0.014359545833
     2        0.000000000000      0.000000000000     -0.005488354264
     3        0.000000000000      0.000000000000      0.005488354264
     4        0.000000000000      0.000000000000      0.014359545833

 Cartesian components of stress tensor (hartree/bohr^3)
  sigma(1 1)=  1.87446238E-04  sigma(3 2)=  0.00000000E+00
  sigma(2 2)=  1.87446238E-04  sigma(3 1)=  0.00000000E+00
  sigma(3 3)=  6.10071616E-05  sigma(2 1)=  0.00000000E+00

-Cartesian components of stress tensor (GPa)         [Pressure= -4.2749E+00 GPa]
- sigma(1 1)=  5.51485779E+00  sigma(3 2)=  0.00000000E+00
- sigma(2 2)=  5.51485779E+00  sigma(3 1)=  0.00000000E+00
- sigma(3 3)=  1.79489236E+00  sigma(2 1)=  0.00000000E+00

================================================================================
== DATASET  3 ==================================================================
-   nproc =    1

 Exchange-correlation functional for the present dataset will be:
  LDA: new Teter (4/93) with spin-polarized option - ixc=1
 Citation for XC functional:
  S. Goedecker, M. Teter, J. Huetter, PRB 54, 1703 (1996)

 Real(R)+Recip(G) space primitive vectors, cartesian coordinates (Bohr,Bohr^-1):
 R(1)=  3.7527955 -3.7527954  0.0000000  G(1)=  0.1332340 -0.1332340  0.0000000
 R(2)=  3.7527955  3.7527955  0.0000000  G(2)=  0.1332340  0.1332340  0.0000000
 R(3)=  0.0000000  0.0000000 26.2695682  G(3)=  0.0000000  0.0000000  0.0380669
 Unit cell volume ucvol=  7.3993354E+02 bohr^3
 Angles (23,13,12)=  9.00000000E+01  9.00000000E+01  9.00000000E+01 degrees

 getcut: wavevector=  0.0000  0.0000  0.0000  ngfft=  12  12  60
         ecut(hartree)=      6.000   => boxcut(ratio)=   2.05055
   1.02229304E+02                                ecore*ucvol(ha*bohr**3)
--------------------------------------------------------------------------------

P newkpt: treating     11 bands with npw=     498 for ikpt=   1 by node    0
P newkpt: treating     11 bands with npw=     522 for ikpt=   2 by node    0
P newkpt: treating     11 bands with npw=     510 for ikpt=   3 by node    0
P newkpt: treating     11 bands with npw=     532 for ikpt=   4 by node    0
P newkpt: treating     11 bands with npw=     528 for ikpt=   5 by node    0
P newkpt: treating     11 bands with npw=     532 for ikpt=   6 by node    0

_setup2: Arith. and geom. avg. npw (full set) are     520.000     519.866

================================================================================

=== [ionmov= 3] Broyden-Fletcher-Goldfard-Shanno method (forces,Tot energy) 
================================================================================

--- Iteration: ( 1/10) Internal Cycle: (1/1)
--------------------------------------------------------------------------------

---SELF-CONSISTENT-FIELD CONVERGENCE--------------------------------------------

     iter   Etot(hartree)      deltaE(h)  residm     vres2    diffor    maxfor
 ETOT  1  -10.295100462867    -1.030E+01 4.841E-03 7.837E+02 1.762E-02 1.762E-02
 ETOT  2  -10.444136279117    -1.490E-01 1.548E-04 5.098E+01 2.025E-02 2.629E-03
 ETOT  3  -10.453607336433    -9.471E-03 9.495E-05 8.319E-02 1.506E-03 2.212E-03
 ETOT  4  -10.453641087743    -3.375E-05 3.316E-05 5.620E-03 7.070E-05 2.282E-03
 ETOT  5  -10.453642168613    -1.081E-06 5.800E-06 3.121E-05 1.597E-05 2.266E-03
 ETOT  6  -10.453642176455    -7.842E-09 1.227E-05 7.002E-08 1.869E-06 2.265E-03

 At SCF step    6, forces are converged : 
  for the second time, max diff in force=  1.869E-06 < toldff=  5.000E-05

 Cartesian components of stress tensor (hartree/bohr^3)
  sigma(1 1)=  1.19363082E-04  sigma(3 2)=  0.00000000E+00
  sigma(2 2)=  1.19363082E-04  sigma(3 1)=  0.00000000E+00
  sigma(3 3)= -4.44156755E-05  sigma(2 1)=  0.00000000E+00


---OUTPUT-----------------------------------------------------------------------

 Cartesian coordinates (xcart) [bohr]
  0.00000000000000E+00  0.00000000000000E+00  0.00000000000000E+00
  0.00000000000000E+00  3.75279545000000E+00  3.75279545000000E+00
  0.00000000000000E+00  0.00000000000000E+00  7.50559090000000E+00
  0.00000000000000E+00  3.75279545000000E+00  1.12583863500000E+01
  0.00000000000000E+00  0.00000000000000E+00  1.50111818000000E+01
 Reduced coordinates (xred)
  0.00000000000000E+00  0.00000000000000E+00  0.00000000000000E+00
 -5.00000000000000E-01  5.00000000000000E-01  1.42857142857143E-01
  0.00000000000000E+00  0.00000000000000E+00  2.85714285714286E-01
 -5.00000000000000E-01  5.00000000000000E-01  4.28571428571429E-01
  0.00000000000000E+00  0.00000000000000E+00  5.71428571428571E-01
 Cartesian forces (fcart) [Ha/bohr]; max,rms= 2.26454E-03 9.14735E-04 (free atoms)
 -0.00000000000000E+00 -0.00000000000000E+00 -2.26454488229012E-03
 -0.00000000000000E+00 -0.00000000000000E+00 -1.07116489611481E-03
 -0.00000000000000E+00 -0.00000000000000E+00 -0.00000000000000E+00
 -0.00000000000000E+00 -0.00000000000000E+00  1.07116489611481E-03
 -0.00000000000000E+00 -0.00000000000000E+00  2.26454488229012E-03
 Reduced forces (fred)
  0.00000000000000E+00  0.00000000000000E+00  5.94886161140542E-02
  0.00000000000000E+00  0.00000000000000E+00  2.81390392383756E-02
  0.00000000000000E+00  0.00000000000000E+00  0.00000000000000E+00
  0.00000000000000E+00  0.00000000000000E+00 -2.81390392383756E-02
  0.00000000000000E+00  0.00000000000000E+00 -5.94886161140542E-02
 Total energy (etotal) [Ha]= -1.04536421764547E+01

--- Iteration: ( 2/10) Internal Cycle: (1/1)
--------------------------------------------------------------------------------

---SELF-CONSISTENT-FIELD CONVERGENCE--------------------------------------------

     iter   Etot(hartree)      deltaE(h)  residm     vres2    diffor    maxfor
 ETOT  1  -10.453653690513    -1.045E+01 4.440E-06 3.923E-03 4.327E-05 2.221E-03
 ETOT  2  -10.453654627328    -9.368E-07 1.414E-06 8.226E-05 2.054E-05 2.226E-03
 ETOT  3  -10.453654643681    -1.635E-08 1.670E-07 6.047E-07 2.255E-06 2.227E-03

 At SCF step    3, forces are converged : 
  for the second time, max diff in force=  2.255E-06 < toldff=  5.000E-05

 Cartesian components of stress tensor (hartree/bohr^3)
  sigma(1 1)=  1.19687828E-04  sigma(3 2)=  0.00000000E+00
  sigma(2 2)=  1.19687828E-04  sigma(3 1)=  0.00000000E+00
  sigma(3 3)= -4.36881499E-05  sigma(2 1)=  0.00000000E+00


---OUTPUT-----------------------------------------------------------------------

 Cartesian coordinates (xcart) [bohr]
  0.00000000000000E+00  0.00000000000000E+00 -2.26454488229012E-03
  0.00000000000000E+00  3.75279545000000E+00  3.75172428510388E+00
  0.00000000000000E+00  0.00000000000000E+00  7.50559090000000E+00
  0.00000000000000E+00  3.75279545000000E+00  1.12594575148961E+01
  0.00000000000000E+00  0.00000000000000E+00  1.50134463448823E+01
 Reduced coordinates (xred)
  0.00000000000000E+00  0.00000000000000E+00 -8.62041153230806E-05
 -5.00000000000000E-01  5.00000000000000E-01  1.42816366971906E-01
  0.00000000000000E+00  0.00000000000000E+00  2.85714285714286E-01
 -5.00000000000000E-01  5.00000000000000E-01  4.28612204456666E-01
  0.00000000000000E+00  0.00000000000000E+00  5.71514775543895E-01
 Cartesian forces (fcart) [Ha/bohr]; max,rms= 2.22723E-03 9.02650E-04 (free atoms)
 -0.00000000000000E+00 -0.00000000000000E+00 -2.22723049033714E-03
 -0.00000000000000E+00 -0.00000000000000E+00 -1.07251027740069E-03
 -0.00000000000000E+00 -0.00000000000000E+00 -0.00000000000000E+00
 -0.00000000000000E+00 -0.00000000000000E+00  1.07251027740069E-03
 -0.00000000000000E+00 -0.00000000000000E+00  2.22723049033714E-03
 Reduced forces (fred)
  0.00000000000000E+00  0.00000000000000E+00  5.85083831516695E-02
  0.00000000000000E+00  0.00000000000000E+00  2.81743818237530E-02
  0.00000000000000E+00  0.00000000000000E+00  0.00000000000000E+00
  0.00000000000000E+00  0.00000000000000E+00 -2.81743818237530E-02
  0.00000000000000E+00  0.00000000000000E+00 -5.85083831516695E-02
 Total energy (etotal) [Ha]= -1.04536546436814E+01

 Difference of energy with previous step (new-old):
           Absolute (Ha)=-1.24672E-05
           Relative     =-1.19262E-06

--- Iteration: ( 3/10) Internal Cycle: (1/1)
--------------------------------------------------------------------------------

---SELF-CONSISTENT-FIELD CONVERGENCE--------------------------------------------

     iter   Etot(hartree)      deltaE(h)  residm     vres2    diffor    maxfor
 ETOT  1  -10.451265980671    -1.045E+01 7.791E-05 1.211E+01 3.794E-03 2.042E-03
 ETOT  2  -10.454051725688    -2.786E-03 1.565E-05 3.873E-01 1.001E-03 1.041E-03
 ETOT  3  -10.454128113121    -7.639E-05 2.960E-05 5.216E-03 1.288E-04 1.170E-03
 ETOT  4  -10.454129209132    -1.096E-06 4.211E-06 5.802E-06 9.360E-06 1.160E-03
 ETOT  5  -10.454129211104    -1.972E-09 6.982E-06 7.131E-08 5.114E-07 1.161E-03

 At SCF step    5, forces are converged : 
  for the second time, max diff in force=  5.114E-07 < toldff=  5.000E-05

 Cartesian components of stress tensor (hartree/bohr^3)
  sigma(1 1)=  1.47869639E-04  sigma(3 2)=  0.00000000E+00
  sigma(2 2)=  1.47869639E-04  sigma(3 1)=  0.00000000E+00
  sigma(3 3)=  2.23943816E-05  sigma(2 1)=  0.00000000E+00


---OUTPUT-----------------------------------------------------------------------

 Cartesian coordinates (xcart) [bohr]
  0.00000000000000E+00  0.00000000000000E+00 -2.12083523067195E-01
  0.00000000000000E+00  3.75279545000000E+00  3.65069817836452E+00
  0.00000000000000E+00  0.00000000000000E+00  7.50559090000000E+00
  0.00000000000000E+00  3.75279545000000E+00  1.13604836216355E+01
  0.00000000000000E+00  0.00000000000000E+00  1.52232653230672E+01
 Reduced coordinates (xred)
  0.00000000000000E+00  0.00000000000000E+00 -8.07335399867222E-03
 -5.00000000000000E-01  5.00000000000000E-01  1.38970620206580E-01
  0.00000000000000E+00  0.00000000000000E+00  2.85714285714286E-01
 -5.00000000000000E-01  5.00000000000000E-01  4.32457951221992E-01
  0.00000000000000E+00  0.00000000000000E+00  5.79501925427244E-01
 Cartesian forces (fcart) [Ha/bohr]; max,rms= 1.16067E-03 5.46660E-04 (free atoms)
 -0.00000000000000E+00 -0.00000000000000E+00  9.45577217325389E-04
 -0.00000000000000E+00 -0.00000000000000E+00 -1.16067499892511E-03
 -0.00000000000000E+00 -0.00000000000000E+00 -0.00000000000000E+00
 -0.00000000000000E+00 -0.00000000000000E+00  1.16067499892511E-03
 -0.00000000000000E+00 -0.00000000000000E+00 -9.45577217325389E-04
 Reduced forces (fred)
  0.00000000000000E+00  0.00000000000000E+00 -2.48399051516167E-02
  0.00000000000000E+00  0.00000000000000E+00  3.04904309842643E-02
  0.00000000000000E+00  0.00000000000000E+00  0.00000000000000E+00
  0.00000000000000E+00  0.00000000000000E+00 -3.04904309842643E-02
  0.00000000000000E+00  0.00000000000000E+00  2.48399051516167E-02
 Total energy (etotal) [Ha]= -1.04541292111039E+01

 Difference of energy with previous step (new-old):
           Absolute (Ha)=-4.74567E-04
           Relative     =-4.53962E-05

--- Iteration: ( 4/10) Internal Cycle: (1/1)
--------------------------------------------------------------------------------

---SELF-CONSISTENT-FIELD CONVERGENCE--------------------------------------------

     iter   Etot(hartree)      deltaE(h)  residm     vres2    diffor    maxfor
 ETOT  1  -10.454117479001    -1.045E+01 8.373E-08 4.245E-02 3.931E-04 1.175E-03
 ETOT  2  -10.454143111337    -2.563E-05 1.050E-08 1.390E-04 1.223E-04 1.053E-03
 ETOT  3  -10.454143259282    -1.479E-07 2.178E-08 2.195E-06 1.002E-05 1.063E-03
 ETOT  4  -10.454143261215    -1.933E-09 4.271E-10 2.121E-08 5.660E-07 1.063E-03

 At SCF step    4, forces are converged : 
  for the second time, max diff in force=  5.660E-07 < toldff=  5.000E-05

 Cartesian components of stress tensor (hartree/bohr^3)
  sigma(1 1)=  1.44366775E-04  sigma(3 2)=  0.00000000E+00
  sigma(2 2)=  1.44366775E-04  sigma(3 1)=  0.00000000E+00
  sigma(3 3)=  1.39414367E-05  sigma(2 1)=  0.00000000E+00


---OUTPUT-----------------------------------------------------------------------

 Cartesian coordinates (xcart) [bohr]
  0.00000000000000E+00  0.00000000000000E+00 -1.84007098254395E-01
  0.00000000000000E+00  3.75279545000000E+00  3.66282232193249E+00
  0.00000000000000E+00  0.00000000000000E+00  7.50559090000000E+00
  0.00000000000000E+00  3.75279545000000E+00  1.13483594780675E+01
  0.00000000000000E+00  0.00000000000000E+00  1.51951888982544E+01
 Reduced coordinates (xred)
  0.00000000000000E+00  0.00000000000000E+00 -7.00457263719409E-03
 -5.00000000000000E-01  5.00000000000000E-01  1.39432148294851E-01
  0.00000000000000E+00  0.00000000000000E+00  2.85714285714286E-01
 -5.00000000000000E-01  5.00000000000000E-01  4.31996423133721E-01
  0.00000000000000E+00  0.00000000000000E+00  5.78433144065766E-01
 Cartesian forces (fcart) [Ha/bohr]; max,rms= 1.06339E-03 4.31135E-04 (free atoms)
 -0.00000000000000E+00 -0.00000000000000E+00  5.13114234264904E-04
 -0.00000000000000E+00 -0.00000000000000E+00 -1.06338687211873E-03
 -0.00000000000000E+00 -0.00000000000000E+00 -0.00000000000000E+00
 -0.00000000000000E+00 -0.00000000000000E+00  1.06338687211873E-03
 -0.00000000000000E+00 -0.00000000000000E+00 -5.13114234264904E-04
 Reduced forces (fred)
  0.00000000000000E+00  0.00000000000000E+00 -1.34792893457570E-02
  0.00000000000000E+00  0.00000000000000E+00  2.79347139069383E-02
  0.00000000000000E+00  0.00000000000000E+00  0.00000000000000E+00
  0.00000000000000E+00  0.00000000000000E+00 -2.79347139069383E-02
  0.00000000000000E+00  0.00000000000000E+00  1.34792893457570E-02
 Total energy (etotal) [Ha]= -1.04541432612148E+01

 Difference of energy with previous step (new-old):
           Absolute (Ha)=-1.40501E-05
           Relative     =-1.34398E-06

--- Iteration: ( 5/10) Internal Cycle: (1/1)
--------------------------------------------------------------------------------

---SELF-CONSISTENT-FIELD CONVERGENCE--------------------------------------------

     iter   Etot(hartree)      deltaE(h)  residm     vres2    diffor    maxfor
 ETOT  1  -10.454145063109    -1.045E+01 2.978E-09 4.787E-03 9.235E-05 9.967E-04
 ETOT  2  -10.454146422440    -1.359E-06 5.262E-10 5.179E-05 2.504E-05 9.716E-04
 ETOT  3  -10.454146434652    -1.221E-08 7.962E-11 1.149E-06 1.427E-06 9.731E-04

 At SCF step    3, forces are converged : 
  for the second time, max diff in force=  1.427E-06 < toldff=  5.000E-05

 Cartesian components of stress tensor (hartree/bohr^3)
  sigma(1 1)=  1.43960679E-04  sigma(3 2)=  0.00000000E+00
  sigma(2 2)=  1.43960679E-04  sigma(3 1)=  0.00000000E+00
  sigma(3 3)=  1.29010561E-05  sigma(2 1)=  0.00000000E+00


---OUTPUT-----------------------------------------------------------------------

 Cartesian coordinates (xcart) [bohr]
  0.00000000000000E+00  0.00000000000000E+00 -1.80566970133057E-01
  0.00000000000000E+00  3.75279545000000E+00  3.66284108080211E+00
  0.00000000000000E+00  0.00000000000000E+00  7.50559090000000E+00
  0.00000000000000E+00  3.75279545000000E+00  1.13483407191979E+01
  0.00000000000000E+00  0.00000000000000E+00  1.51917487701331E+01
 Reduced coordinates (xred)
  0.00000000000000E+00  0.00000000000000E+00 -6.87361775808472E-03
 -5.00000000000000E-01  5.00000000000000E-01  1.39432862386134E-01
  0.00000000000000E+00  0.00000000000000E+00  2.85714285714286E-01
 -5.00000000000000E-01  5.00000000000000E-01  4.31995709042438E-01
  0.00000000000000E+00  0.00000000000000E+00  5.78302189186656E-01
 Cartesian forces (fcart) [Ha/bohr]; max,rms= 9.73059E-04 3.87043E-04 (free atoms)
 -0.00000000000000E+00 -0.00000000000000E+00  4.20322089737156E-04
 -0.00000000000000E+00 -0.00000000000000E+00 -9.73059236462536E-04
 -0.00000000000000E+00 -0.00000000000000E+00 -1.08420217248550E-20
 -0.00000000000000E+00 -0.00000000000000E+00  9.73059236462536E-04
 -0.00000000000000E+00 -0.00000000000000E+00 -4.20322089737156E-04
 Reduced forces (fred)
  0.00000000000000E+00  0.00000000000000E+00 -1.10416797813006E-02
  0.00000000000000E+00  0.00000000000000E+00  2.55618459262395E-02
  0.00000000000000E+00  0.00000000000000E+00  0.00000000000000E+00
  0.00000000000000E+00  0.00000000000000E+00 -2.55618459262395E-02
  0.00000000000000E+00  0.00000000000000E+00  1.10416797813006E-02
 Total energy (etotal) [Ha]= -1.04541464346522E+01

 Difference of energy with previous step (new-old):
           Absolute (Ha)=-3.17344E-06
           Relative     =-3.03558E-07

--- Iteration: ( 6/10) Internal Cycle: (1/1)
--------------------------------------------------------------------------------

---SELF-CONSISTENT-FIELD CONVERGENCE--------------------------------------------

     iter   Etot(hartree)      deltaE(h)  residm     vres2    diffor    maxfor
 ETOT  1  -10.454153413488    -1.045E+01 4.351E-08 9.108E-03 5.801E-04 3.929E-04
 ETOT  2  -10.454160368361    -6.955E-06 8.697E-10 9.350E-05 6.184E-05 3.311E-04
 ETOT  3  -10.454160415909    -4.755E-08 2.611E-09 1.715E-07 4.332E-06 3.335E-04
 ETOT  4  -10.454160416076    -1.665E-10 1.603E-10 3.279E-08 4.777E-07 3.330E-04

 At SCF step    4, forces are converged : 
  for the second time, max diff in force=  4.777E-07 < toldff=  5.000E-05

 Cartesian components of stress tensor (hartree/bohr^3)
  sigma(1 1)=  1.43275419E-04  sigma(3 2)=  0.00000000E+00
  sigma(2 2)=  1.43275419E-04  sigma(3 1)=  0.00000000E+00
  sigma(3 3)=  1.08601435E-05  sigma(2 1)=  0.00000000E+00


---OUTPUT-----------------------------------------------------------------------

 Cartesian coordinates (xcart) [bohr]
  0.00000000000000E+00  0.00000000000000E+00 -1.73831660743866E-01
  0.00000000000000E+00  3.75279545000000E+00  3.65434795277875E+00
  0.00000000000000E+00  0.00000000000000E+00  7.50559090000000E+00
  0.00000000000000E+00  3.75279545000000E+00  1.13568338472213E+01
  0.00000000000000E+00  0.00000000000000E+00  1.51850134607439E+01
 Reduced coordinates (xred)
  0.00000000000000E+00  0.00000000000000E+00 -6.61722567159390E-03
 -5.00000000000000E-01  5.00000000000000E-01  1.39109555661985E-01
  0.00000000000000E+00  0.00000000000000E+00  2.85714285714286E-01
[...]
  -0.14337  -0.11034  -0.05545   0.01565   0.02244   0.05486   0.10099   0.11158
   0.16828   0.18529   0.26051
      occupation numbers for kpt#   2
   2.00000   2.00000   2.00000   2.00000   2.00001   2.00132   2.08493   2.12858
   0.81615   0.24881   0.00215
 kpt#   3, nband= 11, wtk=  0.25000, kpt=  0.1250  0.2500  0.0000 (reduced coord)
  -0.18568  -0.15244  -0.09715  -0.02551   0.06267   0.13512   0.14181   0.17325
   0.22412   0.23646   0.29425
      occupation numbers for kpt#   3
   2.00000   2.00000   2.00000   2.00000   2.00336   2.01373   1.86287   0.61711
   0.00200   0.00519   0.00006
 kpt#   4, nband= 11, wtk=  0.12500, kpt=  0.1250  0.5000  0.0000 (reduced coord)
  -0.06051  -0.05910  -0.02998  -0.02437   0.02597   0.02817   0.09267   0.10198
   0.17363   0.19847   0.24205
      occupation numbers for kpt#   4
   2.00000   2.00000   2.00000   2.00000   2.00002   2.00003   2.05188   2.08927
   0.60295   0.05246   0.00511
 kpt#   5, nband= 11, wtk=  0.25000, kpt=  0.2500  0.3750  0.0000 (reduced coord)
  -0.10144  -0.06867  -0.01412   0.05645   0.06134   0.09339   0.14096   0.14955
   0.20755   0.22230   0.23279
      occupation numbers for kpt#   5
   2.00000   2.00000   2.00000   2.00161   2.00289   2.05443   1.88546   1.61078
   0.00851   0.00130   0.00472
 kpt#   6, nband= 11, wtk=  0.12500, kpt=  0.3750  0.5000  0.0000 (reduced coord)
   0.02020   0.02147   0.05014   0.05532   0.10398   0.10810   0.17143   0.17828
   0.19078   0.19349   0.21962
      occupation numbers for kpt#   6
   2.00001   2.00001   2.00072   2.00140   2.09806   2.11565   0.68764   0.44112
   0.14281   0.10398   0.00044
 Total charge density [el/Bohr^3]
,     Maximum=    3.4122E-02  at reduced coord.    0.0000    0.6667    0.0167
,Next maximum=    3.4122E-02  at reduced coord.    0.0000    0.3333    0.0167
,     Minimum=    2.6725E-04  at reduced coord.    0.5000    0.5000    0.7833
,Next minimum=    2.7417E-04  at reduced coord.    0.5000    0.4167    0.7833
,  Integrated=    1.5000E+01

--------------------------------------------------------------------------------
 Components of total free energy (in Hartree) :

    Kinetic energy  =  4.13425548043904E+00
    Hartree energy  =  7.16570948786823E+00
    XC energy       = -3.93006970223822E+00
    Ewald energy    = -4.77673961693565E+00
    PspCore energy  =  1.38160115627589E-01
    Loc. psp. energy= -1.54503021181659E+01
    NL   psp  energy=  2.26733561539231E+00
    >>>>> Internal E= -1.04516507380126E+01

    -kT*entropy     = -2.50967806297214E-03
    >>>>>>>>> Etotal= -1.04541604160756E+01

 Other information on the energy :
    Total energy(eV)= -2.84472172015850E+02 ; Band energy (Ha)=   1.6293496709E-01
--------------------------------------------------------------------------------
 rms coord change=  2.7769E-03   atom, delta coord (reduced):
     1        0.000000000000      0.000000000000     -0.006617225672
     2        0.000000000000      0.000000000000     -0.003747587195
     3        0.000000000000      0.000000000000     -0.000000000000
     4        0.000000000000      0.000000000000      0.003747587195
     5        0.000000000000      0.000000000000      0.006617225672

 Cartesian components of stress tensor (hartree/bohr^3)
  sigma(1 1)=  1.43275419E-04  sigma(3 2)=  0.00000000E+00
  sigma(2 2)=  1.43275419E-04  sigma(3 1)=  0.00000000E+00
  sigma(3 3)=  1.08601435E-05  sigma(2 1)=  0.00000000E+00

-Cartesian components of stress tensor (GPa)         [Pressure= -2.9167E+00 GPa]
- sigma(1 1)=  4.21530765E+00  sigma(3 2)=  0.00000000E+00
- sigma(2 2)=  4.21530765E+00  sigma(3 1)=  0.00000000E+00
- sigma(3 3)=  3.19516398E-01  sigma(2 1)=  0.00000000E+00

== END DATASET(S) ==============================================================
================================================================================
  
 -outvars: echo values of variables after computation  --------
            acell      7.5055909000E+00  7.5055909000E+00  7.5055909000E+00 Bohr
              amu      2.69815390E+01
      chksymbreak           0
             ecut      6.00000000E+00 Hartree
           etotal1    -6.2547008083E+00
           etotal2    -8.3565593187E+00
           etotal3    -1.0454160416E+01
            fcart1    -0.0000000000E+00 -0.0000000000E+00  1.1378483169E-05
                      -0.0000000000E+00 -0.0000000000E+00 -0.0000000000E+00
                      -0.0000000000E+00 -0.0000000000E+00 -1.1378483169E-05
            fcart2    -0.0000000000E+00 -0.0000000000E+00  6.8943695995E-06
                      -0.0000000000E+00 -0.0000000000E+00 -1.0769579123E-04
                      -0.0000000000E+00 -0.0000000000E+00  1.0769579123E-04
                      -0.0000000000E+00 -0.0000000000E+00 -6.8943695995E-06
            fcart3    -0.0000000000E+00 -0.0000000000E+00  7.0415912232E-06
                      -0.0000000000E+00 -0.0000000000E+00 -3.3298780780E-04
                      -0.0000000000E+00 -0.0000000000E+00  1.8634724840E-21
                      -0.0000000000E+00 -0.0000000000E+00  3.3298780780E-04
                      -0.0000000000E+00 -0.0000000000E+00 -7.0415912232E-06
-          fftalg         112
           ionmov           3
           iprcel          45
           jdtset        1    2    3
              kpt      0.00000000E+00  1.25000000E-01  0.00000000E+00
                       0.00000000E+00  3.75000000E-01  0.00000000E+00
                       1.25000000E-01  2.50000000E-01  0.00000000E+00
                       1.25000000E-01  5.00000000E-01  0.00000000E+00
                       2.50000000E-01  3.75000000E-01  0.00000000E+00
                       3.75000000E-01  5.00000000E-01  0.00000000E+00
         kptrlatt        4   -4    0      4    4    0      0    0    1
          kptrlen      3.00223636E+01
P           mkmem           6
            natom1          3
            natom2          4
            natom3          5
            nband1          7
            nband2          8
            nband3         11
           ndtset           3
            ngfft1         12      12      45
            ngfft2         12      12      50
            ngfft3         12      12      60
             nkpt           6
            nstep          10
             nsym          16
            ntime          10
           ntypat           1
              occ1     2.000000  2.000000  2.000000  2.132304  0.002697  0.000184
                       0.000000
                       2.000000  2.000000  2.000612  2.016576  2.121217  0.105126
                       0.005198
                       2.000000  2.000000  2.000117  1.502366  0.842571  0.004830
                       0.001243
                       2.000000  2.000000  2.000299  2.000480  1.685249  0.582282
                       0.002977
                       2.000000  2.000000  2.036183  2.141801  1.003490  0.004610
                       0.002450
                       2.000365  2.000642  2.130230  2.128789  0.000485  0.001758
                       0.003205
              occ2     2.000000  2.000000  2.000000  2.000001  2.041842  0.004626
                       0.000588  0.000251
                       2.000000  2.000000  2.000000  2.000122  2.025125  2.053058
                       1.346626  0.774576
                       2.000000  2.000000  2.000000  2.000951  2.090133  1.319866
                       0.031774  0.001485
                       2.000000  2.000000  2.000000  2.000000  2.011228  2.011228
                       0.597469  0.597469
                       2.000000  2.000000  2.000066  2.013914  2.139330  2.040956
                       0.104373  0.005267
                       2.000095  2.000095  2.021526  2.021526  1.488614  1.488614
                       0.009545  0.009545
              occ3     2.000000  2.000000  2.000000  2.000000  2.000009  2.062376
                       0.111714  0.002185  0.000129  0.000000  0.000000
                       2.000000  2.000000  2.000000  2.000003  2.000011  2.001322
                       2.084929  2.128583  0.816151  0.248815  0.002148
                       2.000000  2.000000  2.000000  2.000000  2.003363  2.013733
                       1.862872  0.617109  0.001995  0.005188  0.000063
                       2.000000  2.000000  2.000000  2.000000  2.000020  2.000029
                       2.051884  2.089271  0.602954  0.052455  0.005115
                       2.000000  2.000000  2.000000  2.001610  2.002886  2.054434
                       1.885460  1.610783  0.008511  0.001300  0.004719
                       2.000008  2.000009  2.000721  2.001400  2.098061  2.115648
                       0.687644  0.441125  0.142811  0.103981  0.000436
           occopt           4
        optforces           1
            rprim1     5.0000000000E-01 -5.0000000000E-01  0.0000000000E+00
                       5.0000000000E-01  5.0000000000E-01  0.0000000000E+00
                       0.0000000000E+00  0.0000000000E+00  2.5000000000E+00
            rprim2     5.0000000000E-01 -5.0000000000E-01  0.0000000000E+00
                       5.0000000000E-01  5.0000000000E-01  0.0000000000E+00
                       0.0000000000E+00  0.0000000000E+00  3.0000000000E+00
            rprim3     5.0000000000E-01 -5.0000000000E-01  0.0000000000E+00
                       5.0000000000E-01  5.0000000000E-01  0.0000000000E+00
                       0.0000000000E+00  0.0000000000E+00  3.5000000000E+00
           shiftk     -5.00000000E-01  5.00000000E-01  0.00000000E+00
          spgroup1        123
          spgroup2        129
          spgroup3        123
           strten1     1.7259828255E-04  1.7259828255E-04  1.9900161624E-06
                       0.0000000000E+00  0.0000000000E+00  0.0000000000E+00
           strten2     1.8744623801E-04  1.8744623801E-04  6.1007161614E-05
                       0.0000000000E+00  0.0000000000E+00  0.0000000000E+00
           strten3     1.4327541908E-04  1.4327541908E-04  1.0860143458E-05
                       0.0000000000E+00  0.0000000000E+00  0.0000000000E+00
           symrel      1  0  0   0  1  0   0  0  1      -1  0  0   0 -1  0   0  0 -1
                      -1  0  0   0  1  0   0  0 -1       1  0  0   0 -1  0   0  0  1
                      -1  0  0   0 -1  0   0  0  1       1  0  0   0  1  0   0  0 -1
                       1  0  0   0 -1  0   0  0 -1      -1  0  0   0  1  0   0  0  1
                       0  1  0   1  0  0   0  0  1       0 -1  0  -1  0  0   0  0 -1
                       0 -1  0   1  0  0   0  0 -1       0  1  0  -1  0  0   0  0  1
                       0 -1  0  -1  0  0   0  0  1       0  1  0   1  0  0   0  0 -1
                       0  1  0  -1  0  0   0  0 -1       0 -1  0   1  0  0   0  0  1
            tnons1     0.0000000  0.0000000  0.0000000     0.0000000  0.0000000  0.4000000
                       0.0000000  0.0000000  0.4000000     0.0000000  0.0000000  0.0000000
                       0.0000000  0.0000000  0.0000000     0.0000000  0.0000000  0.4000000
                       0.0000000  0.0000000  0.4000000     0.0000000  0.0000000  0.0000000
                       0.0000000  0.0000000  0.0000000     0.0000000  0.0000000  0.4000000
                       0.0000000  0.0000000  0.4000000     0.0000000  0.0000000  0.0000000
                       0.0000000  0.0000000  0.0000000     0.0000000  0.0000000  0.4000000
                       0.0000000  0.0000000  0.4000000     0.0000000  0.0000000  0.0000000
            tnons2     0.0000000  0.0000000  0.0000000     0.5000000  0.5000000  0.5000000
                       0.5000000  0.5000000  0.5000000     0.0000000  0.0000000  0.0000000
                       0.0000000  0.0000000  0.0000000     0.5000000  0.5000000  0.5000000
                       0.5000000  0.5000000  0.5000000     0.0000000  0.0000000  0.0000000
                       0.0000000  0.0000000  0.0000000     0.5000000  0.5000000  0.5000000
                       0.5000000  0.5000000  0.5000000     0.0000000  0.0000000  0.0000000
                       0.0000000  0.0000000  0.0000000     0.5000000  0.5000000  0.5000000
                       0.5000000  0.5000000  0.5000000     0.0000000  0.0000000  0.0000000
            tnons3     0.0000000  0.0000000  0.0000000     0.0000000  0.0000000 -0.4285714
                       0.0000000  0.0000000 -0.4285714     0.0000000  0.0000000  0.0000000
                       0.0000000  0.0000000  0.0000000     0.0000000  0.0000000 -0.4285714
                       0.0000000  0.0000000 -0.4285714     0.0000000  0.0000000  0.0000000
                       0.0000000  0.0000000  0.0000000     0.0000000  0.0000000 -0.4285714
                       0.0000000  0.0000000 -0.4285714     0.0000000  0.0000000  0.0000000
                       0.0000000  0.0000000  0.0000000     0.0000000  0.0000000 -0.4285714
                       0.0000000  0.0000000 -0.4285714     0.0000000  0.0000000  0.0000000
           toldff      5.00000000E-05
           tolmxf      5.00000000E-04
            typat1     1  1  1
            typat2     1  1  1  1
            typat3     1  1  1  1  1
              wtk        0.12500    0.12500    0.25000    0.12500    0.25000    0.12500
           xangst1     0.0000000000E+00  0.0000000000E+00 -9.3703148450E-02
                       0.0000000000E+00  1.9858938206E+00  1.9858938206E+00
                       0.0000000000E+00  0.0000000000E+00  4.0654907897E+00
           xangst2     0.0000000000E+00  0.0000000000E+00 -1.7109920002E-01
                       0.0000000000E+00  1.9858938206E+00  1.9204980877E+00
                       0.0000000000E+00  0.0000000000E+00  4.0371833742E+00
                       0.0000000000E+00  1.9858938206E+00  6.1287806619E+00
           xangst3     0.0000000000E+00  0.0000000000E+00 -9.1987752997E-02
                       0.0000000000E+00  1.9858938206E+00  1.9337976489E+00
                       0.0000000000E+00  0.0000000000E+00  3.9717876413E+00
                       0.0000000000E+00  1.9858938206E+00  6.0097776337E+00
                       0.0000000000E+00  0.0000000000E+00  8.0355630356E+00
            xcart1     0.0000000000E+00  0.0000000000E+00 -1.7707328836E-01
                       0.0000000000E+00  3.7527954500E+00  3.7527954500E+00
                       0.0000000000E+00  0.0000000000E+00  7.6826641884E+00
            xcart2     0.0000000000E+00  0.0000000000E+00 -3.2333062960E-01
                       0.0000000000E+00  3.7527954500E+00  3.6292154245E+00
                       0.0000000000E+00  0.0000000000E+00  7.6291709255E+00
                       0.0000000000E+00  3.7527954500E+00  1.1581716980E+01
            xcart3     0.0000000000E+00  0.0000000000E+00 -1.7383166074E-01
                       0.0000000000E+00  3.7527954500E+00  3.6543479528E+00
                       0.0000000000E+00  0.0000000000E+00  7.5055909000E+00
                       0.0000000000E+00  3.7527954500E+00  1.1356833847E+01
                       0.0000000000E+00  0.0000000000E+00  1.5185013461E+01
             xred1     0.0000000000E+00  0.0000000000E+00 -9.4368739634E-03
                      -5.0000000000E-01  5.0000000000E-01  2.0000000000E-01
                       0.0000000000E+00  0.0000000000E+00  4.0943687396E-01
             xred2     0.0000000000E+00  0.0000000000E+00 -1.4359545833E-02
                      -5.0000000000E-01  5.0000000000E-01  1.6117831240E-01
                       0.0000000000E+00  0.0000000000E+00  3.3882168760E-01
                      -5.0000000000E-01  5.0000000000E-01  5.1435954583E-01
             xred3     0.0000000000E+00  0.0000000000E+00 -6.6172256716E-03
                      -5.0000000000E-01  5.0000000000E-01  1.3910955566E-01
                       0.0000000000E+00  0.0000000000E+00  2.8571428571E-01
                      -5.0000000000E-01  5.0000000000E-01  4.3231901577E-01
                       0.0000000000E+00  0.0000000000E+00  5.7804579710E-01
            znucl       13.00000

================================================================================


- Timing analysis has been suppressed with timopt=0



================================================================================

 Suggested references for the acknowledgment of ABINIT usage.

 The users of ABINIT have little formal obligations with respect to the ABINIT group
 (those specified in the GNU General Public License, http://www.gnu.org/copyleft/gpl.txt).
 However, it is common practice in the scientific literature,
 to acknowledge the efforts of people that have made the research possible.
 In this spirit, please find below suggested citations of work written by ABINIT developers,
 corresponding to implementations inside of ABINIT that you have used in the present run.
 Note also that it will be of great value to readers of publications presenting these results,
 to read papers enabling them to understand the theoretical formalism and details
 of the ABINIT implementation.
 For information on why they are suggested, see also http://www.abinit.org/about/?text=acknowledgments.

 [1] Preconditioning of self-consistent-field cycles in density functional theory : the extrapolar method
 P.-M. Anglade, X. Gonze, Phys. Rev. B 78, 045126 (2008).
 Comment : to be cited in case the extrapolar conditioner is used, i.e. non-vanishing iprcel.

 [2] Ab initio pseudopotentials for electronic structure calculations of poly-atomic systems, 
 using density-functional theory.
 M. Fuchs, M. Scheffler, Comput. Phys. Commun. 119, 67 (1999).
 Comment : Some pseudopotential generated using the FHI code were used.

 [3] ABINIT : First-principles approach of materials and nanosystem properties.
 X. Gonze, B. Amadon, P.-M. Anglade, J.-M. Beuken, F. Bottin, P. Boulanger, F. Bruneval,
 D. Caliste, R. Caracas, M. Cote, T. Deutsch, L. Genovese, Ph. Ghosez, M. Giantomassi
 S. Goedecker, D.R. Hamann, P. Hermet, F. Jollet, G. Jomard, S. Leroux, M. Mancini, S. Mazevet,
 M.J.T. Oliveira, G. Onida, Y. Pouillon, T. Rangel, G.-M. Rignanese, D. Sangalli, R. Shaltaf,
 M. Torrent, M.J. Verstraete, G. Zerah, J.W. Zwanziger
 Computer Phys. Comm. 180, 2582-2615 (2009).
 Comment : the third generic paper describing the ABINIT project.
 Note that a version of this paper, that is not formatted for Computer Phys. Comm. 
 is available at http://www.abinit.org/about/ABINIT_CPC_v10.pdf .
 The licence allows the authors to put it on the Web.

 [4] A brief introduction to the ABINIT software package.
 X. Gonze, G.-M. Rignanese, M. Verstraete, J.-M. Beuken, Y. Pouillon, R. Caracas, F. Jollet,
 M. Torrent, G. Zerah, M. Mikami, Ph. Ghosez, M. Veithen, J.-Y. Raty, V. Olevano, F. Bruneval,
 L. Reining, R. Godby, G. Onida, D.R. Hamann, and D.C. Allan.
 Z. Kristallogr. 220, 558-562 (2005).
 Comment : the second generic paper describing the ABINIT project. Note that this paper
 should be cited especially if you are using the GW part of ABINIT, as several authors
 of this part are not in the list of authors of the first or third paper.
 The .pdf of the latter paper is available at http://www.abinit.org/about/zfk_0505-06_558-562.pdf.
 Note that it should not redistributed (Copyright by Oldenburg Wissenshaftverlag,
 the licence allows the authors to put it on the Web).


 And optionally :

 [5] First-principles computation of material properties : the ABINIT software project. 
 X. Gonze, J.-M. Beuken, R. Caracas, F. Detraux, M. Fuchs, G.-M. Rignanese, L. Sindic,
 M. Verstraete, G. Zerah, F. Jollet, M. Torrent, A. Roy, M. Mikami, Ph. Ghosez, J.-Y. Raty, D.C. Allan.
 Computational Materials Science 25, 478-492 (2002). http://dx.doi.org/10.1016/S0927-0256(02)00325-7
 Comment : the original paper describing the ABINIT project.
-
- Proc.   0 individual time (sec): cpu=         12.7  wall=         12.7

================================================================================

 Calculation completed.
.Delivered    1 WARNINGs and   0 COMMENTs to log file.
+Overall time at end (sec) : cpu=         12.7  wall=         12.7
