
.Version 7.10.4 of ABINIT 
.(MPI version, prepared for a x86_64_linux_gnu4.7 computer) 

.Copyright (C) 1998-2014 ABINIT group . 
 ABINIT comes with ABSOLUTELY NO WARRANTY.
 It is free software, and you are welcome to redistribute it
 under certain conditions (GNU General Public License,
 see ~abinit/COPYING or http://www.gnu.org/copyleft/gpl.txt).

 ABINIT is a project of the Universite Catholique de Louvain,
 Corning Inc. and other collaborators, see ~abinit/doc/developers/contributors.txt .
 Please read ~abinit/doc/users/acknowledgments.html for suggested
 acknowledgments of the ABINIT effort.
 For more information, see http://www.abinit.org .

.Starting date : Wed 11 Mar 2015.
- ( at 10h23 )
  
- input  file    -> tbs_3.in
- output file    -> tbs_3.out
- root for input  files -> tbs_3i
- root for output files -> tbs_3o


 DATASET    1 : space group Fd -3 m (#227); Bravais cF (face-center cubic)
================================================================================
 Values of the parameters that define the memory need for DATASET  1.
   intxc =         0  ionmov =         0    iscf =         7 xclevel =         1
  lmnmax =         2   lnmax =         2   mband =         6  mffmem =         1
P  mgfft =        18   mkmem =        64 mpssoang=         3     mpw =       278
  mqgrid =      3001   natom =         2    nfft =      5832    nkpt =        64
  nloalg =         4  nspden =         1 nspinor =         1  nsppol =         1
    nsym =        48  n1xccc =      2501  ntypat =         1  occopt =         1
================================================================================
P This job should need less than                       4.141 Mbytes of memory.
  Rough estimation (10% accuracy) of disk space for files :
_ WF disk file :      1.631 Mbytes ; DEN or POT disk file :      0.046 Mbytes.
================================================================================


 DATASET    2 : space group Fd -3 m (#227); Bravais cF (face-center cubic)
================================================================================
 Values of the parameters that define the memory need for DATASET  2.
   intxc =         0  ionmov =         0    iscf =         7 xclevel =         1
  lmnmax =         2   lnmax =         2   mband =         7  mffmem =         1
P  mgfft =        18   mkmem =        64 mpssoang=         3     mpw =       278
  mqgrid =      3001   natom =         2    nfft =      5832    nkpt =        64
  nloalg =         4  nspden =         1 nspinor =         1  nsppol =         1
    nsym =        48  n1xccc =      2501  ntypat =         1  occopt =         1
================================================================================
P This job should need less than                       4.422 Mbytes of memory.
  Rough estimation (10% accuracy) of disk space for files :
_ WF disk file :      1.902 Mbytes ; DEN or POT disk file :      0.046 Mbytes.
================================================================================

--------------------------------------------------------------------------------
------------- Echo of variables that govern the present computation ------------
--------------------------------------------------------------------------------
-
- outvars: echo of selected default values                                      
-   accesswff0 =  0 , fftalg0 =112 , wfoptalg0 =  0
-
- outvars: echo of global parameters not present in the input file              
-  max_nthreads =    0
-
 -outvars: echo values of preprocessed input variables --------
            acell      1.0217000000E+01  1.0217000000E+01  1.0217000000E+01 Bohr
              amu      2.80855000E+01
     bs_algorithm           2
  bs_coulomb_term          10
      bs_coupling           0
     bs_freq_mesh      0.00000000E+00  2.20495952E-01  7.34986508E-04 Hartree
   bs_haydock_tol      5.00000000E-02  0.00000000E+00
        bs_loband1          3
        bs_loband2          2
      chksymbreak           0
           diemac      1.20000000E+01
             ecut      7.56385066E+00 Hartree
          ecuteps      1.51277013E+00 Hartree
          ecutwfn      7.56385066E+00 Hartree
-          fftalg         112
         icutcoul           3
          inclvkb           2
           irdkss           1
           irdscr           1
           jdtset        1    2
              kpt      2.75000000E-02  5.25000000E-02  7.75000000E-02
                       2.77500000E-01  5.25000000E-02  7.75000000E-02
                      -4.72500000E-01  5.25000000E-02  7.75000000E-02
                      -2.22500000E-01  5.25000000E-02  7.75000000E-02
                       2.75000000E-02  3.02500000E-01  7.75000000E-02
                       2.77500000E-01  3.02500000E-01  7.75000000E-02
                      -4.72500000E-01  3.02500000E-01  7.75000000E-02
                      -2.22500000E-01  3.02500000E-01  7.75000000E-02
                       2.75000000E-02 -4.47500000E-01  7.75000000E-02
                       2.77500000E-01 -4.47500000E-01  7.75000000E-02
                      -4.72500000E-01 -4.47500000E-01  7.75000000E-02
                      -2.22500000E-01 -4.47500000E-01  7.75000000E-02
                       2.75000000E-02 -1.97500000E-01  7.75000000E-02
                       2.77500000E-01 -1.97500000E-01  7.75000000E-02
                      -4.72500000E-01 -1.97500000E-01  7.75000000E-02
                      -2.22500000E-01 -1.97500000E-01  7.75000000E-02
                       2.75000000E-02  5.25000000E-02  3.27500000E-01
                       2.77500000E-01  5.25000000E-02  3.27500000E-01
                      -4.72500000E-01  5.25000000E-02  3.27500000E-01
                      -2.22500000E-01  5.25000000E-02  3.27500000E-01
                       2.75000000E-02  3.02500000E-01  3.27500000E-01
                       2.77500000E-01  3.02500000E-01  3.27500000E-01
                      -4.72500000E-01  3.02500000E-01  3.27500000E-01
                      -2.22500000E-01  3.02500000E-01  3.27500000E-01
                       2.75000000E-02 -4.47500000E-01  3.27500000E-01
                       2.77500000E-01 -4.47500000E-01  3.27500000E-01
                      -4.72500000E-01 -4.47500000E-01  3.27500000E-01
                      -2.22500000E-01 -4.47500000E-01  3.27500000E-01
                       2.75000000E-02 -1.97500000E-01  3.27500000E-01
                       2.77500000E-01 -1.97500000E-01  3.27500000E-01
                      -4.72500000E-01 -1.97500000E-01  3.27500000E-01
                      -2.22500000E-01 -1.97500000E-01  3.27500000E-01
                       2.75000000E-02  5.25000000E-02 -4.22500000E-01
                       2.77500000E-01  5.25000000E-02 -4.22500000E-01
                      -4.72500000E-01  5.25000000E-02 -4.22500000E-01
                      -2.22500000E-01  5.25000000E-02 -4.22500000E-01
                       2.75000000E-02  3.02500000E-01 -4.22500000E-01
                       2.77500000E-01  3.02500000E-01 -4.22500000E-01
                      -4.72500000E-01  3.02500000E-01 -4.22500000E-01
                      -2.22500000E-01  3.02500000E-01 -4.22500000E-01
                       2.75000000E-02 -4.47500000E-01 -4.22500000E-01
                       2.77500000E-01 -4.47500000E-01 -4.22500000E-01
                      -4.72500000E-01 -4.47500000E-01 -4.22500000E-01
                      -2.22500000E-01 -4.47500000E-01 -4.22500000E-01
                       2.75000000E-02 -1.97500000E-01 -4.22500000E-01
                       2.77500000E-01 -1.97500000E-01 -4.22500000E-01
                      -4.72500000E-01 -1.97500000E-01 -4.22500000E-01
                      -2.22500000E-01 -1.97500000E-01 -4.22500000E-01
                       2.75000000E-02  5.25000000E-02 -1.72500000E-01
                       2.77500000E-01  5.25000000E-02 -1.72500000E-01
                       outvar_i_n : Printing only first  50 k-points.
         kptrlatt        4    0    0      0    4    0      0    0    4
          kptrlen      2.88980399E+01
P           mkmem          64
            natom           2
            nband1          6
            nband2          7
           ndtset           2
            ngfft          18      18      18
             nkpt          64
           npweps          27
           npwwfn         283
           nsheps           4
            nstep          50
             nsym          48
           ntypat           1
              occ1     2.000000  2.000000  2.000000  2.000000  0.000000  0.000000
              occ2     2.000000  2.000000  2.000000  2.000000  0.000000  0.000000
                       0.000000
        optdriver          99
            rprim      0.0000000000E+00  5.0000000000E-01  5.0000000000E-01
                       5.0000000000E-01  0.0000000000E+00  5.0000000000E-01
                       5.0000000000E-01  5.0000000000E-01  0.0000000000E+00
           shiftk      1.10000000E-01  2.10000000E-01  3.10000000E-01
         soenergy      2.93994603E-02 Hartree
          spgroup         227
           symrel      1  0  0   0  1  0   0  0  1      -1  0  0   0 -1  0   0  0 -1
                       0 -1  1   0 -1  0   1 -1  0       0  1 -1   0  1  0  -1  1  0
                      -1  0  0  -1  0  1  -1  1  0       1  0  0   1  0 -1   1 -1  0
                       0  1 -1   1  0 -1   0  0 -1       0 -1  1  -1  0  1   0  0  1
                      -1  0  0  -1  1  0  -1  0  1       1  0  0   1 -1  0   1  0 -1
                       0 -1  1   1 -1  0   0 -1  0       0  1 -1  -1  1  0   0  1  0
                       1  0  0   0  0  1   0  1  0      -1  0  0   0  0 -1   0 -1  0
                       0  1 -1   0  0 -1   1  0 -1       0 -1  1   0  0  1  -1  0  1
                      -1  0  1  -1  1  0  -1  0  0       1  0 -1   1 -1  0   1  0  0
                       0 -1  0   1 -1  0   0 -1  1       0  1  0  -1  1  0   0  1 -1
                       1  0 -1   0  0 -1   0  1 -1      -1  0  1   0  0  1   0 -1  1
                       0  1  0   0  0  1   1  0  0       0 -1  0   0  0 -1  -1  0  0
                       1  0 -1   0  1 -1   0  0 -1      -1  0  1   0 -1  1   0  0  1
                       0 -1  0   0 -1  1   1 -1  0       0  1  0   0  1 -1  -1  1  0
                      -1  0  1  -1  0  0  -1  1  0       1  0 -1   1  0  0   1 -1  0
                       0  1  0   1  0  0   0  0  1       0 -1  0  -1  0  0   0  0 -1
                       0  0 -1   0  1 -1   1  0 -1       0  0  1   0 -1  1  -1  0  1
                       1 -1  0   0 -1  1   0 -1  0      -1  1  0   0  1 -1   0  1  0
                       0  0  1   1  0  0   0  1  0       0  0 -1  -1  0  0   0 -1  0
                      -1  1  0  -1  0  0  -1  0  1       1 -1  0   1  0  0   1  0 -1
                       0  0  1   0  1  0   1  0  0       0  0 -1   0 -1  0  -1  0  0
                       1 -1  0   0 -1  0   0 -1  1      -1  1  0   0  1  0   0  1 -1
                       0  0 -1   1  0 -1   0  1 -1       0  0  1  -1  0  1   0 -1  1
                      -1  1  0  -1  0  1  -1  0  0       1 -1  0   1  0 -1   1  0  0
            tnons      0.0000000  0.0000000  0.0000000     0.2500000  0.2500000  0.2500000
                       0.0000000  0.0000000  0.0000000     0.2500000  0.2500000  0.2500000
                       0.0000000  0.0000000  0.0000000     0.2500000  0.2500000  0.2500000
                       0.0000000  0.0000000  0.0000000     0.2500000  0.2500000  0.2500000
                       0.0000000  0.0000000  0.0000000     0.2500000  0.2500000  0.2500000
                       0.0000000  0.0000000  0.0000000     0.2500000  0.2500000  0.2500000
                       0.0000000  0.0000000  0.0000000     0.2500000  0.2500000  0.2500000
                       0.0000000  0.0000000  0.0000000     0.2500000  0.2500000  0.2500000
                       0.0000000  0.0000000  0.0000000     0.2500000  0.2500000  0.2500000
                       0.0000000  0.0000000  0.0000000     0.2500000  0.2500000  0.2500000
                       0.0000000  0.0000000  0.0000000     0.2500000  0.2500000  0.2500000
                       0.0000000  0.0000000  0.0000000     0.2500000  0.2500000  0.2500000
                       0.0000000  0.0000000  0.0000000     0.2500000  0.2500000  0.2500000
                       0.0000000  0.0000000  0.0000000     0.2500000  0.2500000  0.2500000
                       0.0000000  0.0000000  0.0000000     0.2500000  0.2500000  0.2500000
                       0.0000000  0.0000000  0.0000000     0.2500000  0.2500000  0.2500000
                       0.0000000  0.0000000  0.0000000     0.2500000  0.2500000  0.2500000
                       0.0000000  0.0000000  0.0000000     0.2500000  0.2500000  0.2500000
                       0.0000000  0.0000000  0.0000000     0.2500000  0.2500000  0.2500000
                       0.0000000  0.0000000  0.0000000     0.2500000  0.2500000  0.2500000
                       0.0000000  0.0000000  0.0000000     0.2500000  0.2500000  0.2500000
                       0.0000000  0.0000000  0.0000000     0.2500000  0.2500000  0.2500000
                       0.0000000  0.0000000  0.0000000     0.2500000  0.2500000  0.2500000
                       0.0000000  0.0000000  0.0000000     0.2500000  0.2500000  0.2500000
            typat      1  1
              wtk        0.01563    0.01563    0.01563    0.01563    0.01563    0.01563
                         0.01563    0.01563    0.01563    0.01563    0.01563    0.01563
                         0.01563    0.01563    0.01563    0.01563    0.01563    0.01563
                         0.01563    0.01563    0.01563    0.01563    0.01563    0.01563
                         0.01563    0.01563    0.01563    0.01563    0.01563    0.01563
                         0.01563    0.01563    0.01563    0.01563    0.01563    0.01563
                         0.01563    0.01563    0.01563    0.01563    0.01563    0.01563
                         0.01563    0.01563    0.01563    0.01563    0.01563    0.01563
                         0.01563    0.01563
                       outvars : Printing only first  50 k-points.
           xangst      0.0000000000E+00  0.0000000000E+00  0.0000000000E+00
                       1.3516508850E+00  1.3516508850E+00  1.3516508850E+00
            xcart      0.0000000000E+00  0.0000000000E+00  0.0000000000E+00
                       2.5542500000E+00  2.5542500000E+00  2.5542500000E+00
             xred      0.0000000000E+00  0.0000000000E+00  0.0000000000E+00
                       2.5000000000E-01  2.5000000000E-01  2.5000000000E-01
             zcut      5.51239881E-03 Hartree
            znucl       14.00000

================================================================================

 chkinp: Checking input parameters for consistency, jdtset=   1.

 chkinp: Checking input parameters for consistency, jdtset=   2.

================================================================================
== DATASET  1 ==================================================================
-   nproc =    1

 Exchange-correlation functional for the present dataset will be:
  LDA: new Teter (4/93) with spin-polarized option - ixc=1
 Citation for XC functional:
  S. Goedecker, M. Teter, J. Huetter, PRB 54, 1703 (1996)

 Exciton: Calculation of dielectric properties by solving the Bethe-Salpeter equation 
 in frequency domain and reciprocal space on a transitions basis set. 
 Based on a program developed by L. Reining, V. Olevano, F. Sottile, 
 S. Albrecht, and G. Onida. Incorporated in ABINIT by M. Giantomassi. 

.Using double precision arithmetic ; gwpc =  8

 Real(R)+Recip(G) space primitive vectors, cartesian coordinates (Bohr,Bohr^-1):
 R(1)=  0.0000000  5.1085000  5.1085000  G(1)= -0.0978761  0.0978761  0.0978761
 R(2)=  5.1085000  0.0000000  5.1085000  G(2)=  0.0978761 -0.0978761  0.0978761
 R(3)=  5.1085000  5.1085000  0.0000000  G(3)=  0.0978761  0.0978761 -0.0978761
 Unit cell volume ucvol=  2.6663072E+02 bohr^3
 Angles (23,13,12)=  6.00000000E+01  6.00000000E+01  6.00000000E+01 degrees

--- Pseudopotential description ------------------------------------------------
- pspini: atom type   1  psp file is /home/gonze/ABINIT/ABINITv7.10.4/trunk/7.10.4-private/tests/Psps_for_tests/14si.pspnc
- pspatm: opening atomic psp file    /home/gonze/ABINIT/ABINITv7.10.4/trunk/7.10.4-private/tests/Psps_for_tests/14si.pspnc
-  Troullier-Martins psp for element  Si        Thu Oct 27 17:31:21 EDT 1994
- 14.00000   4.00000    940714                znucl, zion, pspdat
    1    1    2    2      2001   0.00000      pspcod,pspxc,lmax,lloc,mmax,r2well
    0   5.907  14.692    1   2.0872718        l,e99.0,e99.9,nproj,rcpsp
   0.00000000   0.00000000   0.00000000   0.00000000     rms, ekb1, ekb2, epsatm
    1   2.617   4.181    1   2.0872718        l,e99.0,e99.9,nproj,rcpsp
   0.00000000   0.00000000   0.00000000   0.00000000     rms, ekb1, ekb2, epsatm
    2   0.000   0.000    0   2.0872718        l,e99.0,e99.9,nproj,rcpsp
   0.00000000   0.00000000   0.00000000   0.00000000     rms, ekb1, ekb2, epsatm
    1.80626423934776    0.22824404341771    1.17378968127746   rchrg,fchrg,qchrg
 pspatm: epsatm=    1.43386982
         --- l  ekb(1:nproj) -->
             0    3.287949
             1    1.849886
 pspatm: atomic psp has been read  and splines computed

   2.29419171E+01                                ecore*ucvol(ha*bohr**3)
--------------------------------------------------------------------------------

 ==== K-mesh for the wavefunctions ====
 Number of points in the irreducible wedge :    64
 Reduced coordinates and weights : 

     1)     2.75000000E-02  5.25000000E-02  7.75000000E-02       0.01563
     2)     2.77500000E-01  5.25000000E-02  7.75000000E-02       0.01563
     3)    -4.72500000E-01  5.25000000E-02  7.75000000E-02       0.01563
     4)    -2.22500000E-01  5.25000000E-02  7.75000000E-02       0.01563
     5)     2.75000000E-02  3.02500000E-01  7.75000000E-02       0.01563
     6)     2.77500000E-01  3.02500000E-01  7.75000000E-02       0.01563
     7)    -4.72500000E-01  3.02500000E-01  7.75000000E-02       0.01563
     8)    -2.22500000E-01  3.02500000E-01  7.75000000E-02       0.01563
     9)     2.75000000E-02 -4.47500000E-01  7.75000000E-02       0.01563
    10)     2.77500000E-01 -4.47500000E-01  7.75000000E-02       0.01563
    11)    -4.72500000E-01 -4.47500000E-01  7.75000000E-02       0.01563
    12)    -2.22500000E-01 -4.47500000E-01  7.75000000E-02       0.01563
    13)     2.75000000E-02 -1.97500000E-01  7.75000000E-02       0.01563
    14)     2.77500000E-01 -1.97500000E-01  7.75000000E-02       0.01563
    15)    -4.72500000E-01 -1.97500000E-01  7.75000000E-02       0.01563
    16)    -2.22500000E-01 -1.97500000E-01  7.75000000E-02       0.01563
    17)     2.75000000E-02  5.25000000E-02  3.27500000E-01       0.01563
    18)     2.77500000E-01  5.25000000E-02  3.27500000E-01       0.01563
    19)    -4.72500000E-01  5.25000000E-02  3.27500000E-01       0.01563
    20)    -2.22500000E-01  5.25000000E-02  3.27500000E-01       0.01563
    21)     2.75000000E-02  3.02500000E-01  3.27500000E-01       0.01563
    22)     2.77500000E-01  3.02500000E-01  3.27500000E-01       0.01563
    23)    -4.72500000E-01  3.02500000E-01  3.27500000E-01       0.01563
    24)    -2.22500000E-01  3.02500000E-01  3.27500000E-01       0.01563
    25)     2.75000000E-02 -4.47500000E-01  3.27500000E-01       0.01563
    26)     2.77500000E-01 -4.47500000E-01  3.27500000E-01       0.01563
    27)    -4.72500000E-01 -4.47500000E-01  3.27500000E-01       0.01563
    28)    -2.22500000E-01 -4.47500000E-01  3.27500000E-01       0.01563
    29)     2.75000000E-02 -1.97500000E-01  3.27500000E-01       0.01563
    30)     2.77500000E-01 -1.97500000E-01  3.27500000E-01       0.01563
    31)    -4.72500000E-01 -1.97500000E-01  3.27500000E-01       0.01563
    32)    -2.22500000E-01 -1.97500000E-01  3.27500000E-01       0.01563
    33)     2.75000000E-02  5.25000000E-02 -4.22500000E-01       0.01563
    34)     2.77500000E-01  5.25000000E-02 -4.22500000E-01       0.01563
    35)    -4.72500000E-01  5.25000000E-02 -4.22500000E-01       0.01563
    36)    -2.22500000E-01  5.25000000E-02 -4.22500000E-01       0.01563
    37)     2.75000000E-02  3.02500000E-01 -4.22500000E-01       0.01563
    38)     2.77500000E-01  3.02500000E-01 -4.22500000E-01       0.01563
    39)    -4.72500000E-01  3.02500000E-01 -4.22500000E-01       0.01563
    40)    -2.22500000E-01  3.02500000E-01 -4.22500000E-01       0.01563
    41)     2.75000000E-02 -4.47500000E-01 -4.22500000E-01       0.01563
    42)     2.77500000E-01 -4.47500000E-01 -4.22500000E-01       0.01563
    43)    -4.72500000E-01 -4.47500000E-01 -4.22500000E-01       0.01563
    44)    -2.22500000E-01 -4.47500000E-01 -4.22500000E-01       0.01563
    45)     2.75000000E-02 -1.97500000E-01 -4.22500000E-01       0.01563
    46)     2.77500000E-01 -1.97500000E-01 -4.22500000E-01       0.01563
    47)    -4.72500000E-01 -1.97500000E-01 -4.22500000E-01       0.01563
    48)    -2.22500000E-01 -1.97500000E-01 -4.22500000E-01       0.01563
    49)     2.75000000E-02  5.25000000E-02 -1.72500000E-01       0.01563
    50)     2.77500000E-01  5.25000000E-02 -1.72500000E-01       0.01563
    51)    -4.72500000E-01  5.25000000E-02 -1.72500000E-01       0.01563
    52)    -2.22500000E-01  5.25000000E-02 -1.72500000E-01       0.01563
    53)     2.75000000E-02  3.02500000E-01 -1.72500000E-01       0.01563
    54)     2.77500000E-01  3.02500000E-01 -1.72500000E-01       0.01563
    55)    -4.72500000E-01  3.02500000E-01 -1.72500000E-01       0.01563
    56)    -2.22500000E-01  3.02500000E-01 -1.72500000E-01       0.01563
    57)     2.75000000E-02 -4.47500000E-01 -1.72500000E-01       0.01563
    58)     2.77500000E-01 -4.47500000E-01 -1.72500000E-01       0.01563
    59)    -4.72500000E-01 -4.47500000E-01 -1.72500000E-01       0.01563
    60)    -2.22500000E-01 -4.47500000E-01 -1.72500000E-01       0.01563
    61)     2.75000000E-02 -1.97500000E-01 -1.72500000E-01       0.01563
    62)     2.77500000E-01 -1.97500000E-01 -1.72500000E-01       0.01563
    63)    -4.72500000E-01 -1.97500000E-01 -1.72500000E-01       0.01563
    64)    -2.22500000E-01 -1.97500000E-01 -1.72500000E-01       0.01563

 Together with 48 symmetry operations and time-reversal symmetry 
 yields    64 points in the full Brillouin Zone.


 ==== Q-mesh for the screening function ====
 Number of points in the irreducible wedge :     8
 Reduced coordinates and weights : 

     1)     0.00000000E+00  0.00000000E+00  0.00000000E+00       0.01563
     2)     2.50000000E-01  0.00000000E+00  0.00000000E+00       0.12500
     3)     5.00000000E-01  0.00000000E+00  0.00000000E+00       0.06250
     4)     2.50000000E-01  2.50000000E-01  0.00000000E+00       0.09375
     5)     5.00000000E-01  2.50000000E-01  0.00000000E+00       0.37500
     6)    -2.50000000E-01  2.50000000E-01  0.00000000E+00       0.18750
     7)     5.00000000E-01  5.00000000E-01  0.00000000E+00       0.04688
     8)    -2.50000000E-01  5.00000000E-01  2.50000000E-01       0.09375

 Together with 48 symmetry operations and time-reversal symmetry 
 yields    64 points in the full Brillouin Zone.


 setmesh: FFT mesh size selected  =  20x 20x 20
          total number of points  =     8000

 ==== Fundamental parameters for the solution of the Bethe-Salpeter equation: ====
 Algorithm: Haydock technique.
 Dimension of the v, W matrices,  npweps  = 27
 Cutoff for the wavefunctions,    npwwfn  = 259
 Number of k-points in the IBZ,   nkibz   = 64
 Highest empty band included,     nband   = 6
 === Spin UP ===
 Number of resonant transitions          256
 Lowest occupied state                   3
 Highest occupied state                  4
 Lowest unoccupied state                 5
 Highest unoccupied state                6
 Minimum frequency [eV]           Emin    =   0.00
 Maximum frequency [eV]           Emax    =   6.00
 Frequency step [eV]              dE      =   0.02
 Lorentzian broadening [eV]       eta     =   0.15
 RPA L0 with KS energies and KS wavefunctions
 Scissors operator energy [eV] =          0.80
 Local fields effects (v term) included
 Excitonic effects (W term) included
 Only diagonal term W_GG included
 W is read from an external SCR file
 Resonant-only calculation (Hermitian case)


 Calculating epsilon_Macro(q-->0,w), along the following directions:
 q = (  0.938821  0.000000  0.000000) [r.l.u.]
 q = (  0.000000  0.938821  0.000000) [r.l.u.]
 q = (  0.000000  0.000000  0.938821) [r.l.u.]
 q = (  0.000000  0.813043  0.813043) [r.l.u.]
 q = (  0.813043  0.000000  0.813043) [r.l.u.]
 q = (  0.813043  0.813043  0.000000) [r.l.u.]

 k       eigenvalues [eV]
  1         -6.08   5.46   5.71   5.88   8.42   8.69
  2         -5.37   2.26   4.60   5.37   8.33   9.17
  3         -3.71  -1.08   4.26   4.64   7.81   9.17
  4         -5.17   1.69   4.66   5.07   8.21   9.17
  5         -5.16   1.66   4.64   5.08   8.20   9.17
  6         -4.98   2.16   3.85   4.09   7.29   9.17
  7         -3.36  -0.37   2.26   3.41   7.72   9.89
  8         -3.81   0.17   1.98   4.16   8.65  10.07
  9         -3.72  -1.08   4.27   4.64   7.81   9.17
 10         -3.27  -0.63   2.26   3.56   7.92  10.45
 11         -1.95  -1.87   2.71   3.04   6.63   7.04
 12         -3.39  -0.35   2.28   3.42   7.73   9.90
 13         -5.38   2.29   4.62   5.37   8.33   9.16
 14         -4.19   0.64   2.31   4.41   8.92   9.63
 15         -3.30  -0.61   2.28   3.58   7.93  10.43
 16         -5.00   2.20   3.87   4.12   7.30   9.21
 17         -4.96   1.08   4.71   5.08   7.92   9.30
 18         -4.76   1.81   3.63   3.90   7.10   8.76
 19         -3.14  -0.54   2.15   3.34   7.28   9.27
 20         -3.65  -0.09   1.90   4.19   8.27  10.48
 21         -4.54   1.46   3.61   3.67   6.76   8.28
 22         -4.95   1.05   4.73   5.07   7.90   9.30
 23         -3.83  -0.06   2.24   4.44   8.24  10.36
 24         -2.84  -0.88   1.89   3.43   7.10   9.59
 25         -2.83  -0.88   1.89   3.43   7.12   9.64
 26         -3.63  -0.11   1.88   4.20   8.24  10.53
 27         -3.27  -0.86   2.45   3.94   7.72  10.60
 28         -2.31  -1.23   1.78   2.40   9.77   9.84
 29         -3.84  -0.04   2.25   4.44   8.26  10.31
 30         -3.15  -0.53   2.16   3.34   7.25   9.22
 31         -2.08  -1.47   1.96   2.22   9.24   9.35
 32         -3.29  -0.86   2.48   3.95   7.74  10.56
 33         -3.87  -0.91   4.52   4.71   7.63   9.21
 34         -3.06  -0.86   2.05   3.66   7.67  10.85
 35         -2.31  -1.50   2.89   2.93   6.71   6.88
 36         -3.74   0.06   2.60   3.59   7.53   9.58
 37         -2.84  -0.94   1.79   3.60   7.31  10.64
 38         -3.46  -0.24   1.66   4.17   7.93  11.25
 39         -3.06  -0.87   2.06   3.68   7.66  10.87
 40         -2.30  -1.25   1.70   2.49   9.62  10.10
 41         -2.70  -1.10   3.03   3.05   6.48   6.84
 42         -2.85  -0.95   1.79   3.61   7.31  10.69
 43         -3.88  -0.90   4.54   4.72   7.62   9.22
 44         -3.97   0.16   2.94   3.83   7.60  10.17
 45         -3.96   0.14   2.93   3.83   7.62  10.21
 46         -2.29  -1.26   1.70   2.49   9.58  10.14
 47         -3.75   0.07   2.61   3.59   7.50   9.54
 48         -4.61   1.19   2.68   4.95   8.74   9.87
 49         -5.59   2.91   5.04   5.45   8.27   9.06
 50         -4.39   0.81   2.57   4.69   8.79   9.66
 51         -3.51  -0.61   2.70   3.88   7.91  10.17
 52         -5.21   2.67   4.02   4.39   7.42   9.52
 53         -4.21   0.38   2.61   4.69   8.50   9.94
 54         -3.50  -0.13   2.46   3.45   7.12   8.90
 55         -1.95  -1.60   1.85   2.33   8.88   9.71
 56         -3.51  -0.62   2.71   3.90   7.90  10.17
 57         -3.82  -0.27   3.03   3.98   7.81  10.31
 58         -2.18  -1.36   1.68   2.50   9.06  10.56
 59         -3.53  -0.10   2.48   3.46   7.13   8.91
 60         -4.41   0.84   2.59   4.72   8.78   9.67
 61         -5.43   3.26   4.38   4.50   7.40   9.79
 62         -3.81  -0.29   3.04   3.99   7.81  10.30
 63         -4.23   0.41   2.62   4.71   8.50   9.95
 64         -5.60   2.94   5.06   5.46   8.26   9.06
 Number of electrons calculated from density =    7.9999; Expected =    8.0000
 average of density, n =  0.030004
 r_s =    1.9964
 omega_plasma =   16.7087 [eV]

. Writing resonant excitonic Hamiltonian on file tbs_3o_DS1_BSR; file size=   0.00 [Gb].
 Writing KS-RPA macroscopic dielectric function without local fields to file: tbs_3o_DS1_RPA_NLF_MDF
 Writing GW-RPA macroscopic dielectric function without local fields to file: tbs_3o_DS1_GW_NLF_MDF
 >>> Haydock algorithm converged twice within haydock_tol=   5.00E-02 after 31 iterations.
 >>> Haydock algorithm converged twice within haydock_tol=   5.00E-02 after 36 iterations.
 >>> Haydock algorithm converged twice within haydock_tol=   5.00E-02 after 30 iterations.
 >>> Haydock algorithm converged twice within haydock_tol=   5.00E-02 after 35 iterations.
 >>> Haydock algorithm converged twice within haydock_tol=   5.00E-02 after 24 iterations.
 >>> Haydock algorithm converged twice within haydock_tol=   5.00E-02 after 30 iterations.
 Writing EXC Macroscopic dielectric function to file: tbs_3o_DS1_EXC_MDF
  
 Macroscopic dielectric function:
 omega [eV] <KS_RPA_nlf>  <GW_RPA_nlf>  <BSE> 
   0.0000  15.8484   0.0000  13.1060   0.0000  14.5279   0.0000
   0.0200  15.8489   0.0075  13.1062   0.0039  14.5283   0.0055
   0.0400  15.8504   0.0149  13.1070   0.0079  14.5293   0.0110
   0.0600  15.8528   0.0224  13.1083   0.0118  14.5312   0.0166
   0.0800  15.8563   0.0299  13.1101   0.0157  14.5337   0.0221
   0.1000  15.8608   0.0374  13.1125   0.0197  14.5370   0.0276
   0.1200  15.8662   0.0449  13.1154   0.0236  14.5411   0.0332
   0.1400  15.8726   0.0525  13.1188   0.0276  14.5458   0.0387
   0.1600  15.8801   0.0600  13.1227   0.0316  14.5513   0.0443
   0.1800  15.8885   0.0676  13.1271   0.0355  14.5576   0.0499
  

================================================================================
== DATASET  2 ==================================================================
-   nproc =    1

 Exchange-correlation functional for the present dataset will be:
  LDA: new Teter (4/93) with spin-polarized option - ixc=1
 Citation for XC functional:
  S. Goedecker, M. Teter, J. Huetter, PRB 54, 1703 (1996)

 Exciton: Calculation of dielectric properties by solving the Bethe-Salpeter equation 
 in frequency domain and reciprocal space on a transitions basis set. 
 Based on a program developed by L. Reining, V. Olevano, F. Sottile, 
 S. Albrecht, and G. Onida. Incorporated in ABINIT by M. Giantomassi. 

.Using double precision arithmetic ; gwpc =  8

 Real(R)+Recip(G) space primitive vectors, cartesian coordinates (Bohr,Bohr^-1):
 R(1)=  0.0000000  5.1085000  5.1085000  G(1)= -0.0978761  0.0978761  0.0978761
 R(2)=  5.1085000  0.0000000  5.1085000  G(2)=  0.0978761 -0.0978761  0.0978761
 R(3)=  5.1085000  5.1085000  0.0000000  G(3)=  0.0978761  0.0978761 -0.0978761
 Unit cell volume ucvol=  2.6663072E+02 bohr^3
 Angles (23,13,12)=  6.00000000E+01  6.00000000E+01  6.00000000E+01 degrees
--------------------------------------------------------------------------------

 ==== K-mesh for the wavefunctions ====
 Number of points in the irreducible wedge :    64
 Reduced coordinates and weights : 

     1)     2.75000000E-02  5.25000000E-02  7.75000000E-02       0.01563
     2)     2.77500000E-01  5.25000000E-02  7.75000000E-02       0.01563
     3)    -4.72500000E-01  5.25000000E-02  7.75000000E-02       0.01563
     4)    -2.22500000E-01  5.25000000E-02  7.75000000E-02       0.01563
     5)     2.75000000E-02  3.02500000E-01  7.75000000E-02       0.01563
     6)     2.77500000E-01  3.02500000E-01  7.75000000E-02       0.01563
     7)    -4.72500000E-01  3.02500000E-01  7.75000000E-02       0.01563
     8)    -2.22500000E-01  3.02500000E-01  7.75000000E-02       0.01563
     9)     2.75000000E-02 -4.47500000E-01  7.75000000E-02       0.01563
    10)     2.77500000E-01 -4.47500000E-01  7.75000000E-02       0.01563
    11)    -4.72500000E-01 -4.47500000E-01  7.75000000E-02       0.01563
    12)    -2.22500000E-01 -4.47500000E-01  7.75000000E-02       0.01563
    13)     2.75000000E-02 -1.97500000E-01  7.75000000E-02       0.01563
    14)     2.77500000E-01 -1.97500000E-01  7.75000000E-02       0.01563
    15)    -4.72500000E-01 -1.97500000E-01  7.75000000E-02       0.01563
    16)    -2.22500000E-01 -1.97500000E-01  7.75000000E-02       0.01563
    17)     2.75000000E-02  5.25000000E-02  3.27500000E-01       0.01563
    18)     2.77500000E-01  5.25000000E-02  3.27500000E-01       0.01563
    19)    -4.72500000E-01  5.25000000E-02  3.27500000E-01       0.01563
    20)    -2.22500000E-01  5.25000000E-02  3.27500000E-01       0.01563
    21)     2.75000000E-02  3.02500000E-01  3.27500000E-01       0.01563
    22)     2.77500000E-01  3.02500000E-01  3.27500000E-01       0.01563
    23)    -4.72500000E-01  3.02500000E-01  3.27500000E-01       0.01563
    24)    -2.22500000E-01  3.02500000E-01  3.27500000E-01       0.01563
    25)     2.75000000E-02 -4.47500000E-01  3.27500000E-01       0.01563
    26)     2.77500000E-01 -4.47500000E-01  3.27500000E-01       0.01563
    27)    -4.72500000E-01 -4.47500000E-01  3.27500000E-01       0.01563
    28)    -2.22500000E-01 -4.47500000E-01  3.27500000E-01       0.01563
    29)     2.75000000E-02 -1.97500000E-01  3.27500000E-01       0.01563
    30)     2.77500000E-01 -1.97500000E-01  3.27500000E-01       0.01563
    31)    -4.72500000E-01 -1.97500000E-01  3.27500000E-01       0.01563
    32)    -2.22500000E-01 -1.97500000E-01  3.27500000E-01       0.01563
    33)     2.75000000E-02  5.25000000E-02 -4.22500000E-01       0.01563
    34)     2.77500000E-01  5.25000000E-02 -4.22500000E-01       0.01563
    35)    -4.72500000E-01  5.25000000E-02 -4.22500000E-01       0.01563
    36)    -2.22500000E-01  5.25000000E-02 -4.22500000E-01       0.01563
    37)     2.75000000E-02  3.02500000E-01 -4.22500000E-01       0.01563
    38)     2.77500000E-01  3.02500000E-01 -4.22500000E-01       0.01563
    39)    -4.72500000E-01  3.02500000E-01 -4.22500000E-01       0.01563
    40)    -2.22500000E-01  3.02500000E-01 -4.22500000E-01       0.01563
    41)     2.75000000E-02 -4.47500000E-01 -4.22500000E-01       0.01563
    42)     2.77500000E-01 -4.47500000E-01 -4.22500000E-01       0.01563
    43)    -4.72500000E-01 -4.47500000E-01 -4.22500000E-01       0.01563
    44)    -2.22500000E-01 -4.47500000E-01 -4.22500000E-01       0.01563
    45)     2.75000000E-02 -1.97500000E-01 -4.22500000E-01       0.01563
    46)     2.77500000E-01 -1.97500000E-01 -4.22500000E-01       0.01563
    47)    -4.72500000E-01 -1.97500000E-01 -4.22500000E-01       0.01563
    48)    -2.22500000E-01 -1.97500000E-01 -4.22500000E-01       0.01563
    49)     2.75000000E-02  5.25000000E-02 -1.72500000E-01       0.01563
    50)     2.77500000E-01  5.25000000E-02 -1.72500000E-01       0.01563
    51)    -4.72500000E-01  5.25000000E-02 -1.72500000E-01       0.01563
    52)    -2.22500000E-01  5.25000000E-02 -1.72500000E-01       0.01563
    53)     2.75000000E-02  3.02500000E-01 -1.72500000E-01       0.01563
    54)     2.77500000E-01  3.02500000E-01 -1.72500000E-01       0.01563
    55)    -4.72500000E-01  3.02500000E-01 -1.72500000E-01       0.01563
    56)    -2.22500000E-01  3.02500000E-01 -1.72500000E-01       0.01563
    57)     2.75000000E-02 -4.47500000E-01 -1.72500000E-01       0.01563
    58)     2.77500000E-01 -4.47500000E-01 -1.72500000E-01       0.01563
    59)    -4.72500000E-01 -4.47500000E-01 -1.72500000E-01       0.01563
    60)    -2.22500000E-01 -4.47500000E-01 -1.72500000E-01       0.01563
    61)     2.75000000E-02 -1.97500000E-01 -1.72500000E-01       0.01563
    62)     2.77500000E-01 -1.97500000E-01 -1.72500000E-01       0.01563
    63)    -4.72500000E-01 -1.97500000E-01 -1.72500000E-01       0.01563
    64)    -2.22500000E-01 -1.97500000E-01 -1.72500000E-01       0.01563

 Together with 48 symmetry operations and time-reversal symmetry 
 yields    64 points in the full Brillouin Zone.


 ==== Q-mesh for the screening function ====
 Number of points in the irreducible wedge :     8
 Reduced coordinates and weights : 

     1)     0.00000000E+00  0.00000000E+00  0.00000000E+00       0.01563
     2)     2.50000000E-01  0.00000000E+00  0.00000000E+00       0.12500
     3)     5.00000000E-01  0.00000000E+00  0.00000000E+00       0.06250
     4)     2.50000000E-01  2.50000000E-01  0.00000000E+00       0.09375
     5)     5.00000000E-01  2.50000000E-01  0.00000000E+00       0.37500
     6)    -2.50000000E-01  2.50000000E-01  0.00000000E+00       0.18750
     7)     5.00000000E-01  5.00000000E-01  0.00000000E+00       0.04688
     8)    -2.50000000E-01  5.00000000E-01  2.50000000E-01       0.09375

 Together with 48 symmetry operations and time-reversal symmetry 
 yields    64 points in the full Brillouin Zone.


 setmesh: FFT mesh size selected  =  20x 20x 20
          total number of points  =     8000

 ==== Fundamental parameters for the solution of the Bethe-Salpeter equation: ====
 Algorithm: Haydock technique.
 Dimension of the v, W matrices,  npweps  = 27
 Cutoff for the wavefunctions,    npwwfn  = 259
 Number of k-points in the IBZ,   nkibz   = 64
 Highest empty band included,     nband   = 7
 === Spin UP ===
 Number of resonant transitions          576
 Lowest occupied state                   2
 Highest occupied state                  4
 Lowest unoccupied state                 5
 Highest unoccupied state                7
 Minimum frequency [eV]           Emin    =   0.00
 Maximum frequency [eV]           Emax    =   6.00
 Frequency step [eV]              dE      =   0.02
 Lorentzian broadening [eV]       eta     =   0.15
 RPA L0 with KS energies and KS wavefunctions
 Scissors operator energy [eV] =          0.80
 Local fields effects (v term) included
 Excitonic effects (W term) included
 Only diagonal term W_GG included
 W is read from an external SCR file
 Resonant-only calculation (Hermitian case)


 Calculating epsilon_Macro(q-->0,w), along the following directions:
 q = (  0.938821  0.000000  0.000000) [r.l.u.]
 q = (  0.000000  0.938821  0.000000) [r.l.u.]
 q = (  0.000000  0.000000  0.938821) [r.l.u.]
 q = (  0.000000  0.813043  0.813043) [r.l.u.]
 q = (  0.813043  0.000000  0.813043) [r.l.u.]
 q = (  0.813043  0.813043  0.000000) [r.l.u.]

 k       eigenvalues [eV]
  1         -6.08   5.46   5.71   5.88   8.42   8.69   8.70
  2         -5.37   2.26   4.60   5.37   8.33   9.17   9.69
  3         -3.71  -1.08   4.26   4.64   7.81   9.17   9.47
  4         -5.17   1.69   4.66   5.07   8.21   9.17   9.87
  5         -5.16   1.66   4.64   5.08   8.20   9.17   9.86
  6         -4.98   2.16   3.85   4.09   7.29   9.17  11.25
  7         -3.36  -0.37   2.26   3.41   7.72   9.89  11.11
  8         -3.81   0.17   1.98   4.16   8.65  10.07  11.09
  9         -3.72  -1.08   4.27   4.64   7.81   9.17   9.47
 10         -3.27  -0.63   2.26   3.56   7.92  10.45  11.00
 11         -1.95  -1.87   2.71   3.04   6.63   7.04  15.44
 12         -3.39  -0.35   2.28   3.42   7.73   9.90  11.08
 13         -5.38   2.29   4.62   5.37   8.33   9.16   9.70
 14         -4.19   0.64   2.31   4.41   8.92   9.63  10.83
 15         -3.30  -0.61   2.28   3.58   7.93  10.43  11.00
 16         -5.00   2.20   3.87   4.12   7.30   9.21  11.21
 17         -4.96   1.08   4.71   5.08   7.92   9.30   9.65
 18         -4.76   1.81   3.63   3.90   7.10   8.76  11.69
 19         -3.14  -0.54   2.15   3.34   7.28   9.27  12.10
 20         -3.65  -0.09   1.90   4.19   8.27  10.48  11.74
 21         -4.54   1.46   3.61   3.67   6.76   8.28  12.48
 22         -4.95   1.05   4.73   5.07   7.90   9.30   9.64
 23         -3.83  -0.06   2.24   4.44   8.24  10.36  11.01
 24         -2.84  -0.88   1.89   3.43   7.10   9.59  12.60
 25         -2.83  -0.88   1.89   3.43   7.12   9.64  12.54
 26         -3.63  -0.11   1.88   4.20   8.24  10.53  11.77
 27         -3.27  -0.86   2.45   3.94   7.72  10.60  11.28
 28         -2.31  -1.23   1.78   2.40   9.77   9.84  10.57
 29         -3.84  -0.04   2.25   4.44   8.26  10.31  11.02
 30         -3.15  -0.53   2.16   3.34   7.25   9.22  12.16
 31         -2.08  -1.47   1.96   2.22   9.24   9.35  11.43
 32         -3.29  -0.86   2.48   3.95   7.74  10.56  11.25
 33         -3.87  -0.91   4.52   4.71   7.63   9.21   9.39
 34         -3.06  -0.86   2.05   3.66   7.67  10.85  11.40
 35         -2.31  -1.50   2.89   2.93   6.71   6.88  15.14
 36         -3.74   0.06   2.60   3.59   7.53   9.58  11.27
 37         -2.84  -0.94   1.79   3.60   7.31  10.64  11.98
 38         -3.46  -0.24   1.66   4.17   7.93  11.25  12.00
 39         -3.06  -0.87   2.06   3.68   7.66  10.87  11.44
 40         -2.30  -1.25   1.70   2.49   9.62  10.10  11.02
 41         -2.70  -1.10   3.03   3.05   6.48   6.84  15.17
 42         -2.85  -0.95   1.79   3.61   7.31  10.69  11.98
 43         -3.88  -0.90   4.54   4.72   7.62   9.22   9.38
 44         -3.97   0.16   2.94   3.83   7.60  10.17  10.90
 45         -3.96   0.14   2.93   3.83   7.62  10.21  10.85
 46         -2.29  -1.26   1.70   2.49   9.58  10.14  11.06
 47         -3.75   0.07   2.61   3.59   7.50   9.54  11.32
 48         -4.61   1.19   2.68   4.95   8.74   9.87  10.60
 49         -5.59   2.91   5.04   5.45   8.27   9.06   9.53
 50         -4.39   0.81   2.57   4.69   8.79   9.66  10.99
 51         -3.51  -0.61   2.70   3.88   7.91  10.17  11.42
 52         -5.21   2.67   4.02   4.39   7.42   9.52  10.86
 53         -4.21   0.38   2.61   4.69   8.50   9.94  10.63
 54         -3.50  -0.13   2.46   3.45   7.12   8.90  12.34
 55         -1.95  -1.60   1.85   2.33   8.88   9.71  11.83
 56         -3.51  -0.62   2.71   3.90   7.90  10.17  11.37
 57         -3.82  -0.27   3.03   3.98   7.81  10.31  11.09
 58         -2.18  -1.36   1.68   2.50   9.06  10.56  11.35
 59         -3.53  -0.10   2.48   3.46   7.13   8.91  12.30
 60         -4.41   0.84   2.59   4.72   8.78   9.67  10.95
 61         -5.43   3.26   4.38   4.50   7.40   9.79  10.73
 62         -3.81  -0.29   3.04   3.99   7.81  10.30  11.05
 63         -4.23   0.41   2.62   4.71   8.50   9.95  10.59
 64         -5.60   2.94   5.06   5.46   8.26   9.06   9.50
 Number of electrons calculated from density =    7.9999; Expected =    8.0000
 average of density, n =  0.030004
 r_s =    1.9964
 omega_plasma =   16.7087 [eV]

. Writing resonant excitonic Hamiltonian on file tbs_3o_DS2_BSR; file size=   0.00 [Gb].
 Writing KS-RPA macroscopic dielectric function without local fields to file: tbs_3o_DS2_RPA_NLF_MDF
 Writing GW-RPA macroscopic dielectric function without local fields to file: tbs_3o_DS2_GW_NLF_MDF
 >>> Haydock algorithm converged twice within haydock_tol=   5.00E-02 after 49 iterations.
 >>> Haydock algorithm converged twice within haydock_tol=   5.00E-02 after 49 iterations.
 >>> Haydock algorithm converged twice within haydock_tol=   5.00E-02 after 40 iterations.
 >>> Haydock algorithm converged twice within haydock_tol=   5.00E-02 after 44 iterations.
 >>> Haydock algorithm converged twice within haydock_tol=   5.00E-02 after 31 iterations.
 >>> Haydock algorithm converged twice within haydock_tol=   5.00E-02 after 49 iterations.
 Writing EXC Macroscopic dielectric function to file: tbs_3o_DS2_EXC_MDF
  
 Macroscopic dielectric function:
 omega [eV] <KS_RPA_nlf>  <GW_RPA_nlf>  <BSE> 
   0.0000  17.2241   0.0000  14.2601   0.0000  15.9612   0.0000
   0.0200  17.2247   0.0080  14.2604   0.0042  15.9616   0.0061
   0.0400  17.2263   0.0160  14.2612   0.0085  15.9628   0.0122
   0.0600  17.2289   0.0241  14.2626   0.0127  15.9648   0.0184
   0.0800  17.2326   0.0321  14.2646   0.0169  15.9677   0.0245
   0.1000  17.2374   0.0401  14.2671   0.0212  15.9713   0.0307
   0.1200  17.2432   0.0482  14.2702   0.0254  15.9758   0.0368
   0.1400  17.2501   0.0563  14.2738   0.0297  15.9811   0.0430
   0.1600  17.2581   0.0644  14.2780   0.0339  15.9872   0.0492
   0.1800  17.2672   0.0726  14.2828   0.0382  15.9941   0.0554
  

== END DATASET(S) ==============================================================
================================================================================
  
 -outvars: echo values of variables after computation  --------
            acell      1.0217000000E+01  1.0217000000E+01  1.0217000000E+01 Bohr
              amu      2.80855000E+01
     bs_algorithm           2
  bs_coulomb_term          10
      bs_coupling           0
     bs_freq_mesh      0.00000000E+00  2.20495952E-01  7.34986508E-04 Hartree
   bs_haydock_tol      5.00000000E-02  0.00000000E+00
        bs_loband1          3
        bs_loband2          2
      chksymbreak           0
           diemac      1.20000000E+01
             ecut      7.56385066E+00 Hartree
          ecuteps      1.51277013E+00 Hartree
          ecutwfn      7.56385066E+00 Hartree
           etotal1     0.0000000000E+00
           etotal2     0.0000000000E+00
            fcart1     0.0000000000E+00  0.0000000000E+00  0.0000000000E+00
                       0.0000000000E+00  0.0000000000E+00  0.0000000000E+00
            fcart2     0.0000000000E+00  0.0000000000E+00  0.0000000000E+00
                       0.0000000000E+00  0.0000000000E+00  0.0000000000E+00
-          fftalg         112
         icutcoul           3
          inclvkb           2
           irdkss           1
           irdscr           1
           jdtset        1    2
              kpt      2.75000000E-02  5.25000000E-02  7.75000000E-02
                       2.77500000E-01  5.25000000E-02  7.75000000E-02
                      -4.72500000E-01  5.25000000E-02  7.75000000E-02
                      -2.22500000E-01  5.25000000E-02  7.75000000E-02
                       2.75000000E-02  3.02500000E-01  7.75000000E-02
                       2.77500000E-01  3.02500000E-01  7.75000000E-02
                      -4.72500000E-01  3.02500000E-01  7.75000000E-02
                      -2.22500000E-01  3.02500000E-01  7.75000000E-02
                       2.75000000E-02 -4.47500000E-01  7.75000000E-02
                       2.77500000E-01 -4.47500000E-01  7.75000000E-02
                      -4.72500000E-01 -4.47500000E-01  7.75000000E-02
                      -2.22500000E-01 -4.47500000E-01  7.75000000E-02
                       2.75000000E-02 -1.97500000E-01  7.75000000E-02
                       2.77500000E-01 -1.97500000E-01  7.75000000E-02
                      -4.72500000E-01 -1.97500000E-01  7.75000000E-02
                      -2.22500000E-01 -1.97500000E-01  7.75000000E-02
                       2.75000000E-02  5.25000000E-02  3.27500000E-01
                       2.77500000E-01  5.25000000E-02  3.27500000E-01
                      -4.72500000E-01  5.25000000E-02  3.27500000E-01
                      -2.22500000E-01  5.25000000E-02  3.27500000E-01
                       2.75000000E-02  3.02500000E-01  3.27500000E-01
                       2.77500000E-01  3.02500000E-01  3.27500000E-01
                      -4.72500000E-01  3.02500000E-01  3.27500000E-01
                      -2.22500000E-01  3.02500000E-01  3.27500000E-01
                       2.75000000E-02 -4.47500000E-01  3.27500000E-01
                       2.77500000E-01 -4.47500000E-01  3.27500000E-01
                      -4.72500000E-01 -4.47500000E-01  3.27500000E-01
                      -2.22500000E-01 -4.47500000E-01  3.27500000E-01
                       2.75000000E-02 -1.97500000E-01  3.27500000E-01
                       2.77500000E-01 -1.97500000E-01  3.27500000E-01
                      -4.72500000E-01 -1.97500000E-01  3.27500000E-01
                      -2.22500000E-01 -1.97500000E-01  3.27500000E-01
                       2.75000000E-02  5.25000000E-02 -4.22500000E-01
                       2.77500000E-01  5.25000000E-02 -4.22500000E-01
                      -4.72500000E-01  5.25000000E-02 -4.22500000E-01
                      -2.22500000E-01  5.25000000E-02 -4.22500000E-01
                       2.75000000E-02  3.02500000E-01 -4.22500000E-01
                       2.77500000E-01  3.02500000E-01 -4.22500000E-01
                      -4.72500000E-01  3.02500000E-01 -4.22500000E-01
                      -2.22500000E-01  3.02500000E-01 -4.22500000E-01
                       2.75000000E-02 -4.47500000E-01 -4.22500000E-01
                       2.77500000E-01 -4.47500000E-01 -4.22500000E-01
                      -4.72500000E-01 -4.47500000E-01 -4.22500000E-01
                      -2.22500000E-01 -4.47500000E-01 -4.22500000E-01
                       2.75000000E-02 -1.97500000E-01 -4.22500000E-01
                       2.77500000E-01 -1.97500000E-01 -4.22500000E-01
                      -4.72500000E-01 -1.97500000E-01 -4.22500000E-01
                      -2.22500000E-01 -1.97500000E-01 -4.22500000E-01
                       2.75000000E-02  5.25000000E-02 -1.72500000E-01
                       2.77500000E-01  5.25000000E-02 -1.72500000E-01
                       outvar_i_n : Printing only first  50 k-points.
         kptrlatt        4    0    0      0    4    0      0    0    4
          kptrlen      2.88980399E+01
P           mkmem          64
            natom           2
            nband1          6
            nband2          7
           ndtset           2
            ngfft          18      18      18
             nkpt          64
           npweps          27
           npwwfn         283
           nsheps           4
            nstep          50
             nsym          48
           ntypat           1
              occ1     2.000000  2.000000  2.000000  2.000000  0.000000  0.000000
              occ2     2.000000  2.000000  2.000000  2.000000  0.000000  0.000000
                       0.000000
        optdriver          99
            rprim      0.0000000000E+00  5.0000000000E-01  5.0000000000E-01
                       5.0000000000E-01  0.0000000000E+00  5.0000000000E-01
                       5.0000000000E-01  5.0000000000E-01  0.0000000000E+00
           shiftk      1.10000000E-01  2.10000000E-01  3.10000000E-01
         soenergy      2.93994603E-02 Hartree
          spgroup         227
           strten1     0.0000000000E+00  0.0000000000E+00  0.0000000000E+00
                       0.0000000000E+00  0.0000000000E+00  0.0000000000E+00
           strten2     0.0000000000E+00  0.0000000000E+00  0.0000000000E+00
                       0.0000000000E+00  0.0000000000E+00  0.0000000000E+00
           symrel      1  0  0   0  1  0   0  0  1      -1  0  0   0 -1  0   0  0 -1
                       0 -1  1   0 -1  0   1 -1  0       0  1 -1   0  1  0  -1  1  0
                      -1  0  0  -1  0  1  -1  1  0       1  0  0   1  0 -1   1 -1  0
                       0  1 -1   1  0 -1   0  0 -1       0 -1  1  -1  0  1   0  0  1
                      -1  0  0  -1  1  0  -1  0  1       1  0  0   1 -1  0   1  0 -1
                       0 -1  1   1 -1  0   0 -1  0       0  1 -1  -1  1  0   0  1  0
                       1  0  0   0  0  1   0  1  0      -1  0  0   0  0 -1   0 -1  0
                       0  1 -1   0  0 -1   1  0 -1       0 -1  1   0  0  1  -1  0  1
                      -1  0  1  -1  1  0  -1  0  0       1  0 -1   1 -1  0   1  0  0
                       0 -1  0   1 -1  0   0 -1  1       0  1  0  -1  1  0   0  1 -1
                       1  0 -1   0  0 -1   0  1 -1      -1  0  1   0  0  1   0 -1  1
                       0  1  0   0  0  1   1  0  0       0 -1  0   0  0 -1  -1  0  0
                       1  0 -1   0  1 -1   0  0 -1      -1  0  1   0 -1  1   0  0  1
                       0 -1  0   0 -1  1   1 -1  0       0  1  0   0  1 -1  -1  1  0
                      -1  0  1  -1  0  0  -1  1  0       1  0 -1   1  0  0   1 -1  0
                       0  1  0   1  0  0   0  0  1       0 -1  0  -1  0  0   0  0 -1
                       0  0 -1   0  1 -1   1  0 -1       0  0  1   0 -1  1  -1  0  1
                       1 -1  0   0 -1  1   0 -1  0      -1  1  0   0  1 -1   0  1  0
                       0  0  1   1  0  0   0  1  0       0  0 -1  -1  0  0   0 -1  0
                      -1  1  0  -1  0  0  -1  0  1       1 -1  0   1  0  0   1  0 -1
                       0  0  1   0  1  0   1  0  0       0  0 -1   0 -1  0  -1  0  0
                       1 -1  0   0 -1  0   0 -1  1      -1  1  0   0  1  0   0  1 -1
                       0  0 -1   1  0 -1   0  1 -1       0  0  1  -1  0  1   0 -1  1
                      -1  1  0  -1  0  1  -1  0  0       1 -1  0   1  0 -1   1  0  0
            tnons      0.0000000  0.0000000  0.0000000     0.2500000  0.2500000  0.2500000
                       0.0000000  0.0000000  0.0000000     0.2500000  0.2500000  0.2500000
                       0.0000000  0.0000000  0.0000000     0.2500000  0.2500000  0.2500000
                       0.0000000  0.0000000  0.0000000     0.2500000  0.2500000  0.2500000
                       0.0000000  0.0000000  0.0000000     0.2500000  0.2500000  0.2500000
                       0.0000000  0.0000000  0.0000000     0.2500000  0.2500000  0.2500000
                       0.0000000  0.0000000  0.0000000     0.2500000  0.2500000  0.2500000
                       0.0000000  0.0000000  0.0000000     0.2500000  0.2500000  0.2500000
                       0.0000000  0.0000000  0.0000000     0.2500000  0.2500000  0.2500000
                       0.0000000  0.0000000  0.0000000     0.2500000  0.2500000  0.2500000
                       0.0000000  0.0000000  0.0000000     0.2500000  0.2500000  0.2500000
                       0.0000000  0.0000000  0.0000000     0.2500000  0.2500000  0.2500000
                       0.0000000  0.0000000  0.0000000     0.2500000  0.2500000  0.2500000
                       0.0000000  0.0000000  0.0000000     0.2500000  0.2500000  0.2500000
                       0.0000000  0.0000000  0.0000000     0.2500000  0.2500000  0.2500000
                       0.0000000  0.0000000  0.0000000     0.2500000  0.2500000  0.2500000
                       0.0000000  0.0000000  0.0000000     0.2500000  0.2500000  0.2500000
                       0.0000000  0.0000000  0.0000000     0.2500000  0.2500000  0.2500000
                       0.0000000  0.0000000  0.0000000     0.2500000  0.2500000  0.2500000
                       0.0000000  0.0000000  0.0000000     0.2500000  0.2500000  0.2500000
                       0.0000000  0.0000000  0.0000000     0.2500000  0.2500000  0.2500000
                       0.0000000  0.0000000  0.0000000     0.2500000  0.2500000  0.2500000
                       0.0000000  0.0000000  0.0000000     0.2500000  0.2500000  0.2500000
                       0.0000000  0.0000000  0.0000000     0.2500000  0.2500000  0.2500000
            typat      1  1
              wtk        0.01563    0.01563    0.01563    0.01563    0.01563    0.01563
                         0.01563    0.01563    0.01563    0.01563    0.01563    0.01563
                         0.01563    0.01563    0.01563    0.01563    0.01563    0.01563
                         0.01563    0.01563    0.01563    0.01563    0.01563    0.01563
                         0.01563    0.01563    0.01563    0.01563    0.01563    0.01563
                         0.01563    0.01563    0.01563    0.01563    0.01563    0.01563
                         0.01563    0.01563    0.01563    0.01563    0.01563    0.01563
                         0.01563    0.01563    0.01563    0.01563    0.01563    0.01563
                         0.01563    0.01563
                       outvars : Printing only first  50 k-points.
           xangst      0.0000000000E+00  0.0000000000E+00  0.0000000000E+00
                       1.3516508850E+00  1.3516508850E+00  1.3516508850E+00
            xcart      0.0000000000E+00  0.0000000000E+00  0.0000000000E+00
                       2.5542500000E+00  2.5542500000E+00  2.5542500000E+00
             xred      0.0000000000E+00  0.0000000000E+00  0.0000000000E+00
                       2.5000000000E-01  2.5000000000E-01  2.5000000000E-01
             zcut      5.51239881E-03 Hartree
            znucl       14.00000

================================================================================


- Timing analysis has been suppressed with timopt=0



================================================================================

 Suggested references for the acknowledgment of ABINIT usage.

 The users of ABINIT have little formal obligations with respect to the ABINIT group
 (those specified in the GNU General Public License, http://www.gnu.org/copyleft/gpl.txt).
 However, it is common practice in the scientific literature,
 to acknowledge the efforts of people that have made the research possible.
 In this spirit, please find below suggested citations of work written by ABINIT developers,
 corresponding to implementations inside of ABINIT that you have used in the present run.
 Note also that it will be of great value to readers of publications presenting these results,
 to read papers enabling them to understand the theoretical formalism and details
 of the ABINIT implementation.
 For information on why they are suggested, see also http://www.abinit.org/about/?text=acknowledgments.

 [1] ABINIT : First-principles approach of materials and nanosystem properties.
 X. Gonze, B. Amadon, P.-M. Anglade, J.-M. Beuken, F. Bottin, P. Boulanger, F. Bruneval,
 D. Caliste, R. Caracas, M. Cote, T. Deutsch, L. Genovese, Ph. Ghosez, M. Giantomassi
 S. Goedecker, D.R. Hamann, P. Hermet, F. Jollet, G. Jomard, S. Leroux, M. Mancini, S. Mazevet,
 M.J.T. Oliveira, G. Onida, Y. Pouillon, T. Rangel, G.-M. Rignanese, D. Sangalli, R. Shaltaf,
 M. Torrent, M.J. Verstraete, G. Zerah, J.W. Zwanziger
 Computer Phys. Comm. 180, 2582-2615 (2009).
 Comment : the third generic paper describing the ABINIT project.
 Note that a version of this paper, that is not formatted for Computer Phys. Comm. 
 is available at http://www.abinit.org/about/ABINIT_CPC_v10.pdf .
 The licence allows the authors to put it on the Web.

 [2] A brief introduction to the ABINIT software package.
 X. Gonze, G.-M. Rignanese, M. Verstraete, J.-M. Beuken, Y. Pouillon, R. Caracas, F. Jollet,
 M. Torrent, G. Zerah, M. Mikami, Ph. Ghosez, M. Veithen, J.-Y. Raty, V. Olevano, F. Bruneval,
 L. Reining, R. Godby, G. Onida, D.R. Hamann, and D.C. Allan.
 Z. Kristallogr. 220, 558-562 (2005).
 Comment : the second generic paper describing the ABINIT project. Note that this paper
 should be cited especially if you are using the GW part of ABINIT, as several authors
 of this part are not in the list of authors of the first or third paper.
 The .pdf of the latter paper is available at http://www.abinit.org/about/zfk_0505-06_558-562.pdf.
 Note that it should not redistributed (Copyright by Oldenburg Wissenshaftverlag,
 the licence allows the authors to put it on the Web).


 And optionally :

 [3] First-principles computation of material properties : the ABINIT software project. 
 X. Gonze, J.-M. Beuken, R. Caracas, F. Detraux, M. Fuchs, G.-M. Rignanese, L. Sindic,
 M. Verstraete, G. Zerah, F. Jollet, M. Torrent, A. Roy, M. Mikami, Ph. Ghosez, J.-Y. Raty, D.C. Allan.
 Computational Materials Science 25, 478-492 (2002). http://dx.doi.org/10.1016/S0927-0256(02)00325-7
 Comment : the original paper describing the ABINIT project.

 [4] Fast radix 2, 3, 4 and 5 kernels for Fast Fourier Transformations
 on computers with overlapping multiply-add instructions.
 S. Goedecker, SIAM J. on Scientific Computing 18, 1605 (1997).
-
- Proc.   0 individual time (sec): cpu=         59.7  wall=         59.7

================================================================================

 Calculation completed.
.Delivered   16 WARNINGs and  26 COMMENTs to log file.
+Overall time at end (sec) : cpu=         59.7  wall=         59.7
