
.Version 7.10.4 of ABINIT 
.(MPI version, prepared for a x86_64_linux_gnu4.7 computer) 

.Copyright (C) 1998-2014 ABINIT group . 
 ABINIT comes with ABSOLUTELY NO WARRANTY.
 It is free software, and you are welcome to redistribute it
 under certain conditions (GNU General Public License,
 see ~abinit/COPYING or http://www.gnu.org/copyleft/gpl.txt).

 ABINIT is a project of the Universite Catholique de Louvain,
 Corning Inc. and other collaborators, see ~abinit/doc/developers/contributors.txt .
 Please read ~abinit/doc/users/acknowledgments.html for suggested
 acknowledgments of the ABINIT effort.
 For more information, see http://www.abinit.org .

.Starting date : Wed 11 Mar 2015.
- ( at 10h21 )
  
- input  file    -> tgw1_9.in
- output file    -> tgw1_9.out
- root for input  files -> tgw1_9i
- root for output files -> tgw1_9o


 DATASET    1 : space group Fd -3 m (#227); Bravais cF (face-center cubic)
================================================================================
 Values of the parameters that define the memory need for DATASET  1.
   intxc =         0  ionmov =         0    iscf =         5 xclevel =         1
  lmnmax =         2   lnmax =         2   mband =         5  mffmem =         1
P  mgfft =        20   mkmem =         2 mpssoang=         3     mpw =       296
  mqgrid =      3001   natom =         2    nfft =      8000    nkpt =         2
  nloalg =         4  nspden =         1 nspinor =         1  nsppol =         1
    nsym =        48  n1xccc =      2501  ntypat =         1  occopt =         1
================================================================================
P This job should need less than                       2.543 Mbytes of memory.
  Rough estimation (10% accuracy) of disk space for files :
_ WF disk file :      0.047 Mbytes ; DEN or POT disk file :      0.063 Mbytes.
================================================================================


 DATASET    2 : space group Fd -3 m (#227); Bravais cF (face-center cubic)
================================================================================
 Values of the parameters that define the memory need for DATASET  2.
   intxc =         0  ionmov =         0    iscf =        -2 xclevel =         1
  lmnmax =         2   lnmax =         2   mband =       105  mffmem =         1
P  mgfft =        20   mkmem =         6 mpssoang=         3     mpw =       303
  mqgrid =      3001   natom =         2    nfft =      8000    nkpt =         6
  nloalg =         4  nspden =         1 nspinor =         1  nsppol =         1
    nsym =        48  n1xccc =      2501  ntypat =         1  occopt =         1
================================================================================
P This job should need less than                       5.178 Mbytes of memory.
  Rough estimation (10% accuracy) of disk space for files :
_ WF disk file :      2.915 Mbytes ; DEN or POT disk file :      0.063 Mbytes.
================================================================================


 DATASET    3 : space group Fd -3 m (#227); Bravais cF (face-center cubic)
================================================================================
 Values of the parameters that define the memory need for DATASET  3.
   intxc =         0  ionmov =         0    iscf =         5 xclevel =         1
  lmnmax =         2   lnmax =         2   mband =        25  mffmem =         1
P  mgfft =        15   mkmem =         6 mpssoang=         3     mpw =        92
  mqgrid =      3001   natom =         2    nfft =      3375    nkpt =         6
  nloalg =         4  nspden =         1 nspinor =         1  nsppol =         1
    nsym =        48  n1xccc =      2501  ntypat =         1  occopt =         1
================================================================================
P This job should need less than                       1.598 Mbytes of memory.
  Rough estimation (10% accuracy) of disk space for files :
_ WF disk file :      0.213 Mbytes ; DEN or POT disk file :      0.028 Mbytes.
================================================================================


 DATASET    4 : space group Fd -3 m (#227); Bravais cF (face-center cubic)
================================================================================
 Values of the parameters that define the memory need for DATASET  4.
   intxc =         0  ionmov =         0    iscf =         5 xclevel =         1
  lmnmax =         2   lnmax =         2   mband =       100  mffmem =         1
P  mgfft =        15   mkmem =         6 mpssoang=         3     mpw =       125
  mqgrid =      3001   natom =         2    nfft =      3375    nkpt =         6
  nloalg =         4  nspden =         1 nspinor =         1  nsppol =         1
    nsym =        48  n1xccc =      2501  ntypat =         1  occopt =         1
================================================================================
P This job should need less than                       2.840 Mbytes of memory.
  Rough estimation (10% accuracy) of disk space for files :
_ WF disk file :      1.146 Mbytes ; DEN or POT disk file :      0.028 Mbytes.
================================================================================

--------------------------------------------------------------------------------
------------- Echo of variables that govern the present computation ------------
--------------------------------------------------------------------------------
-
- outvars: echo of selected default values                                      
-   accesswff0 =  0 , fftalg0 =112 , wfoptalg0 =  0
-
- outvars: echo of global parameters not present in the input file              
-  max_nthreads =    0
-
 -outvars: echo values of preprocessed input variables --------
            acell      1.0217000000E+01  1.0217000000E+01  1.0217000000E+01 Bohr
              amu      2.80855000E+01
             bdgw4          4       5
           diemac      1.20000000E+01
             ecut1     8.00000000E+00 Hartree
             ecut2     8.00000000E+00 Hartree
             ecut3     3.59282906E+00 Hartree
             ecut4     4.53831040E+00 Hartree
          ecuteps1     0.00000000E+00 Hartree
          ecuteps2     0.00000000E+00 Hartree
          ecuteps3     5.10559920E+00 Hartree
          ecuteps4     0.00000000E+00 Hartree
         ecutsigx1     0.00000000E+00 Hartree
         ecutsigx2     0.00000000E+00 Hartree
         ecutsigx3     0.00000000E+00 Hartree
         ecutsigx4     5.10559920E+00 Hartree
          ecutwfn1     0.00000000E+00 Hartree
          ecutwfn2     0.00000000E+00 Hartree
          ecutwfn3     3.59282906E+00 Hartree
          ecutwfn4     4.53831040E+00 Hartree
-          fftalg         112
           getden1          0
           getden2         -1
           getden3          0
           getden4          0
           getkss1          0
           getkss2          0
           getkss3         -1
           getkss4         -2
           getscr1          0
           getscr2          0
           getscr3          0
           getscr4         -1
         icutcoul1          6
         icutcoul2          6
         icutcoul3          6
         icutcoul4          3
             iscf1          5
             iscf2         -2
             iscf3          5
             iscf4          5
           istwfk2       0    0    1    0    1    1
           istwfk3       0    0    1    0    1    1
           istwfk4       0    0    1    0    1    1
           jdtset        1    2    3    4
              kpt1    -2.50000000E-01  5.00000000E-01  0.00000000E+00
                      -2.50000000E-01  0.00000000E+00  0.00000000E+00
              kpt2    -2.50000000E-01 -2.50000000E-01  0.00000000E+00
                      -2.50000000E-01  2.50000000E-01  0.00000000E+00
                       5.00000000E-01  5.00000000E-01  0.00000000E+00
                      -2.50000000E-01  5.00000000E-01  2.50000000E-01
                       5.00000000E-01  0.00000000E+00  0.00000000E+00
                       0.00000000E+00  0.00000000E+00  0.00000000E+00
              kpt3    -2.50000000E-01 -2.50000000E-01  0.00000000E+00
                      -2.50000000E-01  2.50000000E-01  0.00000000E+00
                       5.00000000E-01  5.00000000E-01  0.00000000E+00
                      -2.50000000E-01  5.00000000E-01  2.50000000E-01
                       5.00000000E-01  0.00000000E+00  0.00000000E+00
                       0.00000000E+00  0.00000000E+00  0.00000000E+00
              kpt4    -2.50000000E-01 -2.50000000E-01  0.00000000E+00
                      -2.50000000E-01  2.50000000E-01  0.00000000E+00
                       5.00000000E-01  5.00000000E-01  0.00000000E+00
                      -2.50000000E-01  5.00000000E-01  2.50000000E-01
                       5.00000000E-01  0.00000000E+00  0.00000000E+00
                       0.00000000E+00  0.00000000E+00  0.00000000E+00
            kptgw4     0.00000000E+00  0.00000000E+00  0.00000000E+00
         kptrlatt        2   -2    2     -2    2    2     -2   -2    2
          kptrlen      2.04340000E+01
          kssform1          1
          kssform2          3
          kssform3          1
          kssform4          1
P           mkmem1          2
P           mkmem2          6
P           mkmem3          6
P           mkmem4          6
            natom           2
            nband1          5
            nband2        105
            nband3         25
            nband4        100
         nbandkss1          0
         nbandkss2        100
         nbandkss3          0
         nbandkss4          0
           nbdbuf1          0
           nbdbuf2          5
           nbdbuf3          0
           nbdbuf4          0
           ndtset           4
            ngfft1         20      20      20
            ngfft2         20      20      20
            ngfft3         15      15      15
            ngfft4         15      15      15
             nkpt1          2
             nkpt2          6
             nkpt3          6
             nkpt4          6
           nkptgw1          0
           nkptgw2          0
           nkptgw3          0
           nkptgw4          1
           npweps1          0
           npweps2          0
           npweps3        169
           npweps4          0
          npwsigx1          0
          npwsigx2          0
          npwsigx3          0
          npwsigx4        169
           npwwfn1          0
           npwwfn2          0
           npwwfn3         89
           npwwfn4        137
           nsheps1          0
           nsheps2          0
           nsheps3         12
           nsheps4          0
          nshsigx1          0
          nshsigx2          0
          nshsigx3          0
          nshsigx4         12
            nstep          10
             nsym          48
           ntypat           1
              occ1     2.000000  2.000000  2.000000  2.000000  0.000000
              occ3     2.000000  2.000000  2.000000  2.000000  0.000000  0.000000
                       0.000000  0.000000  0.000000  0.000000  0.000000  0.000000
                       0.000000  0.000000  0.000000  0.000000  0.000000  0.000000
                       0.000000  0.000000  0.000000  0.000000  0.000000  0.000000
                       0.000000
              occ4     2.000000  2.000000  2.000000  2.000000  0.000000  0.000000
                       0.000000  0.000000  0.000000  0.000000  0.000000  0.000000
                       0.000000  0.000000  0.000000  0.000000  0.000000  0.000000
                       0.000000  0.000000  0.000000  0.000000  0.000000  0.000000
                       0.000000  0.000000  0.000000  0.000000  0.000000  0.000000
                       0.000000  0.000000  0.000000  0.000000  0.000000  0.000000
                       0.000000  0.000000  0.000000  0.000000  0.000000  0.000000
                       0.000000  0.000000  0.000000  0.000000  0.000000  0.000000
                       0.000000  0.000000  0.000000  0.000000  0.000000  0.000000
                       0.000000  0.000000  0.000000  0.000000  0.000000  0.000000
                       0.000000  0.000000  0.000000  0.000000  0.000000  0.000000
                       0.000000  0.000000  0.000000  0.000000  0.000000  0.000000
                       0.000000  0.000000  0.000000  0.000000  0.000000  0.000000
                       0.000000  0.000000  0.000000  0.000000  0.000000  0.000000
                       0.000000  0.000000  0.000000  0.000000  0.000000  0.000000
                       0.000000  0.000000  0.000000  0.000000  0.000000  0.000000
                       0.000000  0.000000  0.000000  0.000000
        optdriver1          0
        optdriver2          0
        optdriver3          3
        optdriver4          4
           ppmfrq1     0.00000000E+00 Hartree
           ppmfrq2     0.00000000E+00 Hartree
           ppmfrq3     6.13713734E-01 Hartree
           ppmfrq4     0.00000000E+00 Hartree
            rprim      0.0000000000E+00  5.0000000000E-01  5.0000000000E-01
                       5.0000000000E-01  0.0000000000E+00  5.0000000000E-01
                       5.0000000000E-01  5.0000000000E-01  0.0000000000E+00
           shiftk1     5.00000000E-01  5.00000000E-01  5.00000000E-01
           shiftk2     0.00000000E+00  0.00000000E+00  0.00000000E+00
           shiftk3     0.00000000E+00  0.00000000E+00  0.00000000E+00
           shiftk4     0.00000000E+00  0.00000000E+00  0.00000000E+00
          spgroup         227
           symrel      1  0  0   0  1  0   0  0  1      -1  0  0   0 -1  0   0  0 -1
                       0 -1  1   0 -1  0   1 -1  0       0  1 -1   0  1  0  -1  1  0
                      -1  0  0  -1  0  1  -1  1  0       1  0  0   1  0 -1   1 -1  0
                       0  1 -1   1  0 -1   0  0 -1       0 -1  1  -1  0  1   0  0  1
                      -1  0  0  -1  1  0  -1  0  1       1  0  0   1 -1  0   1  0 -1
                       0 -1  1   1 -1  0   0 -1  0       0  1 -1  -1  1  0   0  1  0
                       1  0  0   0  0  1   0  1  0      -1  0  0   0  0 -1   0 -1  0
                       0  1 -1   0  0 -1   1  0 -1       0 -1  1   0  0  1  -1  0  1
                      -1  0  1  -1  1  0  -1  0  0       1  0 -1   1 -1  0   1  0  0
                       0 -1  0   1 -1  0   0 -1  1       0  1  0  -1  1  0   0  1 -1
                       1  0 -1   0  0 -1   0  1 -1      -1  0  1   0  0  1   0 -1  1
                       0  1  0   0  0  1   1  0  0       0 -1  0   0  0 -1  -1  0  0
                       1  0 -1   0  1 -1   0  0 -1      -1  0  1   0 -1  1   0  0  1
                       0 -1  0   0 -1  1   1 -1  0       0  1  0   0  1 -1  -1  1  0
                      -1  0  1  -1  0  0  -1  1  0       1  0 -1   1  0  0   1 -1  0
                       0  1  0   1  0  0   0  0  1       0 -1  0  -1  0  0   0  0 -1
                       0  0 -1   0  1 -1   1  0 -1       0  0  1   0 -1  1  -1  0  1
                       1 -1  0   0 -1  1   0 -1  0      -1  1  0   0  1 -1   0  1  0
                       0  0  1   1  0  0   0  1  0       0  0 -1  -1  0  0   0 -1  0
                      -1  1  0  -1  0  0  -1  0  1       1 -1  0   1  0  0   1  0 -1
                       0  0  1   0  1  0   1  0  0       0  0 -1   0 -1  0  -1  0  0
                       1 -1  0   0 -1  0   0 -1  1      -1  1  0   0  1  0   0  1 -1
                       0  0 -1   1  0 -1   0  1 -1       0  0  1  -1  0  1   0 -1  1
                      -1  1  0  -1  0  1  -1  0  0       1 -1  0   1  0 -1   1  0  0
            tnons      0.0000000  0.0000000  0.0000000     0.2500000  0.2500000  0.2500000
                       0.0000000  0.0000000  0.0000000     0.2500000  0.2500000  0.2500000
                       0.0000000  0.0000000  0.0000000     0.2500000  0.2500000  0.2500000
                       0.0000000  0.0000000  0.0000000     0.2500000  0.2500000  0.2500000
                       0.0000000  0.0000000  0.0000000     0.2500000  0.2500000  0.2500000
                       0.0000000  0.0000000  0.0000000     0.2500000  0.2500000  0.2500000
                       0.0000000  0.0000000  0.0000000     0.2500000  0.2500000  0.2500000
                       0.0000000  0.0000000  0.0000000     0.2500000  0.2500000  0.2500000
                       0.0000000  0.0000000  0.0000000     0.2500000  0.2500000  0.2500000
                       0.0000000  0.0000000  0.0000000     0.2500000  0.2500000  0.2500000
                       0.0000000  0.0000000  0.0000000     0.2500000  0.2500000  0.2500000
                       0.0000000  0.0000000  0.0000000     0.2500000  0.2500000  0.2500000
                       0.0000000  0.0000000  0.0000000     0.2500000  0.2500000  0.2500000
                       0.0000000  0.0000000  0.0000000     0.2500000  0.2500000  0.2500000
                       0.0000000  0.0000000  0.0000000     0.2500000  0.2500000  0.2500000
                       0.0000000  0.0000000  0.0000000     0.2500000  0.2500000  0.2500000
                       0.0000000  0.0000000  0.0000000     0.2500000  0.2500000  0.2500000
                       0.0000000  0.0000000  0.0000000     0.2500000  0.2500000  0.2500000
                       0.0000000  0.0000000  0.0000000     0.2500000  0.2500000  0.2500000
                       0.0000000  0.0000000  0.0000000     0.2500000  0.2500000  0.2500000
                       0.0000000  0.0000000  0.0000000     0.2500000  0.2500000  0.2500000
                       0.0000000  0.0000000  0.0000000     0.2500000  0.2500000  0.2500000
                       0.0000000  0.0000000  0.0000000     0.2500000  0.2500000  0.2500000
                       0.0000000  0.0000000  0.0000000     0.2500000  0.2500000  0.2500000
           tolwfr      1.00000000E-10
            typat      1  1
              wtk1       0.75000    0.25000
              wtk2       0.18750    0.37500    0.09375    0.18750    0.12500    0.03125
              wtk3       0.18750    0.37500    0.09375    0.18750    0.12500    0.03125
              wtk4       0.18750    0.37500    0.09375    0.18750    0.12500    0.03125
           xangst      0.0000000000E+00  0.0000000000E+00  0.0000000000E+00
                       1.3516508850E+00  1.3516508850E+00  1.3516508850E+00
            xcart      0.0000000000E+00  0.0000000000E+00  0.0000000000E+00
                       2.5542500000E+00  2.5542500000E+00  2.5542500000E+00
             xred      0.0000000000E+00  0.0000000000E+00  0.0000000000E+00
                       2.5000000000E-01  2.5000000000E-01  2.5000000000E-01
            znucl       14.00000

================================================================================

 chkinp: Checking input parameters for consistency, jdtset=   1.

 chkinp: Checking input parameters for consistency, jdtset=   2.

 chkinp: Checking input parameters for consistency, jdtset=   3.

 chkinp: Checking input parameters for consistency, jdtset=   4.

================================================================================
== DATASET  1 ==================================================================
-   nproc =    1

 Exchange-correlation functional for the present dataset will be:
  LDA: new Teter (4/93) with spin-polarized option - ixc=1
 Citation for XC functional:
  S. Goedecker, M. Teter, J. Huetter, PRB 54, 1703 (1996)

 Real(R)+Recip(G) space primitive vectors, cartesian coordinates (Bohr,Bohr^-1):
 R(1)=  0.0000000  5.1085000  5.1085000  G(1)= -0.0978761  0.0978761  0.0978761
 R(2)=  5.1085000  0.0000000  5.1085000  G(2)=  0.0978761 -0.0978761  0.0978761
 R(3)=  5.1085000  5.1085000  0.0000000  G(3)=  0.0978761  0.0978761 -0.0978761
 Unit cell volume ucvol=  2.6663072E+02 bohr^3
 Angles (23,13,12)=  6.00000000E+01  6.00000000E+01  6.00000000E+01 degrees

 getcut: wavevector=  0.0000  0.0000  0.0000  ngfft=  20  20  20
         ecut(hartree)=      8.000   => boxcut(ratio)=   2.17426

--- Pseudopotential description ------------------------------------------------
- pspini: atom type   1  psp file is /home/gonze/ABINIT/ABINITv7.10.4/trunk/7.10.4-private/tests/Psps_for_tests/14si.pspnc
- pspatm: opening atomic psp file    /home/gonze/ABINIT/ABINITv7.10.4/trunk/7.10.4-private/tests/Psps_for_tests/14si.pspnc
-  Troullier-Martins psp for element  Si        Thu Oct 27 17:31:21 EDT 1994
- 14.00000   4.00000    940714                znucl, zion, pspdat
    1    1    2    2      2001   0.00000      pspcod,pspxc,lmax,lloc,mmax,r2well
    0   5.907  14.692    1   2.0872718        l,e99.0,e99.9,nproj,rcpsp
   0.00000000   0.00000000   0.00000000   0.00000000     rms, ekb1, ekb2, epsatm
    1   2.617   4.181    1   2.0872718        l,e99.0,e99.9,nproj,rcpsp
   0.00000000   0.00000000   0.00000000   0.00000000     rms, ekb1, ekb2, epsatm
    2   0.000   0.000    0   2.0872718        l,e99.0,e99.9,nproj,rcpsp
   0.00000000   0.00000000   0.00000000   0.00000000     rms, ekb1, ekb2, epsatm
    1.80626423934776    0.22824404341771    1.17378968127746   rchrg,fchrg,qchrg
 pspatm: epsatm=    1.43386982
         --- l  ekb(1:nproj) -->
             0    3.287949
             1    1.849886
 pspatm: atomic psp has been read  and splines computed

   2.29419171E+01                                ecore*ucvol(ha*bohr**3)
--------------------------------------------------------------------------------

P newkpt: treating      5 bands with npw=     290 for ikpt=   1 by node    0
P newkpt: treating      5 bands with npw=     296 for ikpt=   2 by node    0

_setup2: Arith. and geom. avg. npw (full set) are     291.500     291.489

================================================================================

     iter   Etot(hartree)      deltaE(h)  residm     vres2
 ETOT  1  -8.8589725571635    -8.859E+00 3.375E-03 6.372E+00
 ETOT  2  -8.8663201676568    -7.348E-03 1.307E-06 1.444E-01
 ETOT  3  -8.8663798577245    -5.969E-05 5.010E-07 1.003E-02
 ETOT  4  -8.8663832075672    -3.350E-06 5.089E-08 1.071E-03
 ETOT  5  -8.8663835548109    -3.472E-07 7.461E-10 7.830E-05
 ETOT  6  -8.8663835882073    -3.340E-08 7.575E-10 1.217E-08
 ETOT  7  -8.8663835883201    -1.128E-10 5.309E-11 6.517E-08

 At SCF step    7   max residual=  5.31E-11 < tolwfr=  1.00E-10 =>converged.

 Cartesian components of stress tensor (hartree/bohr^3)
  sigma(1 1)=  1.69199801E-05  sigma(3 2)=  0.00000000E+00
  sigma(2 2)=  1.69199801E-05  sigma(3 1)=  0.00000000E+00
  sigma(3 3)=  1.69199801E-05  sigma(2 1)=  0.00000000E+00

================================================================================

 ----iterations are completed or convergence reached----

 Mean square residual over all n,k,spin=   1.8693E-11; max=  5.3091E-11
  -0.2500  0.5000  0.0000    1  2.68017E-11 kpt; spin; max resid(k); each band:
  3.55E-12 3.41E-12 4.67E-12 2.68E-11 1.62E-11
  -0.2500  0.0000  0.0000    1  5.30906E-11 kpt; spin; max resid(k); each band:
  3.59E-12 3.37E-12 5.31E-11 5.31E-11 1.92E-11
 reduced coordinates (array xred) for    2 atoms
       0.000000000000      0.000000000000      0.000000000000
       0.250000000000      0.250000000000      0.250000000000
 rms dE/dt=  0.0000E+00; max dE/dt=  0.0000E+00; dE/dt below (all hartree)
    1       0.000000000000      0.000000000000      0.000000000000
    2       0.000000000000      0.000000000000      0.000000000000

 cartesian coordinates (angstrom) at end:
    1      0.00000000000000     0.00000000000000     0.00000000000000
    2      1.35165088504101     1.35165088504101     1.35165088504101

 cartesian forces (hartree/bohr) at end:
    1     -0.00000000000000    -0.00000000000000    -0.00000000000000
    2     -0.00000000000000    -0.00000000000000    -0.00000000000000
 frms,max,avg= 0.0000000E+00 0.0000000E+00   0.000E+00  0.000E+00  0.000E+00 h/b

 cartesian forces (eV/Angstrom) at end:
    1     -0.00000000000000    -0.00000000000000    -0.00000000000000
    2     -0.00000000000000    -0.00000000000000    -0.00000000000000
 frms,max,avg= 0.0000000E+00 0.0000000E+00   0.000E+00  0.000E+00  0.000E+00 e/A
 length scales= 10.217000000000 10.217000000000 10.217000000000 bohr
              =  5.406603540164  5.406603540164  5.406603540164 angstroms
 prteigrs : about to open file tgw1_9o_DS1_EIG
 Fermi (or HOMO) energy (hartree) =   0.18995   Average Vxc (hartree)=  -0.35404
 Eigenvalues (hartree) for nkpt=   2  k points:
 kpt#   1, nband=  5, wtk=  0.75000, kpt= -0.2500  0.5000  0.0000 (reduced coord)
  -0.12410  -0.01841   0.08526   0.13562   0.27027
 kpt#   2, nband=  5, wtk=  0.25000, kpt= -0.2500  0.0000  0.0000 (reduced coord)
  -0.19594   0.07199   0.18995   0.18995   0.29009
 Total charge density [el/Bohr^3]
,     Maximum=    8.6682E-02  at reduced coord.    0.1000    0.1000    0.7000
,Next maximum=    8.6682E-02  at reduced coord.    0.1500    0.1500    0.5500
,     Minimum=    3.2358E-03  at reduced coord.    0.5000    0.5000    0.5000
,Next minimum=    3.2358E-03  at reduced coord.    0.7500    0.7500    0.7500
,  Integrated=    8.0000E+00

--------------------------------------------------------------------------------
 Components of total free energy (in Hartree) :

    Kinetic energy  =  3.04668190710579E+00
    Hartree energy  =  5.47479414380232E-01
    XC energy       = -3.54245921769135E+00
    Ewald energy    = -8.43581958561899E+00
    PspCore energy  =  8.60437873148613E-02
    Loc. psp. energy= -2.44179780319278E+00
    NL   psp  energy=  1.87348790938218E+00
    >>>>>>>>> Etotal= -8.86638358832006E+00

 Other information on the energy :
    Total energy(eV)= -2.41266567271781E+02 ; Band energy (Ha)=   2.4555093426E-01
--------------------------------------------------------------------------------

 Cartesian components of stress tensor (hartree/bohr^3)
  sigma(1 1)=  1.69199801E-05  sigma(3 2)=  0.00000000E+00
  sigma(2 2)=  1.69199801E-05  sigma(3 1)=  0.00000000E+00
  sigma(3 3)=  1.69199801E-05  sigma(2 1)=  0.00000000E+00

-Cartesian components of stress tensor (GPa)         [Pressure= -4.9780E-01 GPa]
- sigma(1 1)=  4.97802917E-01  sigma(3 2)=  0.00000000E+00
- sigma(2 2)=  4.97802917E-01  sigma(3 1)=  0.00000000E+00
- sigma(3 3)=  4.97802917E-01  sigma(2 1)=  0.00000000E+00

================================================================================
== DATASET  2 ==================================================================
-   nproc =    1

 mkfilename : getden/=0, take file _DEN from output of DATASET   1.

 Exchange-correlation functional for the present dataset will be:
  LDA: new Teter (4/93) with spin-polarized option - ixc=1
 Citation for XC functional:
  S. Goedecker, M. Teter, J. Huetter, PRB 54, 1703 (1996)

 Real(R)+Recip(G) space primitive vectors, cartesian coordinates (Bohr,Bohr^-1):
 R(1)=  0.0000000  5.1085000  5.1085000  G(1)= -0.0978761  0.0978761  0.0978761
 R(2)=  5.1085000  0.0000000  5.1085000  G(2)=  0.0978761 -0.0978761  0.0978761
 R(3)=  5.1085000  5.1085000  0.0000000  G(3)=  0.0978761  0.0978761 -0.0978761
 Unit cell volume ucvol=  2.6663072E+02 bohr^3
 Angles (23,13,12)=  6.00000000E+01  6.00000000E+01  6.00000000E+01 degrees

 getcut: wavevector=  0.0000  0.0000  0.0000  ngfft=  20  20  20
         ecut(hartree)=      8.000   => boxcut(ratio)=   2.17426
--------------------------------------------------------------------------------

P newkpt: treating    105 bands with npw=     303 for ikpt=   1 by node    0
P newkpt: treating    105 bands with npw=     283 for ikpt=   2 by node    0
P newkpt: treating    105 bands with npw=     302 for ikpt=   3 by node    0
P newkpt: treating    105 bands with npw=     280 for ikpt=   4 by node    0
P newkpt: treating    105 bands with npw=     272 for ikpt=   5 by node    0
P newkpt: treating    105 bands with npw=     283 for ikpt=   6 by node    0


================================================================================
 prteigrs : about to open file tgw1_9o_DS2_EIG
 Non-SCF case, kpt    1 ( -0.25000 -0.25000  0.00000), residuals and eigenvalues=
  7.12E-13  7.70E-13  1.36E-11  4.23E-11  9.46E-11  1.31E-12  2.82E-12  1.79E-12
  1.44E-12  3.46E-12  7.24E-11  1.59E-12  4.46E-12  2.28E-12  2.40E-12  4.75E-12
  3.95E-12  3.75E-11  9.97E-13  5.74E-11  2.19E-12  6.81E-12  2.31E-12  3.78E-12
  4.56E-11  8.28E-11  2.64E-12  7.58E-11  4.72E-12  3.16E-12  3.69E-12  1.72E-11
  1.73E-11  2.13E-11  5.37E-12  7.01E-11  8.19E-12  3.76E-11  2.98E-11  2.42E-11
  4.23E-11  2.51E-12  5.80E-12  4.70E-12  1.63E-11  4.18E-11  5.65E-11  1.72E-11
  1.63E-11  9.02E-11  2.40E-11  2.41E-11  5.00E-11  2.26E-11  1.92E-11  3.05E-11
  2.98E-12  1.20E-11  2.52E-11  4.70E-11  7.17E-12  1.36E-11  1.38E-11  1.62E-11
  1.60E-11  2.52E-11  2.59E-11  2.12E-11  2.26E-11  4.71E-11  1.85E-11  3.30E-11
  1.57E-11  7.79E-12  3.66E-11  3.33E-11  1.33E-11  2.42E-11  1.78E-11  2.23E-11
  1.61E-11  1.49E-11  1.45E-11  5.03E-11  8.79E-11  6.02E-11  5.44E-11  8.62E-11
  8.50E-11  7.16E-11  5.71E-11  4.66E-11  5.01E-11  4.69E-11  8.22E-11  7.38E-11
  5.43E-11  4.97E-11  4.03E-11  4.94E-11  1.44E-07  2.94E-07  8.50E-11  1.19E-06
  4.01E-06
 -1.8544E-01  8.8590E-02  1.4729E-01  1.4729E-01  2.5588E-01  3.2996E-01
  4.3002E-01  4.3002E-01  5.1096E-01  5.5194E-01  6.2970E-01  6.9685E-01
  6.9685E-01  7.2028E-01  8.5811E-01  8.5811E-01  9.0142E-01  9.5913E-01
  9.8818E-01  1.1385E+00  1.1876E+00  1.2239E+00  1.2239E+00  1.3030E+00
  1.3030E+00  1.3170E+00  1.3271E+00  1.4936E+00  1.5075E+00  1.5330E+00
  1.5330E+00  1.5942E+00  1.5942E+00  1.5964E+00  1.6446E+00  1.6666E+00
  1.7254E+00  1.7254E+00  1.7526E+00  1.8311E+00  1.8311E+00  1.8481E+00
  1.8671E+00  1.9431E+00  1.9553E+00  1.9553E+00  1.9938E+00  2.0396E+00
  2.0928E+00  2.1033E+00  2.1068E+00  2.1068E+00  2.2211E+00  2.3046E+00
  2.3431E+00  2.3431E+00  2.4779E+00  2.4876E+00  2.5020E+00  2.5020E+00
  2.5467E+00  2.5550E+00  2.5621E+00  2.5621E+00  2.6092E+00  2.6875E+00
  2.6999E+00  2.7194E+00  2.7194E+00  2.8071E+00  2.8433E+00  2.8433E+00
  2.8547E+00  2.9366E+00  2.9366E+00  2.9617E+00  2.9863E+00  2.9907E+00
  3.0654E+00  3.0883E+00  3.0883E+00  3.1641E+00  3.2201E+00  3.2201E+00
  3.2272E+00  3.2758E+00  3.3405E+00  3.3405E+00  3.3907E+00  3.4398E+00
  3.4398E+00  3.4441E+00  3.5069E+00  3.5386E+00  3.5386E+00  3.5684E+00
  3.5859E+00  3.6043E+00  3.6043E+00  3.6081E+00  3.6748E+00  3.6857E+00
  3.7207E+00  3.7211E+00  3.7234E+00
  prteigrs : nnsclo,ikpt=   10    1 max resid (incl. the buffer)=  4.00743E-06
 Non-SCF case, kpt    2 ( -0.25000  0.25000  0.00000), residuals and eigenvalues=
  6.95E-11  5.53E-13  1.08E-11  2.24E-11  4.67E-13  6.82E-13  2.32E-12  5.19E-11
  1.36E-12  7.36E-13  9.86E-13  2.66E-12  1.07E-12  1.02E-11  3.55E-11  1.85E-11
  3.90E-12  9.03E-11  1.93E-11  4.90E-11  7.54E-13  2.83E-11  1.14E-12  3.00E-11
  7.68E-11  1.18E-11  1.38E-12  5.31E-11  1.63E-12  2.20E-12  3.44E-11  2.22E-11
  1.42E-12  4.62E-11  9.76E-11  8.95E-12  1.66E-12  2.71E-11  4.29E-12  3.04E-12
  2.08E-11  9.79E-11  2.60E-12  5.72E-12  1.52E-11  1.07E-11  3.88E-12  4.18E-12
  5.97E-12  3.93E-12  1.48E-11  1.41E-11  2.11E-11  1.53E-11  3.04E-11  9.33E-12
  1.51E-11  3.35E-11  5.65E-11  5.54E-11  2.55E-11  6.95E-11  8.80E-11  2.52E-12
  7.04E-11  6.52E-11  3.51E-12  9.93E-12  2.43E-11  1.10E-11  4.95E-11  8.73E-12
  2.91E-11  9.10E-11  5.05E-11  1.17E-11  1.82E-11  1.86E-11  1.21E-11  1.19E-11
  1.29E-11  4.48E-11  5.57E-11  2.62E-11  1.79E-11  3.01E-11  1.45E-11  8.10E-11
  4.40E-11  1.55E-11  6.30E-11  7.55E-11  2.54E-11  3.83E-11  9.31E-11  9.16E-11
  5.26E-11  5.43E-11  7.36E-11  2.88E-11  4.74E-11  4.17E-06  1.13E-06  5.95E-05
  1.00E-04
 -1.4935E-01  1.5377E-02  7.6749E-02  1.6867E-01  3.0544E-01  3.9362E-01
  4.0614E-01  4.4061E-01  4.5762E-01  5.7096E-01  6.7879E-01  7.0620E-01
  7.0872E-01  8.2941E-01  8.5572E-01  8.5824E-01  9.1025E-01  1.0000E+00
  1.0204E+00  1.1035E+00  1.1246E+00  1.1567E+00  1.1977E+00  1.2164E+00
  1.2280E+00  1.2963E+00  1.3423E+00  1.3665E+00  1.4769E+00  1.4940E+00
  1.5416E+00  1.5766E+00  1.5984E+00  1.6024E+00  1.6237E+00  1.6409E+00
  1.6524E+00  1.7311E+00  1.8232E+00  1.8440E+00  1.8667E+00  1.9317E+00
  2.0087E+00  2.0334E+00  2.0711E+00  2.0754E+00  2.0867E+00  2.0931E+00
  2.1293E+00  2.1448E+00  2.1909E+00  2.2490E+00  2.2679E+00  2.2912E+00
  2.3366E+00  2.3408E+00  2.3625E+00  2.4364E+00  2.4435E+00  2.4808E+00
  2.4937E+00  2.5019E+00  2.5927E+00  2.6037E+00  2.6108E+00  2.6622E+00
  2.6938E+00  2.7238E+00  2.7275E+00  2.7495E+00  2.8147E+00  2.8542E+00
  2.8719E+00  2.8942E+00  2.8987E+00  2.9628E+00  2.9754E+00  2.9855E+00
  3.0229E+00  3.0526E+00  3.0821E+00  3.0843E+00  3.1047E+00  3.1716E+00
  3.1774E+00  3.2288E+00  3.2782E+00  3.3099E+00  3.3336E+00  3.3365E+00
  3.3711E+00  3.4219E+00  3.4471E+00  3.4879E+00  3.5347E+00  3.5522E+00
  3.5864E+00  3.5886E+00  3.6142E+00  3.6158E+00  3.6264E+00  3.7379E+00
  3.7499E+00  3.7765E+00  3.7859E+00
  prteigrs : nnsclo,ikpt=   10    2 max resid (incl. the buffer)=  1.00431E-04
 Non-SCF case, kpt    3 (  0.50000  0.50000  0.00000), residuals and eigenvalues=
  9.10E-13  8.56E-13  1.29E-11  4.21E-11  9.08E-13  6.22E-11  8.16E-13  8.17E-11
  3.58E-12  5.68E-11  3.44E-12  4.30E-11  6.12E-12  6.02E-12  5.65E-12  7.84E-11
  9.47E-12  3.81E-11  1.57E-12  1.40E-11  5.50E-12  6.91E-12  7.34E-12  1.20E-11
  2.38E-11  6.16E-11  1.35E-11  3.00E-11  5.24E-12  5.54E-11  6.79E-12  8.99E-11
  3.38E-12  3.61E-11  1.32E-11  1.68E-11  5.12E-12  4.15E-12  5.22E-12  8.07E-12
  4.18E-12  3.68E-12  6.86E-12  1.25E-11  3.84E-12  1.09E-11  6.40E-12  3.75E-11
  8.79E-12  5.62E-11  1.38E-11  4.83E-11  1.48E-11  3.81E-11  5.16E-12  1.59E-11
  5.82E-12  4.63E-11  1.54E-11  2.68E-11  7.02E-12  1.05E-11  1.95E-11  2.59E-11
  1.58E-11  1.59E-11  1.82E-11  2.71E-11  5.55E-11  5.98E-11  1.42E-11  6.00E-11
  2.38E-11  4.28E-11  5.07E-12  6.72E-12  9.46E-12  5.24E-11  1.05E-11  8.08E-11
  1.27E-11  1.74E-11  1.08E-11  5.18E-11  1.24E-11  3.33E-11  2.55E-11  4.70E-11
  3.60E-11  3.51E-11  5.51E-11  6.28E-11  2.05E-11  8.04E-11  5.65E-11  6.82E-11
  6.21E-11  3.48E-11  5.89E-11  7.09E-11  3.82E-11  7.05E-11  1.04E-08  6.16E-07
  5.79E-05
 -7.1147E-02 -7.1147E-02  1.1135E-01  1.1135E-01  2.3965E-01  2.3965E-01
  5.8712E-01  5.8712E-01  6.2863E-01  6.2863E-01  6.8552E-01  6.8552E-01
  6.8955E-01  6.8955E-01  9.1372E-01  9.1372E-01  9.4068E-01  9.4068E-01
  9.6355E-01  9.6355E-01  9.9609E-01  9.9609E-01  1.1664E+00  1.1664E+00
  1.3047E+00  1.3047E+00  1.4702E+00  1.4702E+00  1.4740E+00  1.4740E+00
  1.5494E+00  1.5494E+00  1.5717E+00  1.5717E+00  1.6800E+00  1.6800E+00
  1.7223E+00  1.7223E+00  1.7541E+00  1.7541E+00  1.8918E+00  1.8918E+00
  2.0210E+00  2.0210E+00  2.0401E+00  2.0401E+00  2.0969E+00  2.0969E+00
  2.2395E+00  2.2395E+00  2.3106E+00  2.3106E+00  2.3191E+00  2.3191E+00
  2.3203E+00  2.3203E+00  2.3485E+00  2.3485E+00  2.4407E+00  2.4407E+00
  2.4799E+00  2.4799E+00  2.4874E+00  2.4874E+00  2.7779E+00  2.7779E+00
  2.7923E+00  2.7923E+00  2.8033E+00  2.8033E+00  2.8941E+00  2.8941E+00
  2.9046E+00  2.9046E+00  2.9226E+00  2.9226E+00  2.9976E+00  2.9976E+00
  3.0192E+00  3.0192E+00  3.0319E+00  3.0319E+00  3.0491E+00  3.0491E+00
  3.1281E+00  3.1281E+00  3.1297E+00  3.1297E+00  3.2388E+00  3.2388E+00
  3.2418E+00  3.2418E+00  3.3462E+00  3.3462E+00  3.5206E+00  3.5206E+00
  3.5747E+00  3.5747E+00  3.6109E+00  3.6109E+00  3.6184E+00  3.6184E+00
  3.6853E+00  3.6853E+00  3.7290E+00
  prteigrs : nnsclo,ikpt=   10    3 max resid (incl. the buffer)=  5.78973E-05
 Non-SCF case, kpt    4 ( -0.25000  0.50000  0.25000), residuals and eigenvalues=
  5.87E-11  8.35E-11  1.72E-12  3.40E-12  1.80E-12  6.60E-11  3.24E-12  3.12E-11
  2.26E-11  3.99E-11  1.82E-12  2.07E-12  1.27E-11  6.24E-11  1.28E-12  8.69E-11
  4.27E-12  5.88E-11  1.20E-12  6.39E-11  2.36E-12  6.43E-11  2.92E-12  1.16E-11
  1.24E-11  8.55E-12  1.12E-11  3.65E-11  3.67E-12  4.03E-12  2.04E-12  7.30E-12
  2.03E-12  2.65E-12  6.74E-12  5.08E-12  2.35E-11  7.31E-11  2.22E-11  5.53E-11
  1.03E-11  7.52E-12  3.01E-12  1.41E-11  3.60E-12  3.22E-12  3.35E-12  5.62E-12
  6.88E-12  2.64E-11  1.45E-11  3.59E-11  7.33E-12  3.34E-11  1.73E-11  3.45E-11
  1.36E-11  2.07E-11  3.14E-11  6.98E-11  1.57E-11  3.24E-11  2.18E-12  1.99E-11
  7.15E-12  2.80E-11  2.48E-11  8.37E-11  5.40E-11  3.07E-11  1.00E-11  8.72E-11
  4.97E-11  7.44E-11  1.11E-11  5.43E-11  9.92E-12  4.99E-11  8.71E-12  1.32E-11
  1.30E-11  8.24E-11  7.82E-12  1.45E-11  5.03E-11  6.33E-11  2.17E-11  3.30E-11
  3.15E-11  3.07E-11  2.38E-11  3.06E-11  4.51E-11  3.57E-11  3.02E-11  7.96E-11
  6.12E-11  9.47E-11  9.29E-11  9.52E-11  9.69E-11  2.94E-09  3.22E-09  1.17E-07
  2.81E-05
 -6.4670E-02 -6.4670E-02  7.2844E-02  7.2844E-02  3.7335E-01  3.7335E-01
  4.0062E-01  4.0062E-01  6.0920E-01  6.0920E-01  6.9848E-01  6.9848E-01
  8.2289E-01  8.2289E-01  8.9573E-01  8.9573E-01  9.1648E-01  9.1648E-01
  9.5445E-01  9.5445E-01  1.0898E+00  1.0898E+00  1.2347E+00  1.2347E+00
  1.2372E+00  1.2372E+00  1.2747E+00  1.2747E+00  1.4361E+00  1.4361E+00
  1.5684E+00  1.5684E+00  1.6220E+00  1.6220E+00  1.7046E+00  1.7046E+00
  1.8154E+00  1.8154E+00  1.8349E+00  1.8349E+00  1.9327E+00  1.9327E+00
  1.9700E+00  1.9700E+00  2.0179E+00  2.0179E+00  2.0585E+00  2.0585E+00
  2.2504E+00  2.2504E+00  2.2708E+00  2.2708E+00  2.2928E+00  2.2928E+00
  2.3197E+00  2.3197E+00  2.4433E+00  2.4433E+00  2.4459E+00  2.4459E+00
  2.5502E+00  2.5502E+00  2.5849E+00  2.5849E+00  2.6158E+00  2.6158E+00
  2.6174E+00  2.6174E+00  2.8240E+00  2.8240E+00  2.8323E+00  2.8323E+00
  2.9242E+00  2.9242E+00  2.9913E+00  2.9913E+00  3.0007E+00  3.0007E+00
  3.0306E+00  3.0306E+00  3.0486E+00  3.0486E+00  3.0551E+00  3.0551E+00
  3.2250E+00  3.2250E+00  3.2414E+00  3.2414E+00  3.2489E+00  3.2489E+00
  3.2836E+00  3.2836E+00  3.4170E+00  3.4170E+00  3.4793E+00  3.4793E+00
  3.4891E+00  3.4891E+00  3.4940E+00  3.4940E+00  3.5666E+00  3.5666E+00
  3.6196E+00  3.6196E+00  3.7335E+00
  prteigrs : nnsclo,ikpt=   10    4 max resid (incl. the buffer)=  2.80543E-05
 Non-SCF case, kpt    5 (  0.50000  0.00000  0.00000), residuals and eigenvalues=
  8.28E-11  7.15E-12  8.86E-12  2.99E-11  3.37E-11  3.14E-11  3.39E-11  8.65E-12
  4.98E-12  5.38E-11  1.68E-11  2.35E-11  5.00E-11  6.01E-11  9.91E-13  5.76E-13
  3.92E-12  3.06E-11  1.32E-12  2.96E-12  1.04E-12  3.33E-12  9.28E-11  7.38E-12
  4.77E-12  2.08E-11  4.01E-12  6.54E-12  3.01E-11  3.85E-11  5.85E-12  3.33E-11
  1.01E-11  8.39E-12  6.28E-12  5.38E-11  4.19E-11  7.29E-12  7.50E-11  1.96E-11
  8.36E-11  6.25E-12  4.05E-11  9.00E-12  7.16E-11  7.73E-11  3.08E-11  5.84E-11
  1.41E-11  5.57E-12  7.50E-12  3.80E-11  3.19E-11  5.67E-11  3.50E-11  1.99E-11
  3.64E-12  4.72E-11  4.47E-11  7.86E-11  2.32E-11  6.86E-11  5.80E-11  2.30E-11
  9.78E-12  2.42E-12  7.81E-12  2.57E-11  2.98E-11  4.32E-11  4.46E-11  7.96E-12
  1.45E-11  7.03E-11  4.86E-12  1.38E-11  2.89E-11  9.95E-12  2.53E-11  2.21E-11
  2.64E-11  1.52E-11  4.17E-11  2.25E-11  6.43E-11  8.86E-11  1.91E-11  4.83E-11
  8.75E-11  1.32E-11  6.43E-11  2.95E-11  8.01E-11  6.33E-11  9.36E-11  8.16E-11
  8.24E-11  8.17E-11  2.27E-10  5.36E-09  1.61E-08  4.84E-07  5.04E-06  1.74E-05
  6.98E-06
 -1.3818E-01 -4.1790E-02  1.7368E-01  1.7368E-01  2.7224E-01  3.3997E-01
  3.3997E-01  4.9458E-01  6.1369E-01  6.1369E-01  6.2964E-01  6.3658E-01
  6.3658E-01  6.8635E-01  9.3091E-01  9.4935E-01  1.0216E+00  1.0216E+00
  1.0290E+00  1.0290E+00  1.1622E+00  1.2012E+00  1.2012E+00  1.2256E+00
  1.2256E+00  1.2528E+00  1.3738E+00  1.4085E+00  1.4085E+00  1.4163E+00
  1.4366E+00  1.4366E+00  1.5343E+00  1.5676E+00  1.7345E+00  1.7345E+00
  1.7645E+00  1.7867E+00  1.7867E+00  1.8071E+00  1.9030E+00  1.9706E+00
  1.9706E+00  2.0192E+00  2.0192E+00  2.0563E+00  2.1752E+00  2.1752E+00
  2.1877E+00  2.2041E+00  2.2041E+00  2.2113E+00  2.2990E+00  2.2990E+00
  2.3157E+00  2.3788E+00  2.3788E+00  2.4128E+00  2.4378E+00  2.4378E+00
  2.5151E+00  2.5151E+00  2.5785E+00  2.5988E+00  2.6234E+00  2.6353E+00
  2.6746E+00  2.6746E+00  2.7159E+00  2.7159E+00  2.7231E+00  2.7598E+00
  2.8957E+00  2.8957E+00  2.9048E+00  2.9098E+00  2.9098E+00  2.9958E+00
  2.9958E+00  3.0647E+00  3.0647E+00  3.0734E+00  3.0822E+00  3.2622E+00
  3.2622E+00  3.2906E+00  3.3250E+00  3.3302E+00  3.3302E+00  3.3706E+00
  3.4591E+00  3.4832E+00  3.4832E+00  3.5487E+00  3.5487E+00  3.5648E+00
  3.5707E+00  3.5707E+00  3.6343E+00  3.6511E+00  3.6511E+00  3.6689E+00
  3.6895E+00  3.7021E+00  3.7049E+00
  prteigrs : nnsclo,ikpt=   10    5 max resid (incl. the buffer)=  1.74289E-05
 Non-SCF case, kpt    6 (  0.00000  0.00000  0.00000), residuals and eigenvalues=
  4.09E-11  2.20E-12  4.78E-11  4.51E-11  1.99E-11  2.12E-11  4.93E-11  6.07E-11
  1.44E-11  8.94E-13  9.38E-13  2.21E-12  4.48E-12  3.31E-11  1.15E-11  7.82E-12
  3.95E-12  6.60E-12  9.65E-13  2.71E-12  5.06E-12  2.91E-11  9.65E-11  1.37E-11
  2.88E-11  8.27E-11  1.86E-11  7.75E-12  1.18E-11  5.66E-12  1.25E-11  1.30E-11
  7.12E-12  6.96E-11  8.74E-12  3.31E-12  9.34E-11  1.59E-12  6.27E-12  7.79E-12
  8.22E-11  8.32E-12  4.13E-12  4.71E-12  3.24E-11  2.86E-12  4.16E-12  6.36E-12
  3.08E-12  7.17E-12  7.22E-11  1.39E-11  1.07E-11  9.26E-12  1.06E-11  8.09E-12
  5.80E-12  3.83E-12  3.92E-11  3.19E-11  4.95E-11  8.51E-12  8.00E-12  1.33E-11
  5.33E-11  4.83E-11  2.66E-11  3.29E-11  7.50E-11  1.02E-11  1.18E-11  1.46E-11
  1.99E-11  4.05E-11  5.93E-11  2.48E-11  3.34E-11  3.56E-11  2.51E-11  3.39E-11
  6.48E-11  4.42E-11  4.31E-11  6.99E-11  4.49E-11  5.86E-11  6.49E-11  2.90E-11
  8.67E-11  3.43E-11  4.42E-11  2.46E-11  5.06E-11  6.22E-11  4.49E-11  4.50E-11
  5.31E-10  9.99E-10  1.43E-08  1.48E-06  2.90E-06  4.45E-10  4.61E-07  2.29E-05
  5.14E-06
 -2.2583E-01  2.1870E-01  2.1870E-01  2.1870E-01  3.1105E-01  3.1105E-01
  3.1105E-01  3.3827E-01  4.9983E-01  5.0841E-01  5.0841E-01  6.2895E-01
  6.2895E-01  6.2895E-01  7.7153E-01  1.0774E+00  1.0774E+00  1.0774E+00
  1.1199E+00  1.1199E+00  1.1547E+00  1.1547E+00  1.1547E+00  1.3055E+00
  1.3055E+00  1.3055E+00  1.5015E+00  1.5230E+00  1.5230E+00  1.5230E+00
  1.6651E+00  1.6651E+00  1.7241E+00  1.7241E+00  1.7427E+00  1.7427E+00
  1.7427E+00  1.7994E+00  1.8397E+00  1.8397E+00  1.8397E+00  1.8541E+00
  1.8813E+00  1.8813E+00  1.8813E+00  1.8904E+00  1.8904E+00  1.8904E+00
  1.9378E+00  1.9378E+00  1.9378E+00  2.0838E+00  2.1190E+00  2.1190E+00
  2.1190E+00  2.1223E+00  2.1223E+00  2.1223E+00  2.1396E+00  2.6874E+00
  2.6874E+00  2.6900E+00  2.7936E+00  2.7936E+00  2.7936E+00  2.7981E+00
  2.9202E+00  2.9202E+00  2.9202E+00  2.9444E+00  2.9444E+00  2.9467E+00
  2.9467E+00  2.9467E+00  3.0304E+00  3.0982E+00  3.0982E+00  3.0982E+00
  3.2447E+00  3.2447E+00  3.2447E+00  3.2994E+00  3.2994E+00  3.2994E+00
  3.3019E+00  3.3019E+00  3.3019E+00  3.3087E+00  3.3087E+00  3.4391E+00
  3.4391E+00  3.4576E+00  3.4576E+00  3.4576E+00  3.4753E+00  3.5701E+00
  3.5701E+00  3.5701E+00  3.6118E+00  3.6118E+00  3.6119E+00  3.6187E+00
  3.6187E+00  3.6189E+00  3.6400E+00
  prteigrs : nnsclo,ikpt=   10    6 max resid (incl. the buffer)=  2.29146E-05

 scprqt:  WARNING -
  nstep=   10 was not enough non-SCF iterations to converge;
  maximum residual=  1.475E-06 exceeds tolwfr=  1.000E-10


======================================================================
 Calculating and writing out Kohn-Sham electronic Structure file
 Using conjugate gradient wavefunctions and energies (kssform=3)
 number of Gamma centered plane waves    459
 number of Gamma centered shells     24
 number of bands    100
 maximum angular momentum components      3
 Conjugate gradient eigenvalues
   k    eigenvalues [Hartree]
   1     -0.1854  0.0886  0.1473  0.1473  0.2559  0.3300  0.4300  0.4300  0.5110
          0.5519  0.6297  0.6968  0.6968  0.7203  0.8581  0.8581  0.9014  0.9591
          0.9882  1.1385  1.1876  1.2239  1.2239  1.3030  1.3030  1.3170  1.3271
          1.4936  1.5075  1.5330  1.5330  1.5942  1.5942  1.5964  1.6446  1.6666
          1.7254  1.7254  1.7526  1.8311  1.8311  1.8481  1.8671  1.9431  1.9553
          1.9553  1.9938  2.0396  2.0928  2.1033  2.1068  2.1068  2.2211  2.3046
          2.3431  2.3431  2.4779  2.4876  2.5020  2.5020  2.5467  2.5550  2.5621
          2.5621  2.6092  2.6875  2.6999  2.7194  2.7194  2.8071  2.8433  2.8433
          2.8547  2.9366  2.9366  2.9617  2.9863  2.9907  3.0654  3.0883  3.0883
          3.1641  3.2201  3.2201  3.2272  3.2758  3.3405  3.3405  3.3907  3.4398
          3.4398  3.4441  3.5069  3.5386  3.5386  3.5684  3.5859  3.6043  3.6043
          3.6081
   2     -0.1494  0.0154  0.0767  0.1687  0.3054  0.3936  0.4061  0.4406  0.4576
          0.5710  0.6788  0.7062  0.7087  0.8294  0.8557  0.8582  0.9103  1.0000
          1.0204  1.1035  1.1246  1.1567  1.1977  1.2164  1.2280  1.2963  1.3423
          1.3665  1.4769  1.4940  1.5416  1.5766  1.5984  1.6024  1.6237  1.6409
          1.6524  1.7311  1.8232  1.8440  1.8667  1.9317  2.0087  2.0334  2.0711
          2.0754  2.0867  2.0931  2.1293  2.1448  2.1909  2.2490  2.2679  2.2912
          2.3366  2.3408  2.3625  2.4364  2.4435  2.4808  2.4937  2.5019  2.5927
          2.6037  2.6108  2.6622  2.6938  2.7238  2.7275  2.7495  2.8147  2.8542
          2.8719  2.8942  2.8987  2.9628  2.9754  2.9855  3.0229  3.0526  3.0821
          3.0843  3.1047  3.1716  3.1774  3.2288  3.2782  3.3099  3.3336  3.3365
          3.3711  3.4219  3.4471  3.4879  3.5347  3.5522  3.5864  3.5886  3.6142
          3.6158
   3     -0.0711 -0.0711  0.1113  0.1113  0.2397  0.2397  0.5871  0.5871  0.6286
          0.6286  0.6855  0.6855  0.6895  0.6895  0.9137  0.9137  0.9407  0.9407
          0.9636  0.9636  0.9961  0.9961  1.1664  1.1664  1.3047  1.3047  1.4702
          1.4702  1.4740  1.4740  1.5494  1.5494  1.5717  1.5717  1.6800  1.6800
          1.7223  1.7223  1.7541  1.7541  1.8918  1.8918  2.0210  2.0210  2.0401
          2.0401  2.0969  2.0969  2.2395  2.2395  2.3106  2.3106  2.3191  2.3191
          2.3203  2.3203  2.3485  2.3485  2.4407  2.4407  2.4799  2.4799  2.4874
          2.4874  2.7779  2.7779  2.7923  2.7923  2.8033  2.8033  2.8941  2.8941
          2.9046  2.9046  2.9226  2.9226  2.9976  2.9976  3.0192  3.0192  3.0319
          3.0319  3.0491  3.0491  3.1281  3.1281  3.1297  3.1297  3.2388  3.2388
          3.2418  3.2418  3.3462  3.3462  3.5206  3.5206  3.5747  3.5747  3.6109
          3.6109
   4     -0.0647 -0.0647  0.0728  0.0728  0.3734  0.3734  0.4006  0.4006  0.6092
          0.6092  0.6985  0.6985  0.8229  0.8229  0.8957  0.8957  0.9165  0.9165
          0.9544  0.9544  1.0898  1.0898  1.2347  1.2347  1.2372  1.2372  1.2747
          1.2747  1.4361  1.4361  1.5684  1.5684  1.6220  1.6220  1.7046  1.7046
          1.8154  1.8154  1.8349  1.8349  1.9327  1.9327  1.9700  1.9700  2.0179
          2.0179  2.0585  2.0585  2.2504  2.2504  2.2708  2.2708  2.2928  2.2928
          2.3197  2.3197  2.4433  2.4433  2.4459  2.4459  2.5502  2.5502  2.5849
          2.5849  2.6158  2.6158  2.6174  2.6174  2.8240  2.8240  2.8323  2.8323
          2.9242  2.9242  2.9913  2.9913  3.0007  3.0007  3.0306  3.0306  3.0486
          3.0486  3.0551  3.0551  3.2250  3.2250  3.2414  3.2414  3.2489  3.2489
          3.2836  3.2836  3.4170  3.4170  3.4793  3.4793  3.4891  3.4891  3.4940
          3.4940
   5     -0.1382 -0.0418  0.1737  0.1737  0.2722  0.3400  0.3400  0.4946  0.6137
          0.6137  0.6296  0.6366  0.6366  0.6863  0.9309  0.9494  1.0216  1.0216
          1.0290  1.0290  1.1622  1.2012  1.2012  1.2256  1.2256  1.2528  1.3738
          1.4085  1.4085  1.4163  1.4366  1.4366  1.5343  1.5676  1.7345  1.7345
          1.7645  1.7867  1.7867  1.8071  1.9030  1.9706  1.9706  2.0192  2.0192
          2.0563  2.1752  2.1752  2.1877  2.2041  2.2041  2.2113  2.2990  2.2990
          2.3157  2.3788  2.3788  2.4128  2.4378  2.4378  2.5151  2.5151  2.5785
          2.5988  2.6234  2.6353  2.6746  2.6746  2.7159  2.7159  2.7231  2.7598
          2.8957  2.8957  2.9048  2.9098  2.9098  2.9958  2.9958  3.0647  3.0647
          3.0734  3.0822  3.2622  3.2622  3.2906  3.3250  3.3302  3.3302  3.3706
          3.4591  3.4832  3.4832  3.5487  3.5487  3.5648  3.5707  3.5707  3.6343
          3.6511
   6     -0.2258  0.2187  0.2187  0.2187  0.3110  0.3110  0.3110  0.3383  0.4998
          0.5084  0.5084  0.6289  0.6289  0.6289  0.7715  1.0774  1.0774  1.0774
          1.1199  1.1199  1.1547  1.1547  1.1547  1.3055  1.3055  1.3055  1.5015
          1.5230  1.5230  1.5230  1.6651  1.6651  1.7241  1.7241  1.7427  1.7427
          1.7427  1.7994  1.8397  1.8397  1.8397  1.8541  1.8813  1.8813  1.8813
          1.8904  1.8904  1.8904  1.9378  1.9378  1.9378  2.0838  2.1190  2.1190
          2.1190  2.1223  2.1223  2.1223  2.1396  2.6874  2.6874  2.6900  2.7936
          2.7936  2.7936  2.7981  2.9202  2.9202  2.9202  2.9444  2.9444  2.9467
          2.9467  2.9467  3.0304  3.0982  3.0982  3.0982  3.2447  3.2447  3.2447
          3.2994  3.2994  3.2994  3.3019  3.3019  3.3019  3.3087  3.3087  3.4391
          3.4391  3.4576  3.4576  3.4576  3.4753  3.5701  3.5701  3.5701  3.6118
          3.6118
 Test on the normalization of the wavefunctions
  min sum_G |a(n,k,G)| =  1.000000
  max sum_G |a(n,k,G)| =  1.000000
 Test on the orthogonalization of the wavefunctions
  min sum_G a(n,k,G)a(n',k,G) =  0.000000
  max sum_G a(n,k,G)a(n',k,G) =  0.000000

================================================================================

 ----iterations are completed or convergence reached----

 Mean square residual over all n,k,spin=   5.0863E-07; max=  1.0043E-04
  -0.2500 -0.2500  0.0000    1  4.00743E-06 kpt; spin; max resid(k); each band:
  7.12E-13 7.70E-13 1.36E-11 4.23E-11 9.46E-11 1.31E-12 2.82E-12 1.79E-12
  1.44E-12 3.46E-12 7.24E-11 1.59E-12 4.46E-12 2.28E-12 2.40E-12 4.75E-12
  3.95E-12 3.75E-11 9.97E-13 5.74E-11 2.19E-12 6.81E-12 2.31E-12 3.78E-12
  4.56E-11 8.28E-11 2.64E-12 7.58E-11 4.72E-12 3.16E-12 3.69E-12 1.72E-11
  1.73E-11 2.13E-11 5.37E-12 7.01E-11 8.19E-12 3.76E-11 2.98E-11 2.42E-11
  4.23E-11 2.51E-12 5.80E-12 4.70E-12 1.63E-11 4.18E-11 5.65E-11 1.72E-11
  1.63E-11 9.02E-11 2.40E-11 2.41E-11 5.00E-11 2.26E-11 1.92E-11 3.05E-11
  2.98E-12 1.20E-11 2.52E-11 4.70E-11 7.17E-12 1.36E-11 1.38E-11 1.62E-11
  1.60E-11 2.52E-11 2.59E-11 2.12E-11 2.26E-11 4.71E-11 1.85E-11 3.30E-11
  1.57E-11 7.79E-12 3.66E-11 3.33E-11 1.33E-11 2.42E-11 1.78E-11 2.23E-11
  1.61E-11 1.49E-11 1.45E-11 5.03E-11 8.79E-11 6.02E-11 5.44E-11 8.62E-11
  8.50E-11 7.16E-11 5.71E-11 4.66E-11 5.01E-11 4.69E-11 8.22E-11 7.38E-11
  5.43E-11 4.97E-11 4.03E-11 4.94E-11 1.44E-07 2.94E-07 8.50E-11 1.19E-06
  4.01E-06
  -0.2500  0.2500  0.0000    1  1.00431E-04 kpt; spin; max resid(k); each band:
  6.95E-11 5.53E-13 1.08E-11 2.24E-11 4.67E-13 6.82E-13 2.32E-12 5.19E-11
  1.36E-12 7.36E-13 9.86E-13 2.66E-12 1.07E-12 1.02E-11 3.55E-11 1.85E-11
  3.90E-12 9.03E-11 1.93E-11 4.90E-11 7.54E-13 2.83E-11 1.14E-12 3.00E-11
  7.68E-11 1.18E-11 1.38E-12 5.31E-11 1.63E-12 2.20E-12 3.44E-11 2.22E-11
  1.42E-12 4.62E-11 9.76E-11 8.95E-12 1.66E-12 2.71E-11 4.29E-12 3.04E-12
  2.08E-11 9.79E-11 2.60E-12 5.72E-12 1.52E-11 1.07E-11 3.88E-12 4.18E-12
  5.97E-12 3.93E-12 1.48E-11 1.41E-11 2.11E-11 1.53E-11 3.04E-11 9.33E-12
  1.51E-11 3.35E-11 5.65E-11 5.54E-11 2.55E-11 6.95E-11 8.80E-11 2.52E-12
  7.04E-11 6.52E-11 3.51E-12 9.93E-12 2.43E-11 1.10E-11 4.95E-11 8.73E-12
  2.91E-11 9.10E-11 5.05E-11 1.17E-11 1.82E-11 1.86E-11 1.21E-11 1.19E-11
  1.29E-11 4.48E-11 5.57E-11 2.62E-11 1.79E-11 3.01E-11 1.45E-11 8.10E-11
  4.40E-11 1.55E-11 6.30E-11 7.55E-11 2.54E-11 3.83E-11 9.31E-11 9.16E-11
  5.26E-11 5.43E-11 7.36E-11 2.88E-11 4.74E-11 4.17E-06 1.13E-06 5.95E-05
  1.00E-04
   0.5000  0.5000  0.0000    1  5.78973E-05 kpt; spin; max resid(k); each band:
  9.10E-13 8.56E-13 1.29E-11 4.21E-11 9.08E-13 6.22E-11 8.16E-13 8.17E-11
  3.58E-12 5.68E-11 3.44E-12 4.30E-11 6.12E-12 6.02E-12 5.65E-12 7.84E-11
  9.47E-12 3.81E-11 1.57E-12 1.40E-11 5.50E-12 6.91E-12 7.34E-12 1.20E-11
  2.38E-11 6.16E-11 1.35E-11 3.00E-11 5.24E-12 5.54E-11 6.79E-12 8.99E-11
  3.38E-12 3.61E-11 1.32E-11 1.68E-11 5.12E-12 4.15E-12 5.22E-12 8.07E-12
  4.18E-12 3.68E-12 6.86E-12 1.25E-11 3.84E-12 1.09E-11 6.40E-12 3.75E-11
  8.79E-12 5.62E-11 1.38E-11 4.83E-11 1.48E-11 3.81E-11 5.16E-12 1.59E-11
  5.82E-12 4.63E-11 1.54E-11 2.68E-11 7.02E-12 1.05E-11 1.95E-11 2.59E-11
  1.58E-11 1.59E-11 1.82E-11 2.71E-11 5.55E-11 5.98E-11 1.42E-11 6.00E-11
  2.38E-11 4.28E-11 5.07E-12 6.72E-12 9.46E-12 5.24E-11 1.05E-11 8.08E-11
  1.27E-11 1.74E-11 1.08E-11 5.18E-11 1.24E-11 3.33E-11 2.55E-11 4.70E-11
  3.60E-11 3.51E-11 5.51E-11 6.28E-11 2.05E-11 8.04E-11 5.65E-11 6.82E-11
  6.21E-11 3.48E-11 5.89E-11 7.09E-11 3.82E-11 7.05E-11 1.04E-08 6.16E-07
  5.79E-05
  -0.2500  0.5000  0.2500    1  2.80543E-05 kpt; spin; max resid(k); each band:
  5.87E-11 8.35E-11 1.72E-12 3.40E-12 1.80E-12 6.60E-11 3.24E-12 3.12E-11
  2.26E-11 3.99E-11 1.82E-12 2.07E-12 1.27E-11 6.24E-11 1.28E-12 8.69E-11
  4.27E-12 5.88E-11 1.20E-12 6.39E-11 2.36E-12 6.43E-11 2.92E-12 1.16E-11
  1.24E-11 8.55E-12 1.12E-11 3.65E-11 3.67E-12 4.03E-12 2.04E-12 7.30E-12
  2.03E-12 2.65E-12 6.74E-12 5.08E-12 2.35E-11 7.31E-11 2.22E-11 5.53E-11
  1.03E-11 7.52E-12 3.01E-12 1.41E-11 3.60E-12 3.22E-12 3.35E-12 5.62E-12
  6.88E-12 2.64E-11 1.45E-11 3.59E-11 7.33E-12 3.34E-11 1.73E-11 3.45E-11
  1.36E-11 2.07E-11 3.14E-11 6.98E-11 1.57E-11 3.24E-11 2.18E-12 1.99E-11
  7.15E-12 2.80E-11 2.48E-11 8.37E-11 5.40E-11 3.07E-11 1.00E-11 8.72E-11
  4.97E-11 7.44E-11 1.11E-11 5.43E-11 9.92E-12 4.99E-11 8.71E-12 1.32E-11
  1.30E-11 8.24E-11 7.82E-12 1.45E-11 5.03E-11 6.33E-11 2.17E-11 3.30E-11
  3.15E-11 3.07E-11 2.38E-11 3.06E-11 4.51E-11 3.57E-11 3.02E-11 7.96E-11
  6.12E-11 9.47E-11 9.29E-11 9.52E-11 9.69E-11 2.94E-09 3.22E-09 1.17E-07
  2.81E-05
   0.5000  0.0000  0.0000    1  1.74289E-05 kpt; spin; max resid(k); each band:
  8.28E-11 7.15E-12 8.86E-12 2.99E-11 3.37E-11 3.14E-11 3.39E-11 8.65E-12
  4.98E-12 5.38E-11 1.68E-11 2.35E-11 5.00E-11 6.01E-11 9.91E-13 5.76E-13
  3.92E-12 3.06E-11 1.32E-12 2.96E-12 1.04E-12 3.33E-12 9.28E-11 7.38E-12
  4.77E-12 2.08E-11 4.01E-12 6.54E-12 3.01E-11 3.85E-11 5.85E-12 3.33E-11
  1.01E-11 8.39E-12 6.28E-12 5.38E-11 4.19E-11 7.29E-12 7.50E-11 1.96E-11
  8.36E-11 6.25E-12 4.05E-11 9.00E-12 7.16E-11 7.73E-11 3.08E-11 5.84E-11
  1.41E-11 5.57E-12 7.50E-12 3.80E-11 3.19E-11 5.67E-11 3.50E-11 1.99E-11
  3.64E-12 4.72E-11 4.47E-11 7.86E-11 2.32E-11 6.86E-11 5.80E-11 2.30E-11
  9.78E-12 2.42E-12 7.81E-12 2.57E-11 2.98E-11 4.32E-11 4.46E-11 7.96E-12
  1.45E-11 7.03E-11 4.86E-12 1.38E-11 2.89E-11 9.95E-12 2.53E-11 2.21E-11
  2.64E-11 1.52E-11 4.17E-11 2.25E-11 6.43E-11 8.86E-11 1.91E-11 4.83E-11
  8.75E-11 1.32E-11 6.43E-11 2.95E-11 8.01E-11 6.33E-11 9.36E-11 8.16E-11
  8.24E-11 8.17E-11 2.27E-10 5.36E-09 1.61E-08 4.84E-07 5.04E-06 1.74E-05
  6.98E-06
   0.0000  0.0000  0.0000    1  2.29146E-05 kpt; spin; max resid(k); each band:
  4.09E-11 2.20E-12 4.78E-11 4.51E-11 1.99E-11 2.12E-11 4.93E-11 6.07E-11
  1.44E-11 8.94E-13 9.38E-13 2.21E-12 4.48E-12 3.31E-11 1.15E-11 7.82E-12
  3.95E-12 6.60E-12 9.65E-13 2.71E-12 5.06E-12 2.91E-11 9.65E-11 1.37E-11
  2.88E-11 8.27E-11 1.86E-11 7.75E-12 1.18E-11 5.66E-12 1.25E-11 1.30E-11
  7.12E-12 6.96E-11 8.74E-12 3.31E-12 9.34E-11 1.59E-12 6.27E-12 7.79E-12
  8.22E-11 8.32E-12 4.13E-12 4.71E-12 3.24E-11 2.86E-12 4.16E-12 6.36E-12
  3.08E-12 7.17E-12 7.22E-11 1.39E-11 1.07E-11 9.26E-12 1.06E-11 8.09E-12
  5.80E-12 3.83E-12 3.92E-11 3.19E-11 4.95E-11 8.51E-12 8.00E-12 1.33E-11
  5.33E-11 4.83E-11 2.66E-11 3.29E-11 7.50E-11 1.02E-11 1.18E-11 1.46E-11
  1.99E-11 4.05E-11 5.93E-11 2.48E-11 3.34E-11 3.56E-11 2.51E-11 3.39E-11
  6.48E-11 4.42E-11 4.31E-11 6.99E-11 4.49E-11 5.86E-11 6.49E-11 2.90E-11
  8.67E-11 3.43E-11 4.42E-11 2.46E-11 5.06E-11 6.22E-11 4.49E-11 4.50E-11
  5.31E-10 9.99E-10 1.43E-08 1.48E-06 2.90E-06 4.45E-10 4.61E-07 2.29E-05
  5.14E-06
 reduced coordinates (array xred) for    2 atoms
       0.000000000000      0.000000000000      0.000000000000
       0.250000000000      0.250000000000      0.250000000000

 cartesian coordinates (angstrom) at end:
    1      0.00000000000000     0.00000000000000     0.00000000000000
    2      1.35165088504101     1.35165088504101     1.35165088504101
 length scales= 10.217000000000 10.217000000000 10.217000000000 bohr
              =  5.406603540164  5.406603540164  5.406603540164 angstroms
 prteigrs : about to open file tgw1_9o_DS2_EIG
 Eigenvalues (hartree) for nkpt=   6  k points:
 kpt#   1, nband=105, wtk=  0.18750, kpt= -0.2500 -0.2500  0.0000 (reduced coord)
  -0.18544   0.08859   0.14729   0.14729   0.25588   0.32996   0.43002   0.43002
   0.51096   0.55194   0.62970   0.69685   0.69685   0.72028   0.85811   0.85811
   0.90142   0.95913   0.98818   1.13853   1.18759   1.22391   1.22391   1.30303
   1.30303   1.31698   1.32709   1.49363   1.50749   1.53298   1.53298   1.59421
   1.59421   1.59637   1.64463   1.66664   1.72539   1.72539   1.75260   1.83106
   1.83106   1.84807   1.86714   1.94307   1.95535   1.95535   1.99381   2.03962
   2.09283   2.10333   2.10682   2.10682   2.22114   2.30456   2.34312   2.34312
   2.47787   2.48756   2.50197   2.50197   2.54667   2.55497   2.56205   2.56205
   2.60920   2.68754   2.69991   2.71940   2.71940   2.80714   2.84325   2.84325
   2.85470   2.93664   2.93664   2.96172   2.98628   2.99069   3.06537   3.08830
   3.08830   3.16411   3.22007   3.22007   3.22717   3.27582   3.34054   3.34054
   3.39074   3.43983   3.43983   3.44413   3.50686   3.53865   3.53865   3.56838
   3.58588   3.60434   3.60434   3.60808   3.67481   3.68569   3.72072   3.72111
   3.72339
 kpt#   2, nband=105, wtk=  0.37500, kpt= -0.2500  0.2500  0.0000 (reduced coord)
  -0.14935   0.01538   0.07675   0.16867   0.30544   0.39362   0.40614   0.44061
   0.45762   0.57096   0.67879   0.70620   0.70872   0.82941   0.85572   0.85824
   0.91025   1.00001   1.02036   1.10351   1.12458   1.15673   1.19770   1.21638
   1.22799   1.29633   1.34233   1.36650   1.47686   1.49395   1.54161   1.57656
   1.59841   1.60240   1.62367   1.64088   1.65243   1.73109   1.82324   1.84396
   1.86669   1.93171   2.00874   2.03340   2.07114   2.07544   2.08667   2.09307
   2.12928   2.14484   2.19092   2.24901   2.26789   2.29124   2.33658   2.34077
   2.36253   2.43640   2.44348   2.48085   2.49369   2.50194   2.59270   2.60372
   2.61078   2.66222   2.69383   2.72380   2.72747   2.74948   2.81469   2.85421
   2.87189   2.89419   2.89873   2.96284   2.97537   2.98548   3.02289   3.05262
   3.08208   3.08434   3.10469   3.17158   3.17737   3.22882   3.27817   3.30993
   3.33363   3.33647   3.37114   3.42191   3.44710   3.48791   3.53469   3.55219
   3.58644   3.58864   3.61416   3.61576   3.62644   3.73794   3.74986   3.77652
   3.78590
 kpt#   3, nband=105, wtk=  0.09375, kpt=  0.5000  0.5000  0.0000 (reduced coord)
  -0.07115  -0.07115   0.11135   0.11135   0.23965   0.23965   0.58712   0.58712
   0.62863   0.62863   0.68552   0.68552   0.68955   0.68955   0.91372   0.91372
   0.94068   0.94068   0.96355   0.96355   0.99609   0.99609   1.16637   1.16637
   1.30473   1.30473   1.47015   1.47015   1.47402   1.47402   1.54939   1.54939
   1.57171   1.57171   1.68005   1.68005   1.72225   1.72225   1.75414   1.75414
   1.89182   1.89182   2.02105   2.02105   2.04006   2.04006   2.09693   2.09693
   2.23945   2.23945   2.31058   2.31058   2.31907   2.31907   2.32034   2.32034
   2.34846   2.34846   2.44067   2.44067   2.47987   2.47987   2.48738   2.48738
   2.77788   2.77788   2.79235   2.79235   2.80330   2.80330   2.89407   2.89407
   2.90457   2.90457   2.92262   2.92262   2.99757   2.99757   3.01918   3.01918
   3.03185   3.03185   3.04910   3.04910   3.12809   3.12809   3.12969   3.12969
   3.23878   3.23878   3.24182   3.24182   3.34623   3.34623   3.52057   3.52057
   3.57472   3.57472   3.61090   3.61090   3.61837   3.61837   3.68528   3.68528
   3.72904
 kpt#   4, nband=105, wtk=  0.18750, kpt= -0.2500  0.5000  0.2500 (reduced coord)
  -0.06467  -0.06467   0.07284   0.07284   0.37335   0.37335   0.40062   0.40062
   0.60920   0.60920   0.69848   0.69848   0.82289   0.82289   0.89573   0.89573
   0.91648   0.91648   0.95445   0.95445   1.08981   1.08981   1.23466   1.23466
   1.23723   1.23723   1.27466   1.27466   1.43611   1.43611   1.56841   1.56841
   1.62203   1.62203   1.70459   1.70459   1.81540   1.81540   1.83490   1.83490
   1.93271   1.93271   1.96996   1.96996   2.01788   2.01788   2.05852   2.05852
   2.25045   2.25045   2.27077   2.27077   2.29279   2.29279   2.31967   2.31967
   2.44332   2.44332   2.44593   2.44593   2.55019   2.55019   2.58488   2.58488
   2.61582   2.61582   2.61743   2.61743   2.82402   2.82402   2.83234   2.83234
   2.92424   2.92424   2.99130   2.99130   3.00074   3.00074   3.03056   3.03056
   3.04862   3.04862   3.05513   3.05513   3.22496   3.22496   3.24144   3.24144
   3.24886   3.24886   3.28363   3.28363   3.41701   3.41701   3.47931   3.47931
   3.48915   3.48915   3.49399   3.49399   3.56657   3.56657   3.61959   3.61959
   3.73348
 kpt#   5, nband=105, wtk=  0.12500, kpt=  0.5000  0.0000  0.0000 (reduced coord)
  -0.13818  -0.04179   0.17368   0.17368   0.27224   0.33997   0.33997   0.49458
   0.61369   0.61369   0.62964   0.63658   0.63658   0.68635   0.93091   0.94935
   1.02155   1.02155   1.02898   1.02898   1.16225   1.20125   1.20125   1.22557
   1.22557   1.25279   1.37377   1.40853   1.40853   1.41631   1.43658   1.43658
   1.53426   1.56761   1.73452   1.73452   1.76447   1.78673   1.78673   1.80711
   1.90300   1.97062   1.97062   2.01922   2.01922   2.05633   2.17518   2.17518
   2.18769   2.20408   2.20408   2.21131   2.29904   2.29904   2.31567   2.37882
   2.37882   2.41282   2.43778   2.43778   2.51513   2.51513   2.57846   2.59875
   2.62345   2.63535   2.67462   2.67462   2.71592   2.71592   2.72314   2.75980
   2.89574   2.89574   2.90476   2.90979   2.90979   2.99575   2.99575   3.06468
   3.06468   3.07336   3.08217   3.26218   3.26218   3.29056   3.32498   3.33015
   3.33015   3.37057   3.45909   3.48319   3.48319   3.54870   3.54870   3.56484
   3.57065   3.57065   3.63434   3.65111   3.65111   3.66895   3.68950   3.70212
   3.70488
 kpt#   6, nband=105, wtk=  0.03125, kpt=  0.0000  0.0000  0.0000 (reduced coord)
  -0.22583   0.21870   0.21870   0.21870   0.31105   0.31105   0.31105   0.33827
   0.49983   0.50841   0.50841   0.62895   0.62895   0.62895   0.77153   1.07742
   1.07742   1.07742   1.11985   1.11985   1.15469   1.15469   1.15469   1.30547
   1.30547   1.30547   1.50149   1.52299   1.52299   1.52299   1.66510   1.66510
   1.72415   1.72415   1.74266   1.74266   1.74266   1.79940   1.83975   1.83975
   1.83975   1.85412   1.88128   1.88128   1.88128   1.89041   1.89041   1.89041
   1.93776   1.93776   1.93776   2.08376   2.11897   2.11897   2.11897   2.12229
   2.12229   2.12229   2.13958   2.68742   2.68742   2.69003   2.79357   2.79357
   2.79357   2.79807   2.92018   2.92018   2.92018   2.94443   2.94443   2.94665
   2.94665   2.94665   3.03043   3.09818   3.09818   3.09818   3.24470   3.24470
   3.24470   3.29937   3.29937   3.29937   3.30188   3.30188   3.30188   3.30865
   3.30865   3.43912   3.43912   3.45757   3.45757   3.45757   3.47528   3.57008
   3.57008   3.57008   3.61184   3.61185   3.61186   3.61872   3.61873   3.61885
   3.64003
 Total charge density [el/Bohr^3]
,     Maximum=    8.6682E-02  at reduced coord.    0.1000    0.1000    0.7000
,Next maximum=    8.6682E-02  at reduced coord.    0.1500    0.1500    0.5500
,     Minimum=    3.2358E-03  at reduced coord.    0.5000    0.5000    0.5000
,Next minimum=    3.2358E-03  at reduced coord.    0.7500    0.7500    0.7500
,  Integrated=    8.0000E+00

================================================================================
== DATASET  3 ==================================================================
-   nproc =    1

 mkfilename : getkss/=0, take file _KSS from output of DATASET   2.

 Exchange-correlation functional for the present dataset will be:
  LDA: new Teter (4/93) with spin-polarized option - ixc=1
 Citation for XC functional:
  S. Goedecker, M. Teter, J. Huetter, PRB 54, 1703 (1996)

 SCREENING: Calculation of the susceptibility and dielectric matrices 

 Based on a program developped by R.W. Godby, V. Olevano, G. Onida, and L. Reining.
 Incorporated in ABINIT by V. Olevano, G.-M. Rignanese, and M. Torrent.
.Using double precision arithmetic ; gwpc =  8

 Real(R)+Recip(G) space primitive vectors, cartesian coordinates (Bohr,Bohr^-1):
 R(1)=  0.0000000  5.1085000  5.1085000  G(1)= -0.0978761  0.0978761  0.0978761
 R(2)=  5.1085000  0.0000000  5.1085000  G(2)=  0.0978761 -0.0978761  0.0978761
 R(3)=  5.1085000  5.1085000  0.0000000  G(3)=  0.0978761  0.0978761 -0.0978761
 Unit cell volume ucvol=  2.6663072E+02 bohr^3
 Angles (23,13,12)=  6.00000000E+01  6.00000000E+01  6.00000000E+01 degrees

--- Pseudopotential description ------------------------------------------------
- pspini: atom type   1  psp file is /home/gonze/ABINIT/ABINITv7.10.4/trunk/7.10.4-private/tests/Psps_for_tests/14si.pspnc
- pspatm: opening atomic psp file    /home/gonze/ABINIT/ABINITv7.10.4/trunk/7.10.4-private/tests/Psps_for_tests/14si.pspnc
-  Troullier-Martins psp for element  Si        Thu Oct 27 17:31:21 EDT 1994
- 14.00000   4.00000    940714                znucl, zion, pspdat
    1    1    2    2      2001   0.00000      pspcod,pspxc,lmax,lloc,mmax,r2well
    0   5.907  14.692    1   2.0872718        l,e99.0,e99.9,nproj,rcpsp
   0.00000000   0.00000000   0.00000000   0.00000000     rms, ekb1, ekb2, epsatm
    1   2.617   4.181    1   2.0872718        l,e99.0,e99.9,nproj,rcpsp
   0.00000000   0.00000000   0.00000000   0.00000000     rms, ekb1, ekb2, epsatm
    2   0.000   0.000    0   2.0872718        l,e99.0,e99.9,nproj,rcpsp
   0.00000000   0.00000000   0.00000000   0.00000000     rms, ekb1, ekb2, epsatm
    1.80626423934776    0.22824404341771    1.17378968127746   rchrg,fchrg,qchrg
 pspatm: epsatm=    1.43386982
         --- l  ekb(1:nproj) -->
             0    3.287949
             1    1.849886
 pspatm: atomic psp has been read  and splines computed

--------------------------------------------------------------------------------

 ==== K-mesh for the wavefunctions ====
 Number of points in the irreducible wedge :     6
 Reduced coordinates and weights : 

     1)    -2.50000000E-01 -2.50000000E-01  0.00000000E+00       0.18750
     2)    -2.50000000E-01  2.50000000E-01  0.00000000E+00       0.37500
     3)     5.00000000E-01  5.00000000E-01  0.00000000E+00       0.09375
     4)    -2.50000000E-01  5.00000000E-01  2.50000000E-01       0.18750
     5)     5.00000000E-01  0.00000000E+00  0.00000000E+00       0.12500
     6)     0.00000000E+00  0.00000000E+00  0.00000000E+00       0.03125

 Together with 48 symmetry operations and time-reversal symmetry 
 yields    32 points in the full Brillouin Zone.


 ==== Q-mesh for the screening function ====
 Number of points in the irreducible wedge :     6
 Reduced coordinates and weights : 

     1)     0.00000000E+00  0.00000000E+00  0.00000000E+00       0.03125
     2)     5.00000000E-01  5.00000000E-01  0.00000000E+00       0.09375
     3)     5.00000000E-01  2.50000000E-01  2.50000000E-01       0.37500
     4)     0.00000000E+00  5.00000000E-01  0.00000000E+00       0.12500
     5)     5.00000000E-01 -2.50000000E-01  2.50000000E-01       0.18750
     6)     0.00000000E+00 -2.50000000E-01 -2.50000000E-01       0.18750

 Together with 48 symmetry operations and time-reversal symmetry 
 yields    32 points in the full Brillouin Zone.


 setmesh: FFT mesh size selected  =  20x 20x 20
          total number of points  =     8000


 screening : taking advantage of time-reversal symmetry 
 Maximum band index for partially occupied states nbvw =     4
 Remaining bands to be divided among processors   nbcw =    21
P Number of bands treated by each node ~   21

 k       eigenvalues [eV]
  1         -5.05   2.41   4.01   4.01   6.96   8.98  11.70  11.70  13.90  15.02
            17.13  18.96  18.96  19.60  23.35  23.35  24.53  26.10  26.89  30.98
            32.32  33.30  33.30  35.46  35.46
  2         -4.06   0.42   2.09   4.59   8.31  10.71  11.05  11.99  12.45  15.54
            18.47  19.22  19.29  22.57  23.29  23.35  24.77  27.21  27.77  30.03
            30.60  31.48  32.59  33.10  33.42
  3         -1.94  -1.94   3.03   3.03   6.52   6.52  15.98  15.98  17.11  17.11
            18.65  18.65  18.76  18.76  24.86  24.86  25.60  25.60  26.22  26.22
            27.11  27.11  31.74  31.74  35.50
  4         -1.76  -1.76   1.98   1.98  10.16  10.16  10.90  10.90  16.58  16.58
            19.01  19.01  22.39  22.39  24.37  24.37  24.94  24.94  25.97  25.97
            29.66  29.66  33.60  33.60  33.67
  5         -3.76  -1.14   4.73   4.73   7.41   9.25   9.25  13.46  16.70  16.70
            17.13  17.32  17.32  18.68  25.33  25.83  27.80  27.80  28.00  28.00
            31.63  32.69  32.69  33.35  33.35
  6         -6.15   5.95   5.95   5.95   8.46   8.46   8.46   9.20  13.60  13.83
            13.83  17.11  17.11  17.11  20.99  29.32  29.32  29.32  30.47  30.47
            31.42  31.42  31.42  35.52  35.52
 Number of electrons calculated from density =    7.9848; Expected =    8.0000
 average of density, n =  0.029947
 r_s =    1.9976
 omega_plasma =   16.6929 [eV]


 calculating chi0 at frequencies [eV] :
  1    0.000000E+00    0.000000E+00
  2    0.000000E+00    1.670000E+01


--------------------------------------------------------------------------------
  q-point number  1        q = ( 0.000000, 0.000000, 0.000000) [r.l.u.]
--------------------------------------------------------------------------------
  chi0(G,G') at the    1 th omega   0.0000   0.0000 [eV]
       1       2       3       4       5       6       7       8       9
    1  -0.000   0.000  -0.000  -0.000   0.000   0.000  -0.000  -0.000   0.000
        0.000   0.000   0.000  -0.000  -0.000   0.000   0.000  -0.000  -0.000

    2   0.000 -17.789   0.000  -0.105  -0.001  -0.104  -0.001  -0.101   0.002
       -0.000   0.000  -4.971   0.001  -0.366   0.001  -0.364  -0.002  -0.363

  chi0(G,G') at the    2 th omega   0.0000  16.7000 [eV]
       1       2       3       4       5       6       7       8       9
    1  -0.000   0.000  -0.000  -0.000   0.000   0.000  -0.000  -0.000   0.000
        0.000   0.000   0.000  -0.000  -0.000   0.000   0.000  -0.000  -0.000

    2   0.000  -6.917   0.000   0.003  -0.001   0.005  -0.000   0.007   0.001
       -0.000  -0.000  -0.978   0.001  -0.167   0.001  -0.165  -0.001  -0.164

 For q-point:  0.000010 0.000020 0.000030
  dielectric constant =  24.8549
  dielectric constant without local fields =  27.5009

  Average fulfillment of the sum rule on Im[epsilon] for q-point    1 :     54.49  [%]
  Heads and wings of the symmetrical epsilon^-1(G,G') 

   Upper and lower wings at the    1 th omega   0.0000   0.0000 [eV]
       1       2       3       4       5       6       7       8       9
      0.040   0.004  -0.004  -0.011   0.011   0.011  -0.011  -0.004   0.004
      0.000   0.004   0.004  -0.011  -0.011   0.011   0.011  -0.004  -0.004
       1       2       3       4       5       6       7       8       9
      0.040   0.004  -0.004  -0.011   0.011   0.011  -0.011  -0.004   0.004
      0.000  -0.004  -0.004   0.011   0.011  -0.011  -0.011   0.004   0.004


   Upper and lower wings at the    2 th omega   0.0000  16.7000 [eV]
       1       2       3       4       5       6       7       8       9
      0.478   0.007  -0.007  -0.022   0.022   0.022  -0.022  -0.007   0.007
      0.000   0.007   0.007  -0.022  -0.022   0.022   0.022  -0.007  -0.007
       1       2       3       4       5       6       7       8       9
      0.478   0.007  -0.007  -0.022   0.022   0.022  -0.022  -0.007   0.007
      0.000  -0.007  -0.007   0.022   0.022  -0.022  -0.022   0.007   0.007




--------------------------------------------------------------------------------
  q-point number  2        q = ( 0.500000, 0.500000, 0.000000) [r.l.u.]
--------------------------------------------------------------------------------
  chi0(G,G') at the    1 th omega   0.0000   0.0000 [eV]
       1       2       3       4       5       6       7       8       9
    1 -18.150  -3.124  -1.133  -1.131  -3.128  -1.131  -3.126  -3.128  -1.133
       -0.000  -3.124   1.133  -1.131   3.128  -1.131   3.127  -3.128   1.133

    2  -3.124 -14.680  -0.001  -0.050   0.005  -0.050  -0.002   0.032  -0.001
        3.124  -0.000  -2.473   0.001   0.465   0.001   0.451  -0.004  -0.364

  chi0(G,G') at the    2 th omega   0.0000  16.7000 [eV]
       1       2       3       4       5       6       7       8       9
    1  -4.321  -0.865  -0.236  -0.235  -0.869  -0.235  -0.867  -0.869  -0.236
        0.000  -0.865   0.236  -0.235   0.869  -0.235   0.868  -0.869   0.236

    2  -0.865  -5.943  -0.001  -0.076   0.004  -0.077  -0.002   0.097  -0.001
        0.865  -0.000  -0.560   0.001  -0.076   0.001  -0.087  -0.003  -0.093

  Average fulfillment of the sum rule on Im[epsilon] for q-point    2 :     69.45  [%]


--------------------------------------------------------------------------------
  q-point number  3        q = ( 0.500000, 0.250000, 0.250000) [r.l.u.]
--------------------------------------------------------------------------------
  chi0(G,G') at the    1 th omega   0.0000   0.0000 [eV]
       1       2       3       4       5       6       7       8       9
    1 -14.630  -2.460   0.483  -2.307  -2.307   0.483  -2.460  -2.307  -2.306
       -0.000  -2.460  -0.483  -2.306   2.307   0.483   2.460  -2.307   2.306

    2  -2.460 -15.070  -0.000  -0.386   0.002  -0.068   0.002  -0.384  -0.002
        2.460   0.000  -3.296   0.000  -0.001   0.000   0.222  -0.001   0.014

  chi0(G,G') at the    2 th omega   0.0000  16.7000 [eV]
       1       2       3       4       5       6       7       8       9
    1  -2.556  -0.688   0.244  -0.413  -0.413   0.244  -0.688  -0.413  -0.412
        0.000  -0.688  -0.244  -0.412   0.413   0.244   0.688  -0.413   0.412

    2  -0.688  -6.227  -0.000   0.028   0.001  -0.022   0.001   0.030  -0.002
        0.688   0.000  -0.781   0.000  -0.114   0.000  -0.103  -0.001  -0.102

  Average fulfillment of the sum rule on Im[epsilon] for q-point    3 :     71.92  [%]


--------------------------------------------------------------------------------
  q-point number  4        q = ( 0.000000, 0.500000, 0.000000) [r.l.u.]
--------------------------------------------------------------------------------
  chi0(G,G') at the    1 th omega   0.0000   0.0000 [eV]
       1       2       3       4       5       6       7       8       9
    1 -14.480  -1.978  -2.644  -1.976  -2.645  -1.976  -2.645  -2.145   3.145
        0.000  -1.978   2.645  -1.976   2.644  -1.976   2.645  -2.145  -3.145

    2  -1.978 -19.508  -0.000   0.263   0.004   0.261  -0.002   0.266   0.000
        1.978   0.000  -2.663   0.001   0.134   0.002   0.124  -0.002  -0.897

  chi0(G,G') at the    2 th omega   0.0000  16.7000 [eV]
       1       2       3       4       5       6       7       8       9
    1  -3.489  -0.352  -0.704  -0.351  -0.705  -0.350  -0.705  -0.832   0.524
        0.000  -0.352   0.704  -0.350   0.704  -0.351   0.705  -0.832  -0.524

    2  -0.352  -6.893  -0.000  -0.093   0.003  -0.095  -0.002   0.025   0.000
        0.352   0.000  -0.644   0.001  -0.092   0.001  -0.100  -0.002  -0.103

  Average fulfillment of the sum rule on Im[epsilon] for q-point    4 :     70.38  [%]


--------------------------------------------------------------------------------
  q-point number  5        q = ( 0.500000,-0.250000, 0.250000) [r.l.u.]
--------------------------------------------------------------------------------
  chi0(G,G') at the    1 th omega   0.0000   0.0000 [eV]
       1       2       3       4       5       6       7       8       9
    1 -19.339  -2.846  -1.335  -2.974  -2.451  -2.455  -2.967  -1.335  -2.846
       -0.000  -2.846   1.334  -2.975   2.452  -2.456   2.967  -1.335   2.845

    2  -2.846 -12.480   0.000   0.287   0.002   0.434   0.004  -0.320  -0.003
        2.846   0.000  -2.420   0.004   0.144  -0.002   0.239  -0.000  -0.029

  chi0(G,G') at the    2 th omega   0.0000  16.7000 [eV]
       1       2       3       4       5       6       7       8       9
    1  -4.962  -0.950  -0.056  -0.885  -0.646  -0.649  -0.880  -0.056  -0.950
       -0.000  -0.950   0.056  -0.886   0.647  -0.650   0.880  -0.056   0.950

    2  -0.950  -5.209   0.000   0.090   0.001  -0.013   0.004  -0.022  -0.002
        0.950  -0.000  -0.489   0.003  -0.075  -0.002  -0.076  -0.000  -0.096

  Average fulfillment of the sum rule on Im[epsilon] for q-point    5 :     69.37  [%]


--------------------------------------------------------------------------------
  q-point number  6        q = ( 0.000000,-0.250000,-0.250000) [r.l.u.]
--------------------------------------------------------------------------------
  chi0(G,G') at the    1 th omega   0.0000   0.0000 [eV]
       1       2       3       4       5       6       7       8       9
    1 -10.756  -2.269  -0.033  -0.033  -2.269  -2.271  -0.033  -0.033  -2.270
        0.000  -2.270   0.033  -0.033   2.269  -2.271   0.033  -0.033   2.270

    2  -2.269 -16.933   0.000  -0.475  -0.001  -0.400   0.001  -0.474  -0.001
        2.270   0.000  -3.438   0.001   0.052   0.001  -0.480  -0.002   0.076

  chi0(G,G') at the    2 th omega   0.0000  16.7000 [eV]
       1       2       3       4       5       6       7       8       9
    1  -1.413  -0.433   0.084   0.084  -0.433  -0.434   0.084   0.084  -0.434
       -0.000  -0.433  -0.084   0.084   0.433  -0.434  -0.084   0.084   0.433

    2  -0.433  -6.789   0.000  -0.029  -0.000   0.058   0.000  -0.028  -0.001
        0.433   0.000  -0.874   0.001  -0.133   0.001  -0.159  -0.001  -0.114

  Average fulfillment of the sum rule on Im[epsilon] for q-point    6 :     76.79  [%]

================================================================================
== DATASET  4 ==================================================================
-   nproc =    1

 mkfilename : getscr/=0, take file _SCR from output of DATASET   3.

 mkfilename : getkss/=0, take file _KSS from output of DATASET   2.

 Exchange-correlation functional for the present dataset will be:
  LDA: new Teter (4/93) with spin-polarized option - ixc=1
 Citation for XC functional:
  S. Goedecker, M. Teter, J. Huetter, PRB 54, 1703 (1996)

 SIGMA: Calculation of the GW corrections 

 Based on a program developped by R.W. Godby, V. Olevano, G. Onida, and L. Reining.
 Incorporated in ABINIT by V. Olevano, G.-M. Rignanese, and M. Torrent.
.Using double precision arithmetic ; gwpc =  8

 Real(R)+Recip(G) space primitive vectors, cartesian coordinates (Bohr,Bohr^-1):
 R(1)=  0.0000000  5.1085000  5.1085000  G(1)= -0.0978761  0.0978761  0.0978761
 R(2)=  5.1085000  0.0000000  5.1085000  G(2)=  0.0978761 -0.0978761  0.0978761
 R(3)=  5.1085000  5.1085000  0.0000000  G(3)=  0.0978761  0.0978761 -0.0978761
 Unit cell volume ucvol=  2.6663072E+02 bohr^3
 Angles (23,13,12)=  6.00000000E+01  6.00000000E+01  6.00000000E+01 degrees

--- Pseudopotential description ------------------------------------------------
- pspini: atom type   1  psp file is /home/gonze/ABINIT/ABINITv7.10.4/trunk/7.10.4-private/tests/Psps_for_tests/14si.pspnc
- pspatm: opening atomic psp file    /home/gonze/ABINIT/ABINITv7.10.4/trunk/7.10.4-private/tests/Psps_for_tests/14si.pspnc
-  Troullier-Martins psp for element  Si        Thu Oct 27 17:31:21 EDT 1994
- 14.00000   4.00000    940714                znucl, zion, pspdat
    1    1    2    2      2001   0.00000      pspcod,pspxc,lmax,lloc,mmax,r2well
    0   5.907  14.692    1   2.0872718        l,e99.0,e99.9,nproj,rcpsp
   0.00000000   0.00000000   0.00000000   0.00000000     rms, ekb1, ekb2, epsatm
    1   2.617   4.181    1   2.0872718        l,e99.0,e99.9,nproj,rcpsp
   0.00000000   0.00000000   0.00000000   0.00000000     rms, ekb1, ekb2, epsatm
    2   0.000   0.000    0   2.0872718        l,e99.0,e99.9,nproj,rcpsp
[...]
 SIGMA fundamental parameters:
 PLASMON POLE MODEL  1
 number of plane-waves for SigmaX                  169
 number of plane-waves for SigmaC and W            169
 number of plane-waves for wavefunctions           137
 number of bands                                   100
 number of independent spin polarizations            1
 number of spinorial components                      1
 number of k-points in IBZ                           6
 number of q-points in IBZ                           6
 number of symmetry operations                      48
 number of k-points in BZ                           32
 number of q-points in BZ                           32
 number of frequencies for dSigma/dE                 9
 frequency step for dSigma/dE [eV]                0.25
 number of omega for Sigma on real axis              0
 max omega for Sigma on real axis  [eV]           0.00
 zcut for avoiding poles [eV]                     0.10

 EPSILON^-1 parameters (SCR file):
 dimension of the eps^-1 matrix on file            169
 dimension of the eps^-1 matrix used               169
 number of plane-waves for wavefunctions            89
 number of bands                                    25
 number of q-points in IBZ                           6
 number of frequencies                               2
 number of real frequencies                          1
 number of imag frequencies                          1

 matrix elements of self-energy operator (all in [eV])

 Perturbative Calculation

 k =    0.000   0.000   0.000
 Band     E0 <VxcLDA>   SigX SigC(E0)      Z dSigC/dE  Sig(E)    E-E0       E
    4   5.951 -11.253 -12.628   1.187   0.777  -0.287 -11.398  -0.146   5.806
    5   8.464 -10.042  -5.563  -3.878   0.777  -0.287  -9.575   0.467   8.931

 E^0_gap          2.513
 E^GW_gap         3.126
 DeltaE^GW_gap    0.613


== END DATASET(S) ==============================================================
================================================================================
  
 -outvars: echo values of variables after computation  --------
            acell      1.0217000000E+01  1.0217000000E+01  1.0217000000E+01 Bohr
              amu      2.80855000E+01
             bdgw4          4       5
           diemac      1.20000000E+01
             ecut1     8.00000000E+00 Hartree
             ecut2     8.00000000E+00 Hartree
             ecut3     3.59282906E+00 Hartree
             ecut4     4.53831040E+00 Hartree
          ecuteps1     0.00000000E+00 Hartree
          ecuteps2     0.00000000E+00 Hartree
          ecuteps3     5.10559920E+00 Hartree
          ecuteps4     0.00000000E+00 Hartree
         ecutsigx1     0.00000000E+00 Hartree
         ecutsigx2     0.00000000E+00 Hartree
         ecutsigx3     0.00000000E+00 Hartree
         ecutsigx4     5.10559920E+00 Hartree
          ecutwfn1     0.00000000E+00 Hartree
          ecutwfn2     0.00000000E+00 Hartree
          ecutwfn3     3.59282906E+00 Hartree
          ecutwfn4     4.53831040E+00 Hartree
           etotal1    -8.8663835883E+00
           etotal3     0.0000000000E+00
           etotal4     0.0000000000E+00
            fcart1    -0.0000000000E+00 -0.0000000000E+00 -0.0000000000E+00
                      -0.0000000000E+00 -0.0000000000E+00 -0.0000000000E+00
            fcart3     0.0000000000E+00  0.0000000000E+00  0.0000000000E+00
                       0.0000000000E+00  0.0000000000E+00  0.0000000000E+00
            fcart4     0.0000000000E+00  0.0000000000E+00  0.0000000000E+00
                       0.0000000000E+00  0.0000000000E+00  0.0000000000E+00
-          fftalg         112
           getden1          0
           getden2         -1
           getden3          0
           getden4          0
           getkss1          0
           getkss2          0
           getkss3         -1
           getkss4         -2
           getscr1          0
           getscr2          0
           getscr3          0
           getscr4         -1
         icutcoul1          6
         icutcoul2          6
         icutcoul3          6
         icutcoul4          3
             iscf1          5
             iscf2         -2
             iscf3          5
             iscf4          5
           istwfk2       0    0    1    0    1    1
           istwfk3       0    0    1    0    1    1
           istwfk4       0    0    1    0    1    1
           jdtset        1    2    3    4
              kpt1    -2.50000000E-01  5.00000000E-01  0.00000000E+00
                      -2.50000000E-01  0.00000000E+00  0.00000000E+00
              kpt2    -2.50000000E-01 -2.50000000E-01  0.00000000E+00
                      -2.50000000E-01  2.50000000E-01  0.00000000E+00
                       5.00000000E-01  5.00000000E-01  0.00000000E+00
                      -2.50000000E-01  5.00000000E-01  2.50000000E-01
                       5.00000000E-01  0.00000000E+00  0.00000000E+00
                       0.00000000E+00  0.00000000E+00  0.00000000E+00
              kpt3    -2.50000000E-01 -2.50000000E-01  0.00000000E+00
                      -2.50000000E-01  2.50000000E-01  0.00000000E+00
                       5.00000000E-01  5.00000000E-01  0.00000000E+00
                      -2.50000000E-01  5.00000000E-01  2.50000000E-01
                       5.00000000E-01  0.00000000E+00  0.00000000E+00
                       0.00000000E+00  0.00000000E+00  0.00000000E+00
              kpt4    -2.50000000E-01 -2.50000000E-01  0.00000000E+00
                      -2.50000000E-01  2.50000000E-01  0.00000000E+00
                       5.00000000E-01  5.00000000E-01  0.00000000E+00
                      -2.50000000E-01  5.00000000E-01  2.50000000E-01
                       5.00000000E-01  0.00000000E+00  0.00000000E+00
                       0.00000000E+00  0.00000000E+00  0.00000000E+00
            kptgw4     0.00000000E+00  0.00000000E+00  0.00000000E+00
         kptrlatt        2   -2    2     -2    2    2     -2   -2    2
          kptrlen      2.04340000E+01
          kssform1          1
          kssform2          3
          kssform3          1
          kssform4          1
P           mkmem1          2
P           mkmem2          6
P           mkmem3          6
P           mkmem4          6
            natom           2
            nband1          5
            nband2        105
            nband3         25
            nband4        100
         nbandkss1          0
         nbandkss2        100
         nbandkss3          0
         nbandkss4          0
           nbdbuf1          0
           nbdbuf2          5
           nbdbuf3          0
           nbdbuf4          0
           ndtset           4
            ngfft1         20      20      20
            ngfft2         20      20      20
            ngfft3         15      15      15
            ngfft4         15      15      15
             nkpt1          2
             nkpt2          6
             nkpt3          6
             nkpt4          6
           nkptgw1          0
           nkptgw2          0
           nkptgw3          0
           nkptgw4          1
           npweps1          0
           npweps2          0
           npweps3        169
           npweps4          0
          npwsigx1          0
          npwsigx2          0
          npwsigx3          0
          npwsigx4        169
           npwwfn1          0
           npwwfn2          0
           npwwfn3         89
           npwwfn4        137
           nsheps1          0
           nsheps2          0
           nsheps3         12
           nsheps4          0
          nshsigx1          0
          nshsigx2          0
          nshsigx3          0
          nshsigx4         12
            nstep          10
             nsym          48
           ntypat           1
              occ1     2.000000  2.000000  2.000000  2.000000  0.000000
              occ3     2.000000  2.000000  2.000000  2.000000  0.000000  0.000000
                       0.000000  0.000000  0.000000  0.000000  0.000000  0.000000
                       0.000000  0.000000  0.000000  0.000000  0.000000  0.000000
                       0.000000  0.000000  0.000000  0.000000  0.000000  0.000000
                       0.000000
              occ4     2.000000  2.000000  2.000000  2.000000  0.000000  0.000000
                       0.000000  0.000000  0.000000  0.000000  0.000000  0.000000
                       0.000000  0.000000  0.000000  0.000000  0.000000  0.000000
                       0.000000  0.000000  0.000000  0.000000  0.000000  0.000000
                       0.000000  0.000000  0.000000  0.000000  0.000000  0.000000
                       0.000000  0.000000  0.000000  0.000000  0.000000  0.000000
                       0.000000  0.000000  0.000000  0.000000  0.000000  0.000000
                       0.000000  0.000000  0.000000  0.000000  0.000000  0.000000
                       0.000000  0.000000  0.000000  0.000000  0.000000  0.000000
                       0.000000  0.000000  0.000000  0.000000  0.000000  0.000000
                       0.000000  0.000000  0.000000  0.000000  0.000000  0.000000
                       0.000000  0.000000  0.000000  0.000000  0.000000  0.000000
                       0.000000  0.000000  0.000000  0.000000  0.000000  0.000000
                       0.000000  0.000000  0.000000  0.000000  0.000000  0.000000
                       0.000000  0.000000  0.000000  0.000000  0.000000  0.000000
                       0.000000  0.000000  0.000000  0.000000  0.000000  0.000000
                       0.000000  0.000000  0.000000  0.000000
        optdriver1          0
        optdriver2          0
        optdriver3          3
        optdriver4          4
           ppmfrq1     0.00000000E+00 Hartree
           ppmfrq2     0.00000000E+00 Hartree
           ppmfrq3     6.13713734E-01 Hartree
           ppmfrq4     0.00000000E+00 Hartree
            rprim      0.0000000000E+00  5.0000000000E-01  5.0000000000E-01
                       5.0000000000E-01  0.0000000000E+00  5.0000000000E-01
                       5.0000000000E-01  5.0000000000E-01  0.0000000000E+00
           shiftk1     5.00000000E-01  5.00000000E-01  5.00000000E-01
           shiftk2     0.00000000E+00  0.00000000E+00  0.00000000E+00
           shiftk3     0.00000000E+00  0.00000000E+00  0.00000000E+00
           shiftk4     0.00000000E+00  0.00000000E+00  0.00000000E+00
          spgroup         227
           strten1     1.6919980096E-05  1.6919980096E-05  1.6919980096E-05
                       0.0000000000E+00  0.0000000000E+00  0.0000000000E+00
           strten3     0.0000000000E+00  0.0000000000E+00  0.0000000000E+00
                       0.0000000000E+00  0.0000000000E+00  0.0000000000E+00
           strten4     0.0000000000E+00  0.0000000000E+00  0.0000000000E+00
                       0.0000000000E+00  0.0000000000E+00  0.0000000000E+00
           symrel      1  0  0   0  1  0   0  0  1      -1  0  0   0 -1  0   0  0 -1
                       0 -1  1   0 -1  0   1 -1  0       0  1 -1   0  1  0  -1  1  0
                      -1  0  0  -1  0  1  -1  1  0       1  0  0   1  0 -1   1 -1  0
                       0  1 -1   1  0 -1   0  0 -1       0 -1  1  -1  0  1   0  0  1
                      -1  0  0  -1  1  0  -1  0  1       1  0  0   1 -1  0   1  0 -1
                       0 -1  1   1 -1  0   0 -1  0       0  1 -1  -1  1  0   0  1  0
                       1  0  0   0  0  1   0  1  0      -1  0  0   0  0 -1   0 -1  0
                       0  1 -1   0  0 -1   1  0 -1       0 -1  1   0  0  1  -1  0  1
                      -1  0  1  -1  1  0  -1  0  0       1  0 -1   1 -1  0   1  0  0
                       0 -1  0   1 -1  0   0 -1  1       0  1  0  -1  1  0   0  1 -1
                       1  0 -1   0  0 -1   0  1 -1      -1  0  1   0  0  1   0 -1  1
                       0  1  0   0  0  1   1  0  0       0 -1  0   0  0 -1  -1  0  0
                       1  0 -1   0  1 -1   0  0 -1      -1  0  1   0 -1  1   0  0  1
                       0 -1  0   0 -1  1   1 -1  0       0  1  0   0  1 -1  -1  1  0
                      -1  0  1  -1  0  0  -1  1  0       1  0 -1   1  0  0   1 -1  0
                       0  1  0   1  0  0   0  0  1       0 -1  0  -1  0  0   0  0 -1
                       0  0 -1   0  1 -1   1  0 -1       0  0  1   0 -1  1  -1  0  1
                       1 -1  0   0 -1  1   0 -1  0      -1  1  0   0  1 -1   0  1  0
                       0  0  1   1  0  0   0  1  0       0  0 -1  -1  0  0   0 -1  0
                      -1  1  0  -1  0  0  -1  0  1       1 -1  0   1  0  0   1  0 -1
                       0  0  1   0  1  0   1  0  0       0  0 -1   0 -1  0  -1  0  0
                       1 -1  0   0 -1  0   0 -1  1      -1  1  0   0  1  0   0  1 -1
                       0  0 -1   1  0 -1   0  1 -1       0  0  1  -1  0  1   0 -1  1
                      -1  1  0  -1  0  1  -1  0  0       1 -1  0   1  0 -1   1  0  0
            tnons      0.0000000  0.0000000  0.0000000     0.2500000  0.2500000  0.2500000
                       0.0000000  0.0000000  0.0000000     0.2500000  0.2500000  0.2500000
                       0.0000000  0.0000000  0.0000000     0.2500000  0.2500000  0.2500000
                       0.0000000  0.0000000  0.0000000     0.2500000  0.2500000  0.2500000
                       0.0000000  0.0000000  0.0000000     0.2500000  0.2500000  0.2500000
                       0.0000000  0.0000000  0.0000000     0.2500000  0.2500000  0.2500000
                       0.0000000  0.0000000  0.0000000     0.2500000  0.2500000  0.2500000
                       0.0000000  0.0000000  0.0000000     0.2500000  0.2500000  0.2500000
                       0.0000000  0.0000000  0.0000000     0.2500000  0.2500000  0.2500000
                       0.0000000  0.0000000  0.0000000     0.2500000  0.2500000  0.2500000
                       0.0000000  0.0000000  0.0000000     0.2500000  0.2500000  0.2500000
                       0.0000000  0.0000000  0.0000000     0.2500000  0.2500000  0.2500000
                       0.0000000  0.0000000  0.0000000     0.2500000  0.2500000  0.2500000
                       0.0000000  0.0000000  0.0000000     0.2500000  0.2500000  0.2500000
                       0.0000000  0.0000000  0.0000000     0.2500000  0.2500000  0.2500000
                       0.0000000  0.0000000  0.0000000     0.2500000  0.2500000  0.2500000
                       0.0000000  0.0000000  0.0000000     0.2500000  0.2500000  0.2500000
                       0.0000000  0.0000000  0.0000000     0.2500000  0.2500000  0.2500000
                       0.0000000  0.0000000  0.0000000     0.2500000  0.2500000  0.2500000
                       0.0000000  0.0000000  0.0000000     0.2500000  0.2500000  0.2500000
                       0.0000000  0.0000000  0.0000000     0.2500000  0.2500000  0.2500000
                       0.0000000  0.0000000  0.0000000     0.2500000  0.2500000  0.2500000
                       0.0000000  0.0000000  0.0000000     0.2500000  0.2500000  0.2500000
                       0.0000000  0.0000000  0.0000000     0.2500000  0.2500000  0.2500000
           tolwfr      1.00000000E-10
            typat      1  1
              wtk1       0.75000    0.25000
              wtk2       0.18750    0.37500    0.09375    0.18750    0.12500    0.03125
              wtk3       0.18750    0.37500    0.09375    0.18750    0.12500    0.03125
              wtk4       0.18750    0.37500    0.09375    0.18750    0.12500    0.03125
           xangst      0.0000000000E+00  0.0000000000E+00  0.0000000000E+00
                       1.3516508850E+00  1.3516508850E+00  1.3516508850E+00
            xcart      0.0000000000E+00  0.0000000000E+00  0.0000000000E+00
                       2.5542500000E+00  2.5542500000E+00  2.5542500000E+00
             xred      0.0000000000E+00  0.0000000000E+00  0.0000000000E+00
                       2.5000000000E-01  2.5000000000E-01  2.5000000000E-01
            znucl       14.00000

================================================================================


- Timing analysis has been suppressed with timopt=0



================================================================================

 Suggested references for the acknowledgment of ABINIT usage.

 The users of ABINIT have little formal obligations with respect to the ABINIT group
 (those specified in the GNU General Public License, http://www.gnu.org/copyleft/gpl.txt).
 However, it is common practice in the scientific literature,
 to acknowledge the efforts of people that have made the research possible.
 In this spirit, please find below suggested citations of work written by ABINIT developers,
 corresponding to implementations inside of ABINIT that you have used in the present run.
 Note also that it will be of great value to readers of publications presenting these results,
 to read papers enabling them to understand the theoretical formalism and details
 of the ABINIT implementation.
 For information on why they are suggested, see also http://www.abinit.org/about/?text=acknowledgments.

 [1] ABINIT : First-principles approach of materials and nanosystem properties.
 X. Gonze, B. Amadon, P.-M. Anglade, J.-M. Beuken, F. Bottin, P. Boulanger, F. Bruneval,
 D. Caliste, R. Caracas, M. Cote, T. Deutsch, L. Genovese, Ph. Ghosez, M. Giantomassi
 S. Goedecker, D.R. Hamann, P. Hermet, F. Jollet, G. Jomard, S. Leroux, M. Mancini, S. Mazevet,
 M.J.T. Oliveira, G. Onida, Y. Pouillon, T. Rangel, G.-M. Rignanese, D. Sangalli, R. Shaltaf,
 M. Torrent, M.J. Verstraete, G. Zerah, J.W. Zwanziger
 Computer Phys. Comm. 180, 2582-2615 (2009).
 Comment : the third generic paper describing the ABINIT project.
 Note that a version of this paper, that is not formatted for Computer Phys. Comm. 
 is available at http://www.abinit.org/about/ABINIT_CPC_v10.pdf .
 The licence allows the authors to put it on the Web.

 [2] A brief introduction to the ABINIT software package.
 X. Gonze, G.-M. Rignanese, M. Verstraete, J.-M. Beuken, Y. Pouillon, R. Caracas, F. Jollet,
 M. Torrent, G. Zerah, M. Mikami, Ph. Ghosez, M. Veithen, J.-Y. Raty, V. Olevano, F. Bruneval,
 L. Reining, R. Godby, G. Onida, D.R. Hamann, and D.C. Allan.
 Z. Kristallogr. 220, 558-562 (2005).
 Comment : the second generic paper describing the ABINIT project. Note that this paper
 should be cited especially if you are using the GW part of ABINIT, as several authors
 of this part are not in the list of authors of the first or third paper.
 The .pdf of the latter paper is available at http://www.abinit.org/about/zfk_0505-06_558-562.pdf.
 Note that it should not redistributed (Copyright by Oldenburg Wissenshaftverlag,
 the licence allows the authors to put it on the Web).


 And optionally :

 [3] First-principles computation of material properties : the ABINIT software project. 
 X. Gonze, J.-M. Beuken, R. Caracas, F. Detraux, M. Fuchs, G.-M. Rignanese, L. Sindic,
 M. Verstraete, G. Zerah, F. Jollet, M. Torrent, A. Roy, M. Mikami, Ph. Ghosez, J.-Y. Raty, D.C. Allan.
 Computational Materials Science 25, 478-492 (2002). http://dx.doi.org/10.1016/S0927-0256(02)00325-7
 Comment : the original paper describing the ABINIT project.

 [4] Fast radix 2, 3, 4 and 5 kernels for Fast Fourier Transformations
 on computers with overlapping multiply-add instructions.
 S. Goedecker, SIAM J. on Scientific Computing 18, 1605 (1997).

 [5] Towards a potential-based conjugate gradient algorithm for order-N self-consistent
 total energy calculations.
 X. Gonze, Phys. Rev. B 54, 4383 (1996).
 Comment : The potential-based conjugate-gradient algorithm, used when iscf=5, is not published.
 However, many elements of this algorithm have been explained in the paper above.
-
- Proc.   0 individual time (sec): cpu=         45.6  wall=         45.6

================================================================================

 Calculation completed.
.Delivered   13 WARNINGs and   7 COMMENTs to log file.
+Overall time at end (sec) : cpu=         45.6  wall=         45.6
