
.Version 7.10.4 of ABINIT 
.(MPI version, prepared for a x86_64_linux_gnu4.7 computer) 

.Copyright (C) 1998-2014 ABINIT group . 
 ABINIT comes with ABSOLUTELY NO WARRANTY.
 It is free software, and you are welcome to redistribute it
 under certain conditions (GNU General Public License,
 see ~abinit/COPYING or http://www.gnu.org/copyleft/gpl.txt).

 ABINIT is a project of the Universite Catholique de Louvain,
 Corning Inc. and other collaborators, see ~abinit/doc/developers/contributors.txt .
 Please read ~abinit/doc/users/acknowledgments.html for suggested
 acknowledgments of the ABINIT effort.
 For more information, see http://www.abinit.org .

.Starting date : Wed 11 Mar 2015.
- ( at 10h21 )
  
- input  file    -> tgw1_2.in
- output file    -> tgw1_2.out
- root for input  files -> tgw1_2i
- root for output files -> tgw1_2o


 DATASET    1 : space group Fd -3 m (#227); Bravais cF (face-center cubic)
================================================================================
 Values of the parameters that define the memory need for DATASET  1.
   intxc =         0  ionmov =         0    iscf =         5 xclevel =         1
  lmnmax =         2   lnmax =         2   mband =         5  mffmem =         1
P  mgfft =        20   mkmem =        10 mpssoang=         3     mpw =       295
  mqgrid =      3001   natom =         2    nfft =      8000    nkpt =        10
  nloalg =         4  nspden =         1 nspinor =         1  nsppol =         1
    nsym =        48  n1xccc =      2501  ntypat =         1  occopt =         1
================================================================================
P This job should need less than                       2.755 Mbytes of memory.
  Rough estimation (10% accuracy) of disk space for files :
_ WF disk file :      0.227 Mbytes ; DEN or POT disk file :      0.063 Mbytes.
================================================================================


 DATASET    2 : space group Fd -3 m (#227); Bravais cF (face-center cubic)
================================================================================
 Values of the parameters that define the memory need for DATASET  2.
   intxc =         0  ionmov =         0    iscf =        -2 xclevel =         1
  lmnmax =         2   lnmax =         2   mband =       260  mffmem =         1
P  mgfft =        20   mkmem =         1 mpssoang=         3     mpw =       283
  mqgrid =      3001   natom =         2    nfft =      8000    nkpt =         1
  nloalg =         4  nspden =         1 nspinor =         1  nsppol =         1
    nsym =        48  n1xccc =      2501  ntypat =         1  occopt =         1
================================================================================
P This job should need less than                       4.628 Mbytes of memory.
  Rough estimation (10% accuracy) of disk space for files :
_ WF disk file :      1.125 Mbytes ; DEN or POT disk file :      0.063 Mbytes.
================================================================================


 DATASET    3 : space group Fd -3 m (#227); Bravais cF (face-center cubic)
================================================================================
 Values of the parameters that define the memory need for DATASET  3.
   intxc =         0  ionmov =         0    iscf =         5 xclevel =         1
  lmnmax =         2   lnmax =         2   mband =        25  mffmem =         1
P  mgfft =        15   mkmem =         1 mpssoang=         3     mpw =        65
  mqgrid =      3001   natom =         2    nfft =      3375    nkpt =         1
  nloalg =         4  nspden =         1 nspinor =         1  nsppol =         1
    nsym =        48  n1xccc =      2501  ntypat =         1  occopt =         1
================================================================================
P This job should need less than                       1.379 Mbytes of memory.
  Rough estimation (10% accuracy) of disk space for files :
_ WF disk file :      0.027 Mbytes ; DEN or POT disk file :      0.028 Mbytes.
================================================================================

--------------------------------------------------------------------------------
------------- Echo of variables that govern the present computation ------------
--------------------------------------------------------------------------------
-
- outvars: echo of selected default values                                      
-   accesswff0 =  0 , fftalg0 =112 , wfoptalg0 =  0
-
- outvars: echo of global parameters not present in the input file              
-  max_nthreads =    0
-
 -outvars: echo values of preprocessed input variables --------
            acell      1.0217000000E+01  1.0217000000E+01  1.0217000000E+01 Bohr
              amu      2.80855000E+01
             awtr1          1
             awtr2          1
             awtr3          0
           diemac      1.20000000E+01
             ecut1     8.00000000E+00 Hartree
             ecut2     8.00000000E+00 Hartree
             ecut3     3.59282906E+00 Hartree
          ecuteps1     0.00000000E+00 Hartree
          ecuteps2     0.00000000E+00 Hartree
          ecuteps3     5.10559920E+00 Hartree
          ecutwfn1     0.00000000E+00 Hartree
          ecutwfn2     0.00000000E+00 Hartree
          ecutwfn3     3.59282906E+00 Hartree
-          fftalg         112
           getden1          0
           getden2         -1
           getden3          0
           getkss1          0
           getkss2          0
           getkss3         -1
             iscf1          5
             iscf2         -2
             iscf3          5
           istwfk2       1
           istwfk3       1
           jdtset        1    2    3
              kpt1    -1.25000000E-01 -2.50000000E-01  0.00000000E+00
                      -1.25000000E-01  5.00000000E-01  0.00000000E+00
                      -2.50000000E-01 -3.75000000E-01  0.00000000E+00
                      -1.25000000E-01 -3.75000000E-01  1.25000000E-01
                      -1.25000000E-01  2.50000000E-01  0.00000000E+00
                      -2.50000000E-01  3.75000000E-01  0.00000000E+00
                      -3.75000000E-01  5.00000000E-01  0.00000000E+00
                      -2.50000000E-01  5.00000000E-01  1.25000000E-01
                      -1.25000000E-01  0.00000000E+00  0.00000000E+00
                      -3.75000000E-01  0.00000000E+00  0.00000000E+00
              kpt2     0.00000000E+00  0.00000000E+00  0.00000000E+00
              kpt3     0.00000000E+00  0.00000000E+00  0.00000000E+00
           kptopt1          1
           kptopt2          0
           kptopt3          1
         kptrlatt1       4   -4    4     -4    4    4     -4   -4    4
         kptrlatt3       1    0    0      0    1    0      0    0    1
          kptrlen1     4.08680000E+01
          kptrlen2     3.00000000E+01
          kptrlen3     7.22450998E+00
          kssform1          1
          kssform2          3
          kssform3          1
P           mkmem1         10
P           mkmem2          1
P           mkmem3          1
            natom           2
            nband1          5
            nband2        260
            nband3         25
         nbandkss1          0
         nbandkss2        250
         nbandkss3          0
           nbdbuf1          0
           nbdbuf2         10
           nbdbuf3          0
           ndtset           3
            ngfft1         20      20      20
            ngfft2         20      20      20
            ngfft3         15      15      15
             nkpt1         10
             nkpt2          1
             nkpt3          1
           npweps1          0
           npweps2          0
           npweps3        169
           npwwfn1          0
           npwwfn2          0
           npwwfn3         89
           nsheps1          0
           nsheps2          0
           nsheps3         12
            nstep          20
             nsym          48
           ntypat           1
              occ1     2.000000  2.000000  2.000000  2.000000  0.000000
              occ3     2.000000  2.000000  2.000000  2.000000  0.000000  0.000000
                       0.000000  0.000000  0.000000  0.000000  0.000000  0.000000
                       0.000000  0.000000  0.000000  0.000000  0.000000  0.000000
                       0.000000  0.000000  0.000000  0.000000  0.000000  0.000000
                       0.000000
        optdriver1          0
        optdriver2          0
        optdriver3          3
        optforces           1
           ppmfrq1     0.00000000E+00 Hartree
           ppmfrq2     0.00000000E+00 Hartree
           ppmfrq3     6.13713734E-01 Hartree
            rprim      0.0000000000E+00  5.0000000000E-01  5.0000000000E-01
                       5.0000000000E-01  0.0000000000E+00  5.0000000000E-01
                       5.0000000000E-01  5.0000000000E-01  0.0000000000E+00
           shiftk1     5.00000000E-01  5.00000000E-01  5.00000000E-01
           shiftk2     5.00000000E-01  5.00000000E-01  5.00000000E-01
           shiftk3     0.00000000E+00  0.00000000E+00  0.00000000E+00
          spgroup         227
           symrel      1  0  0   0  1  0   0  0  1      -1  0  0   0 -1  0   0  0 -1
                       0 -1  1   0 -1  0   1 -1  0       0  1 -1   0  1  0  -1  1  0
                      -1  0  0  -1  0  1  -1  1  0       1  0  0   1  0 -1   1 -1  0
                       0  1 -1   1  0 -1   0  0 -1       0 -1  1  -1  0  1   0  0  1
                      -1  0  0  -1  1  0  -1  0  1       1  0  0   1 -1  0   1  0 -1
                       0 -1  1   1 -1  0   0 -1  0       0  1 -1  -1  1  0   0  1  0
                       1  0  0   0  0  1   0  1  0      -1  0  0   0  0 -1   0 -1  0
                       0  1 -1   0  0 -1   1  0 -1       0 -1  1   0  0  1  -1  0  1
                      -1  0  1  -1  1  0  -1  0  0       1  0 -1   1 -1  0   1  0  0
                       0 -1  0   1 -1  0   0 -1  1       0  1  0  -1  1  0   0  1 -1
                       1  0 -1   0  0 -1   0  1 -1      -1  0  1   0  0  1   0 -1  1
                       0  1  0   0  0  1   1  0  0       0 -1  0   0  0 -1  -1  0  0
                       1  0 -1   0  1 -1   0  0 -1      -1  0  1   0 -1  1   0  0  1
                       0 -1  0   0 -1  1   1 -1  0       0  1  0   0  1 -1  -1  1  0
                      -1  0  1  -1  0  0  -1  1  0       1  0 -1   1  0  0   1 -1  0
                       0  1  0   1  0  0   0  0  1       0 -1  0  -1  0  0   0  0 -1
                       0  0 -1   0  1 -1   1  0 -1       0  0  1   0 -1  1  -1  0  1
                       1 -1  0   0 -1  1   0 -1  0      -1  1  0   0  1 -1   0  1  0
                       0  0  1   1  0  0   0  1  0       0  0 -1  -1  0  0   0 -1  0
                      -1  1  0  -1  0  0  -1  0  1       1 -1  0   1  0  0   1  0 -1
                       0  0  1   0  1  0   1  0  0       0  0 -1   0 -1  0  -1  0  0
                       1 -1  0   0 -1  0   0 -1  1      -1  1  0   0  1  0   0  1 -1
                       0  0 -1   1  0 -1   0  1 -1       0  0  1  -1  0  1   0 -1  1
                      -1  1  0  -1  0  1  -1  0  0       1 -1  0   1  0 -1   1  0  0
            tnons      0.0000000  0.0000000  0.0000000     0.2500000  0.2500000  0.2500000
                       0.0000000  0.0000000  0.0000000     0.2500000  0.2500000  0.2500000
                       0.0000000  0.0000000  0.0000000     0.2500000  0.2500000  0.2500000
                       0.0000000  0.0000000  0.0000000     0.2500000  0.2500000  0.2500000
                       0.0000000  0.0000000  0.0000000     0.2500000  0.2500000  0.2500000
                       0.0000000  0.0000000  0.0000000     0.2500000  0.2500000  0.2500000
                       0.0000000  0.0000000  0.0000000     0.2500000  0.2500000  0.2500000
                       0.0000000  0.0000000  0.0000000     0.2500000  0.2500000  0.2500000
                       0.0000000  0.0000000  0.0000000     0.2500000  0.2500000  0.2500000
                       0.0000000  0.0000000  0.0000000     0.2500000  0.2500000  0.2500000
                       0.0000000  0.0000000  0.0000000     0.2500000  0.2500000  0.2500000
                       0.0000000  0.0000000  0.0000000     0.2500000  0.2500000  0.2500000
                       0.0000000  0.0000000  0.0000000     0.2500000  0.2500000  0.2500000
                       0.0000000  0.0000000  0.0000000     0.2500000  0.2500000  0.2500000
                       0.0000000  0.0000000  0.0000000     0.2500000  0.2500000  0.2500000
                       0.0000000  0.0000000  0.0000000     0.2500000  0.2500000  0.2500000
                       0.0000000  0.0000000  0.0000000     0.2500000  0.2500000  0.2500000
                       0.0000000  0.0000000  0.0000000     0.2500000  0.2500000  0.2500000
                       0.0000000  0.0000000  0.0000000     0.2500000  0.2500000  0.2500000
                       0.0000000  0.0000000  0.0000000     0.2500000  0.2500000  0.2500000
                       0.0000000  0.0000000  0.0000000     0.2500000  0.2500000  0.2500000
                       0.0000000  0.0000000  0.0000000     0.2500000  0.2500000  0.2500000
                       0.0000000  0.0000000  0.0000000     0.2500000  0.2500000  0.2500000
                       0.0000000  0.0000000  0.0000000     0.2500000  0.2500000  0.2500000
           toldfe1     1.00000000E-06 Hartree
           toldfe2     0.00000000E+00 Hartree
           toldfe3     0.00000000E+00 Hartree
           tolwfr1     0.00000000E+00
           tolwfr2     1.00000000E-18
           tolwfr3     0.00000000E+00
            typat      1  1
              wtk1       0.09375    0.09375    0.09375    0.18750    0.09375    0.09375
                         0.09375    0.18750    0.03125    0.03125
              wtk2       1.00000
              wtk3       1.00000
           xangst      0.0000000000E+00  0.0000000000E+00  0.0000000000E+00
                       1.3516508850E+00  1.3516508850E+00  1.3516508850E+00
            xcart      0.0000000000E+00  0.0000000000E+00  0.0000000000E+00
                       2.5542500000E+00  2.5542500000E+00  2.5542500000E+00
             xred      0.0000000000E+00  0.0000000000E+00  0.0000000000E+00
                       2.5000000000E-01  2.5000000000E-01  2.5000000000E-01
            znucl       14.00000

================================================================================

 chkinp: Checking input parameters for consistency, jdtset=   1.

 chkinp: Checking input parameters for consistency, jdtset=   2.

 chkinp: Checking input parameters for consistency, jdtset=   3.

================================================================================
== DATASET  1 ==================================================================
-   nproc =    1

 Exchange-correlation functional for the present dataset will be:
  LDA: new Teter (4/93) with spin-polarized option - ixc=1
 Citation for XC functional:
  S. Goedecker, M. Teter, J. Huetter, PRB 54, 1703 (1996)

 Real(R)+Recip(G) space primitive vectors, cartesian coordinates (Bohr,Bohr^-1):
 R(1)=  0.0000000  5.1085000  5.1085000  G(1)= -0.0978761  0.0978761  0.0978761
 R(2)=  5.1085000  0.0000000  5.1085000  G(2)=  0.0978761 -0.0978761  0.0978761
 R(3)=  5.1085000  5.1085000  0.0000000  G(3)=  0.0978761  0.0978761 -0.0978761
 Unit cell volume ucvol=  2.6663072E+02 bohr^3
 Angles (23,13,12)=  6.00000000E+01  6.00000000E+01  6.00000000E+01 degrees

 getcut: wavevector=  0.0000  0.0000  0.0000  ngfft=  20  20  20
         ecut(hartree)=      8.000   => boxcut(ratio)=   2.17426

--- Pseudopotential description ------------------------------------------------
- pspini: atom type   1  psp file is /home/gonze/ABINIT/ABINITv7.10.4/trunk/7.10.4-private/tests/Psps_for_tests/14si.pspnc
- pspatm: opening atomic psp file    /home/gonze/ABINIT/ABINITv7.10.4/trunk/7.10.4-private/tests/Psps_for_tests/14si.pspnc
-  Troullier-Martins psp for element  Si        Thu Oct 27 17:31:21 EDT 1994
- 14.00000   4.00000    940714                znucl, zion, pspdat
    1    1    2    2      2001   0.00000      pspcod,pspxc,lmax,lloc,mmax,r2well
    0   5.907  14.692    1   2.0872718        l,e99.0,e99.9,nproj,rcpsp
   0.00000000   0.00000000   0.00000000   0.00000000     rms, ekb1, ekb2, epsatm
    1   2.617   4.181    1   2.0872718        l,e99.0,e99.9,nproj,rcpsp
   0.00000000   0.00000000   0.00000000   0.00000000     rms, ekb1, ekb2, epsatm
    2   0.000   0.000    0   2.0872718        l,e99.0,e99.9,nproj,rcpsp
   0.00000000   0.00000000   0.00000000   0.00000000     rms, ekb1, ekb2, epsatm
    1.80626423934776    0.22824404341771    1.17378968127746   rchrg,fchrg,qchrg
 pspatm: epsatm=    1.43386982
         --- l  ekb(1:nproj) -->
             0    3.287949
             1    1.849886
 pspatm: atomic psp has been read  and splines computed

   2.29419171E+01                                ecore*ucvol(ha*bohr**3)
--------------------------------------------------------------------------------

P newkpt: treating      5 bands with npw=     295 for ikpt=   1 by node    0
P newkpt: treating      5 bands with npw=     283 for ikpt=   2 by node    0
P newkpt: treating      5 bands with npw=     292 for ikpt=   3 by node    0
P newkpt: treating      5 bands with npw=     289 for ikpt=   4 by node    0
P newkpt: treating      5 bands with npw=     292 for ikpt=   5 by node    0
P newkpt: treating      5 bands with npw=     286 for ikpt=   6 by node    0
P newkpt: treating      5 bands with npw=     291 for ikpt=   7 by node    0
P newkpt: treating      5 bands with npw=     286 for ikpt=   8 by node    0
P newkpt: treating      5 bands with npw=     295 for ikpt=   9 by node    0
P newkpt: treating      5 bands with npw=     287 for ikpt=  10 by node    0

_setup2: Arith. and geom. avg. npw (full set) are     289.031     289.009

================================================================================

     iter   Etot(hartree)      deltaE(h)  residm     vres2    diffor    maxfor
 ETOT  1  -8.8670398817704    -8.867E+00 4.860E-03 5.720E+00 0.000E+00 0.000E+00
 ETOT  2  -8.8724786475022    -5.439E-03 2.762E-04 1.581E-01 6.177E-30 6.177E-30
 ETOT  3  -8.8725426227097    -6.398E-05 1.121E-05 4.156E-02 9.059E-30 2.883E-30
 ETOT  4  -8.8725555856644    -1.296E-05 7.128E-07 4.347E-03 2.677E-30 2.059E-31
 ETOT  5  -8.8725568836326    -1.298E-06 3.321E-07 4.411E-04 1.235E-30 1.235E-30
 ETOT  6  -8.8725570698973    -1.863E-07 2.692E-08 1.162E-05 1.210E-30 2.831E-31
 ETOT  7  -8.8725570746407    -4.743E-09 9.208E-09 3.056E-08 2.831E-31 0.000E+00

 At SCF step    7, etot is converged : 
  for the second time, diff in etot=  4.743E-09 < toldfe=  1.000E-06

 Cartesian components of stress tensor (hartree/bohr^3)
  sigma(1 1)=  3.02457197E-05  sigma(3 2)=  0.00000000E+00
  sigma(2 2)=  3.02457197E-05  sigma(3 1)=  0.00000000E+00
  sigma(3 3)=  3.02457197E-05  sigma(2 1)=  0.00000000E+00

================================================================================

 ----iterations are completed or convergence reached----

 Mean square residual over all n,k,spin=   2.3633E-10; max=  9.2081E-09
  -0.1250 -0.2500  0.0000    1  8.47121E-11 kpt; spin; max resid(k); each band:
  6.16E-11 1.81E-11 5.91E-13 3.10E-11 8.47E-11
  -0.1250  0.5000  0.0000    1  2.39635E-10 kpt; spin; max resid(k); each band:
  1.79E-11 8.88E-11 3.46E-11 3.35E-13 2.40E-10
  -0.2500 -0.3750  0.0000    1  1.10116E-10 kpt; spin; max resid(k); each band:
  7.18E-11 1.20E-11 2.73E-11 1.06E-12 1.10E-10
  -0.1250 -0.3750  0.1250    1  4.24465E-10 kpt; spin; max resid(k); each band:
  4.84E-11 3.59E-11 5.53E-11 1.32E-11 4.24E-10
  -0.1250  0.2500  0.0000    1  2.12256E-10 kpt; spin; max resid(k); each band:
  3.64E-11 5.98E-11 2.69E-11 6.11E-13 2.12E-10
  -0.2500  0.3750  0.0000    1  6.62889E-11 kpt; spin; max resid(k); each band:
  8.75E-12 6.63E-11 2.91E-11 1.61E-12 6.16E-11
  -0.3750  0.5000  0.0000    1  9.41247E-11 kpt; spin; max resid(k); each band:
  4.59E-11 1.84E-11 9.25E-12 6.08E-13 9.41E-11
  -0.2500  0.5000  0.1250    1  1.23105E-10 kpt; spin; max resid(k); each band:
  1.94E-11 2.76E-11 1.80E-11 5.61E-11 1.23E-10
  -0.1250  0.0000  0.0000    1  9.20814E-09 kpt; spin; max resid(k); each band:
  3.07E-11 2.08E-11 1.64E-12 1.64E-12 9.21E-09
  -0.3750  0.0000  0.0000    1  1.21565E-10 kpt; spin; max resid(k); each band:
  4.16E-11 9.75E-11 1.76E-13 1.76E-13 1.22E-10
 reduced coordinates (array xred) for    2 atoms
       0.000000000000      0.000000000000      0.000000000000
       0.250000000000      0.250000000000      0.250000000000
 rms dE/dt=  0.0000E+00; max dE/dt=  0.0000E+00; dE/dt below (all hartree)
    1       0.000000000000      0.000000000000      0.000000000000
    2       0.000000000000      0.000000000000      0.000000000000

 cartesian coordinates (angstrom) at end:
    1      0.00000000000000     0.00000000000000     0.00000000000000
    2      1.35165088504101     1.35165088504101     1.35165088504101

 cartesian forces (hartree/bohr) at end:
    1     -0.00000000000000    -0.00000000000000    -0.00000000000000
    2     -0.00000000000000    -0.00000000000000    -0.00000000000000
 frms,max,avg= 0.0000000E+00 0.0000000E+00   0.000E+00  0.000E+00  0.000E+00 h/b

 cartesian forces (eV/Angstrom) at end:
    1     -0.00000000000000    -0.00000000000000    -0.00000000000000
    2     -0.00000000000000    -0.00000000000000    -0.00000000000000
 frms,max,avg= 0.0000000E+00 0.0000000E+00   0.000E+00  0.000E+00  0.000E+00 e/A
 length scales= 10.217000000000 10.217000000000 10.217000000000 bohr
              =  5.406603540164  5.406603540164  5.406603540164 angstroms
 prteigrs : about to open file tgw1_2o_DS1_EIG
 Fermi (or HOMO) energy (hartree) =   0.20639   Average Vxc (hartree)=  -0.35452
 Eigenvalues (hartree) for nkpt=  10  k points:
 kpt#   1, nband=  5, wtk=  0.09375, kpt= -0.1250 -0.2500  0.0000 (reduced coord)
  -0.19910   0.09746   0.16769   0.17054   0.29392
 kpt#   2, nband=  5, wtk=  0.09375, kpt= -0.1250  0.5000  0.0000 (reduced coord)
  -0.13615  -0.03410   0.13177   0.15876   0.29556
 kpt#   3, nband=  5, wtk=  0.09375, kpt= -0.2500 -0.3750  0.0000 (reduced coord)
  -0.15990   0.03449   0.11681   0.13442   0.26365
 kpt#   4, nband=  5, wtk=  0.18750, kpt= -0.1250 -0.3750  0.1250 (reduced coord)
  -0.14389   0.00051   0.09248   0.14469   0.32094
 kpt#   5, nband=  5, wtk=  0.09375, kpt= -0.1250  0.2500  0.0000 (reduced coord)
  -0.18007   0.04530   0.13033   0.18831   0.31515
 kpt#   6, nband=  5, wtk=  0.09375, kpt= -0.2500  0.3750  0.0000 (reduced coord)
  -0.11740  -0.02927   0.06717   0.14657   0.28192
 kpt#   7, nband=  5, wtk=  0.09375, kpt= -0.3750  0.5000  0.0000 (reduced coord)
  -0.10392  -0.03545   0.08802   0.11675   0.24618
 kpt#   8, nband=  5, wtk=  0.18750, kpt= -0.2500  0.5000  0.1250 (reduced coord)
  -0.09711  -0.03937   0.06437   0.10586   0.30237
 kpt#   9, nband=  5, wtk=  0.03125, kpt= -0.1250  0.0000  0.0000 (reduced coord)
  -0.21917   0.15754   0.20639   0.20639   0.30711
 kpt#  10, nband=  5, wtk=  0.03125, kpt= -0.3750  0.0000  0.0000 (reduced coord)
  -0.16342  -0.00429   0.17659   0.17659   0.27596
 Total charge density [el/Bohr^3]
,     Maximum=    8.5805E-02  at reduced coord.    0.1000    0.1000    0.7000
,Next maximum=    8.5805E-02  at reduced coord.    0.1500    0.1500    0.5500
,     Minimum=    3.5222E-03  at reduced coord.    0.5000    0.5000    0.5000
,Next minimum=    3.5222E-03  at reduced coord.    0.7500    0.7500    0.7500
,  Integrated=    8.0000E+00

--------------------------------------------------------------------------------
 Components of total free energy (in Hartree) :

    Kinetic energy  =  3.02548252433767E+00
    Hartree energy  =  5.38001630070596E-01
    XC energy       = -3.53865822471174E+00
    Ewald energy    = -8.43581958561899E+00
    PspCore energy  =  8.60437873148613E-02
    Loc. psp. energy= -2.43059223811694E+00
    NL   psp  energy=  1.88298503208382E+00
    >>>>>>>>> Etotal= -8.87255707464073E+00

 Other information on the energy :
    Total energy(eV)= -2.41434556377808E+02 ; Band energy (Ha)=   2.3118645351E-01
--------------------------------------------------------------------------------

 Cartesian components of stress tensor (hartree/bohr^3)
  sigma(1 1)=  3.02457197E-05  sigma(3 2)=  0.00000000E+00
  sigma(2 2)=  3.02457197E-05  sigma(3 1)=  0.00000000E+00
  sigma(3 3)=  3.02457197E-05  sigma(2 1)=  0.00000000E+00

-Cartesian components of stress tensor (GPa)         [Pressure= -8.8986E-01 GPa]
- sigma(1 1)=  8.89859646E-01  sigma(3 2)=  0.00000000E+00
- sigma(2 2)=  8.89859646E-01  sigma(3 1)=  0.00000000E+00
- sigma(3 3)=  8.89859646E-01  sigma(2 1)=  0.00000000E+00

================================================================================
== DATASET  2 ==================================================================
-   nproc =    1

 mkfilename : getden/=0, take file _DEN from output of DATASET   1.

 Exchange-correlation functional for the present dataset will be:
  LDA: new Teter (4/93) with spin-polarized option - ixc=1
 Citation for XC functional:
  S. Goedecker, M. Teter, J. Huetter, PRB 54, 1703 (1996)

 Real(R)+Recip(G) space primitive vectors, cartesian coordinates (Bohr,Bohr^-1):
 R(1)=  0.0000000  5.1085000  5.1085000  G(1)= -0.0978761  0.0978761  0.0978761
 R(2)=  5.1085000  0.0000000  5.1085000  G(2)=  0.0978761 -0.0978761  0.0978761
 R(3)=  5.1085000  5.1085000  0.0000000  G(3)=  0.0978761  0.0978761 -0.0978761
 Unit cell volume ucvol=  2.6663072E+02 bohr^3
 Angles (23,13,12)=  6.00000000E+01  6.00000000E+01  6.00000000E+01 degrees

 getcut: wavevector=  0.0000  0.0000  0.0000  ngfft=  20  20  20
         ecut(hartree)=      8.000   => boxcut(ratio)=   2.17426
--------------------------------------------------------------------------------

P newkpt: treating    260 bands with npw=     283 for ikpt=   1 by node    0


================================================================================
 prteigrs : about to open file tgw1_2o_DS2_EIG
 Non-SCF case, kpt    1 (  0.00000  0.00000  0.00000), residuals and eigenvalues=
  4.31E-23  1.80E-20  5.25E-20  6.60E-20  2.66E-19  3.72E-19  7.64E-20  4.37E-23
  3.05E-23  6.34E-20  2.11E-19  4.72E-19  8.89E-19  8.78E-19  3.59E-23  3.16E-19
  2.21E-19  2.47E-19  9.84E-20  1.82E-20  2.22E-19  7.07E-20  2.47E-19  7.58E-20
  1.56E-19  4.44E-19  1.54E-19  9.22E-19  1.19E-19  4.68E-19  1.80E-19  1.25E-19
  2.69E-19  6.99E-19  2.46E-19  3.73E-19  3.71E-19  4.15E-23  4.33E-19  1.50E-19
  3.26E-19  6.67E-23  1.17E-19  4.98E-19  2.18E-19  3.62E-19  4.05E-20  4.73E-19
  1.80E-19  1.48E-20  1.91E-19  5.69E-19  7.01E-20  5.14E-19  7.96E-21  2.96E-19
  1.61E-19  1.78E-19  9.54E-20  2.23E-19  1.31E-19  1.62E-22  2.26E-19  2.41E-19
  2.69E-20  3.45E-22  6.66E-20  1.72E-22  2.44E-22  3.29E-22  2.79E-19  2.20E-22
  3.15E-22  7.00E-22  9.89E-19  8.89E-19  6.47E-19  2.30E-19  2.24E-19  3.49E-22
  6.65E-22  1.60E-22  9.79E-19  5.74E-22  1.53E-21  3.16E-22  4.19E-22  9.48E-22
  6.03E-22  9.88E-19  8.44E-22  1.34E-21  1.78E-21  3.35E-22  7.96E-22  2.74E-21
  1.18E-21  3.79E-22  3.96E-21  7.59E-22  2.99E-21  5.80E-22  1.49E-21  8.34E-22
  1.36E-21  3.47E-22  3.02E-21  5.45E-22  2.41E-21  4.85E-21  4.05E-22  2.66E-21
  5.43E-19  1.05E-20  3.81E-21  7.53E-21  5.96E-22  2.14E-21  4.07E-21  2.31E-20
  1.61E-20  2.32E-19  1.86E-20  2.19E-20  1.77E-21  1.04E-20  1.53E-20  2.72E-20
  1.25E-20  9.60E-21  6.87E-21  5.34E-21  1.27E-20  2.01E-20  6.75E-21  1.98E-20
  5.62E-21  6.03E-20  2.24E-19  6.79E-20  3.24E-20  1.53E-20  1.61E-20  2.95E-19
  1.59E-19  6.60E-20  1.15E-19  3.26E-20  2.56E-19  1.22E-19  2.37E-19  1.78E-19
  1.69E-19  2.98E-20  1.02E-19  2.24E-19  6.42E-20  2.09E-19  8.14E-20  2.07E-20
  3.99E-19  3.22E-19  1.16E-19  2.37E-19  3.80E-19  2.45E-19  4.07E-19  1.22E-19
  1.24E-19  1.15E-19  4.54E-21  3.56E-20  5.21E-20  7.51E-20  1.20E-19  1.64E-20
  1.03E-20  8.87E-21  2.01E-19  1.49E-19  4.08E-19  3.53E-20  5.51E-22  9.93E-19
  1.77E-20  9.09E-19  3.00E-20  2.84E-20  3.96E-20  7.23E-21  6.80E-20  1.29E-20
  8.93E-19  1.65E-19  2.65E-20  6.63E-21  1.95E-20  1.13E-20  7.94E-21  5.24E-20
  3.84E-20  5.01E-21  5.47E-20  3.09E-20  2.78E-20  6.52E-20  7.28E-20  2.62E-20
  4.17E-20  1.56E-19  7.57E-20  1.52E-19  6.23E-19  1.21E-19  3.29E-19  2.79E-19
  8.73E-20  1.92E-19  3.35E-19  1.89E-20  7.64E-20  1.66E-19  4.74E-21  3.04E-21
  4.91E-21  4.84E-19  1.96E-19  3.04E-19  7.62E-21  1.02E-19  1.17E-19  5.64E-20
  6.90E-20  8.22E-20  8.81E-19  4.93E-19  3.53E-20  1.57E-19  1.12E-19  3.93E-20
  3.61E-20  2.11E-20  4.51E-20  1.18E-19  5.34E-21  2.05E-19  6.45E-20  4.24E-19
  7.32E-19  1.82E-20  5.42E-21  3.75E-19  8.28E-20  7.44E-21  1.69E-20  2.38E-20
  7.59E-20  9.13E-20  1.02E-19  1.57E-14
 -2.2678E-01  2.1738E-01  2.1738E-01  2.1738E-01  3.1036E-01  3.1036E-01
  3.1036E-01  3.3704E-01  4.9945E-01  5.0776E-01  5.0776E-01  6.2880E-01
  6.2880E-01  6.2880E-01  7.7142E-01  1.0765E+00  1.0765E+00  1.0765E+00
  1.1188E+00  1.1188E+00  1.1536E+00  1.1536E+00  1.1536E+00  1.3048E+00
  1.3048E+00  1.3048E+00  1.5005E+00  1.5221E+00  1.5221E+00  1.5221E+00
  1.6645E+00  1.6645E+00  1.7239E+00  1.7239E+00  1.7421E+00  1.7421E+00
  1.7421E+00  1.7981E+00  1.8391E+00  1.8391E+00  1.8391E+00  1.8530E+00
  1.8808E+00  1.8808E+00  1.8808E+00  1.8900E+00  1.8900E+00  1.8900E+00
  1.9375E+00  1.9375E+00  1.9375E+00  2.0833E+00  2.1188E+00  2.1188E+00
  2.1188E+00  2.1223E+00  2.1223E+00  2.1223E+00  2.1391E+00  2.6872E+00
  2.6872E+00  2.6895E+00  2.7931E+00  2.7931E+00  2.7931E+00  2.7971E+00
  2.9193E+00  2.9193E+00  2.9193E+00  2.9434E+00  2.9434E+00  2.9456E+00
  2.9456E+00  2.9456E+00  3.0295E+00  3.0970E+00  3.0970E+00  3.0970E+00
  3.2438E+00  3.2438E+00  3.2438E+00  3.2986E+00  3.2986E+00  3.2986E+00
  3.3014E+00  3.3014E+00  3.3014E+00  3.3081E+00  3.3081E+00  3.4385E+00
  3.4385E+00  3.4570E+00  3.4570E+00  3.4570E+00  3.4747E+00  3.5696E+00
  3.5696E+00  3.5696E+00  3.6115E+00  3.6115E+00  3.6115E+00  3.6184E+00
  3.6184E+00  3.6184E+00  3.6399E+00  3.6399E+00  3.6399E+00  3.6639E+00
  3.6951E+00  3.6951E+00  3.6951E+00  3.6992E+00  3.6992E+00  3.9188E+00
  3.9925E+00  3.9925E+00  3.9925E+00  4.0478E+00  4.0958E+00  4.0958E+00
  4.0978E+00  4.0978E+00  4.0978E+00  4.2188E+00  4.2188E+00  4.2188E+00
  4.2549E+00  4.2549E+00  4.2549E+00  4.2878E+00  4.2878E+00  4.2878E+00
  4.3164E+00  4.3164E+00  4.3164E+00  4.3426E+00  4.3426E+00  4.7173E+00
  4.7243E+00  4.7307E+00  4.7307E+00  4.7563E+00  4.7563E+00  4.7563E+00
  4.7693E+00  4.7693E+00  4.7843E+00  4.7843E+00  4.7843E+00  4.8276E+00
  4.8276E+00  4.8276E+00  4.8394E+00  4.8394E+00  4.8394E+00  4.8596E+00
  4.8809E+00  4.9162E+00  4.9162E+00  4.9162E+00  4.9167E+00  4.9167E+00
  4.9167E+00  4.9338E+00  4.9338E+00  4.9338E+00  4.9411E+00  4.9411E+00
  4.9411E+00  5.5649E+00  5.5649E+00  5.5649E+00  5.5667E+00  5.5667E+00
  5.5667E+00  5.5878E+00  5.5878E+00  5.6007E+00  5.6298E+00  5.6298E+00
  5.6298E+00  5.9513E+00  5.9800E+00  5.9800E+00  5.9800E+00  6.0305E+00
  6.0305E+00  6.0305E+00  6.0795E+00  6.0795E+00  6.0795E+00  6.0964E+00
  6.0964E+00  6.1359E+00  6.2170E+00  6.2170E+00  6.2170E+00  6.2401E+00
  6.2401E+00  6.2596E+00  6.2596E+00  6.2596E+00  6.2788E+00  6.2788E+00
  6.2788E+00  6.3540E+00  6.3540E+00  6.3540E+00  6.3608E+00  6.3608E+00
  6.3608E+00  6.3763E+00  6.3763E+00  6.3962E+00  6.3962E+00  6.4039E+00
  6.4039E+00  6.4039E+00  6.4151E+00  6.4151E+00  6.4151E+00  6.4428E+00
  6.4526E+00  6.4526E+00  6.4526E+00  6.4639E+00  6.4639E+00  6.4639E+00
  6.4747E+00  6.5292E+00  6.5300E+00  6.5484E+00  6.5484E+00  6.5484E+00
  6.5591E+00  6.5591E+00  6.5591E+00  6.5698E+00  6.5698E+00  6.5918E+00
  6.5918E+00  6.5918E+00  6.6148E+00  6.6695E+00  6.6695E+00  6.6699E+00
  6.6699E+00  6.6699E+00  6.6839E+00  6.6839E+00  6.6839E+00  6.6903E+00
  6.6903E+00  6.6903E+00  6.6970E+00  6.6970E+00  6.6970E+00  6.6982E+00
  6.6982E+00  7.1579E+00
  prteigrs : nnsclo,ikpt=   20    1 max resid (incl. the buffer)=  1.56831E-14

======================================================================
 Calculating and writing out Kohn-Sham electronic Structure file
 Using conjugate gradient wavefunctions and energies (kssform=3)
 number of Gamma centered plane waves    283
 number of Gamma centered shells     17
 number of bands    250
 maximum angular momentum components      3
 Conjugate gradient eigenvalues
   k    eigenvalues [Hartree]
   1     -0.2268  0.2174  0.2174  0.2174  0.3104  0.3104  0.3104  0.3370  0.4994
          0.5078  0.5078  0.6288  0.6288  0.6288  0.7714  1.0765  1.0765  1.0765
          1.1188  1.1188  1.1536  1.1536  1.1536  1.3048  1.3048  1.3048  1.5005
          1.5221  1.5221  1.5221  1.6645  1.6645  1.7239  1.7239  1.7421  1.7421
          1.7421  1.7981  1.8391  1.8391  1.8391  1.8530  1.8808  1.8808  1.8808
          1.8900  1.8900  1.8900  1.9375  1.9375  1.9375  2.0833  2.1188  2.1188
          2.1188  2.1223  2.1223  2.1223  2.1391  2.6872  2.6872  2.6895  2.7931
          2.7931  2.7931  2.7971  2.9193  2.9193  2.9193  2.9434  2.9434  2.9456
          2.9456  2.9456  3.0295  3.0970  3.0970  3.0970  3.2438  3.2438  3.2438
          3.2986  3.2986  3.2986  3.3014  3.3014  3.3014  3.3081  3.3081  3.4385
          3.4385  3.4570  3.4570  3.4570  3.4747  3.5696  3.5696  3.5696  3.6115
          3.6115  3.6115  3.6184  3.6184  3.6184  3.6399  3.6399  3.6399  3.6639
          3.6951  3.6951  3.6951  3.6992  3.6992  3.9188  3.9925  3.9925  3.9925
          4.0478  4.0958  4.0958  4.0978  4.0978  4.0978  4.2188  4.2188  4.2188
          4.2549  4.2549  4.2549  4.2878  4.2878  4.2878  4.3164  4.3164  4.3164
          4.3426  4.3426  4.7173  4.7243  4.7307  4.7307  4.7563  4.7563  4.7563
          4.7693  4.7693  4.7843  4.7843  4.7843  4.8276  4.8276  4.8276  4.8394
          4.8394  4.8394  4.8596  4.8809  4.9162  4.9162  4.9162  4.9167  4.9167
          4.9167  4.9338  4.9338  4.9338  4.9411  4.9411  4.9411  5.5649  5.5649
          5.5649  5.5667  5.5667  5.5667  5.5878  5.5878  5.6007  5.6298  5.6298
          5.6298  5.9513  5.9800  5.9800  5.9800  6.0305  6.0305  6.0305  6.0795
          6.0795  6.0795  6.0964  6.0964  6.1359  6.2170  6.2170  6.2170  6.2401
          6.2401  6.2596  6.2596  6.2596  6.2788  6.2788  6.2788  6.3540  6.3540
          6.3540  6.3608  6.3608  6.3608  6.3763  6.3763  6.3962  6.3962  6.4039
          6.4039  6.4039  6.4151  6.4151  6.4151  6.4428  6.4526  6.4526  6.4526
          6.4639  6.4639  6.4639  6.4747  6.5292  6.5300  6.5484  6.5484  6.5484
          6.5591  6.5591  6.5591  6.5698  6.5698  6.5918  6.5918  6.5918  6.6148
          6.6695  6.6695  6.6699  6.6699  6.6699  6.6839  6.6839
 Test on the normalization of the wavefunctions
  min sum_G |a(n,k,G)| =  1.000000
  max sum_G |a(n,k,G)| =  1.000000
 Test on the orthogonalization of the wavefunctions
  min sum_G a(n,k,G)a(n',k,G) =  0.000000
  max sum_G a(n,k,G)a(n',k,G) =  0.000000

================================================================================

 ----iterations are completed or convergence reached----

 Mean square residual over all n,k,spin=   6.0472E-17; max=  9.9339E-19
   0.0000  0.0000  0.0000    1  1.56831E-14 kpt; spin; max resid(k); each band:
  4.31E-23 1.80E-20 5.25E-20 6.60E-20 2.66E-19 3.72E-19 7.64E-20 4.37E-23
  3.05E-23 6.34E-20 2.11E-19 4.72E-19 8.89E-19 8.78E-19 3.59E-23 3.16E-19
  2.21E-19 2.47E-19 9.84E-20 1.82E-20 2.22E-19 7.07E-20 2.47E-19 7.58E-20
  1.56E-19 4.44E-19 1.54E-19 9.22E-19 1.19E-19 4.68E-19 1.80E-19 1.25E-19
  2.69E-19 6.99E-19 2.46E-19 3.73E-19 3.71E-19 4.15E-23 4.33E-19 1.50E-19
  3.26E-19 6.67E-23 1.17E-19 4.98E-19 2.18E-19 3.62E-19 4.05E-20 4.73E-19
  1.80E-19 1.48E-20 1.91E-19 5.69E-19 7.01E-20 5.14E-19 7.96E-21 2.96E-19
  1.61E-19 1.78E-19 9.54E-20 2.23E-19 1.31E-19 1.62E-22 2.26E-19 2.41E-19
  2.69E-20 3.45E-22 6.66E-20 1.72E-22 2.44E-22 3.29E-22 2.79E-19 2.20E-22
  3.15E-22 7.00E-22 9.89E-19 8.89E-19 6.47E-19 2.30E-19 2.24E-19 3.49E-22
  6.65E-22 1.60E-22 9.79E-19 5.74E-22 1.53E-21 3.16E-22 4.19E-22 9.48E-22
  6.03E-22 9.88E-19 8.44E-22 1.34E-21 1.78E-21 3.35E-22 7.96E-22 2.74E-21
  1.18E-21 3.79E-22 3.96E-21 7.59E-22 2.99E-21 5.80E-22 1.49E-21 8.34E-22
  1.36E-21 3.47E-22 3.02E-21 5.45E-22 2.41E-21 4.85E-21 4.05E-22 2.66E-21
  5.43E-19 1.05E-20 3.81E-21 7.53E-21 5.96E-22 2.14E-21 4.07E-21 2.31E-20
  1.61E-20 2.32E-19 1.86E-20 2.19E-20 1.77E-21 1.04E-20 1.53E-20 2.72E-20
  1.25E-20 9.60E-21 6.87E-21 5.34E-21 1.27E-20 2.01E-20 6.75E-21 1.98E-20
  5.62E-21 6.03E-20 2.24E-19 6.79E-20 3.24E-20 1.53E-20 1.61E-20 2.95E-19
  1.59E-19 6.60E-20 1.15E-19 3.26E-20 2.56E-19 1.22E-19 2.37E-19 1.78E-19
  1.69E-19 2.98E-20 1.02E-19 2.24E-19 6.42E-20 2.09E-19 8.14E-20 2.07E-20
  3.99E-19 3.22E-19 1.16E-19 2.37E-19 3.80E-19 2.45E-19 4.07E-19 1.22E-19
  1.24E-19 1.15E-19 4.54E-21 3.56E-20 5.21E-20 7.51E-20 1.20E-19 1.64E-20
  1.03E-20 8.87E-21 2.01E-19 1.49E-19 4.08E-19 3.53E-20 5.51E-22 9.93E-19
  1.77E-20 9.09E-19 3.00E-20 2.84E-20 3.96E-20 7.23E-21 6.80E-20 1.29E-20
  8.93E-19 1.65E-19 2.65E-20 6.63E-21 1.95E-20 1.13E-20 7.94E-21 5.24E-20
  3.84E-20 5.01E-21 5.47E-20 3.09E-20 2.78E-20 6.52E-20 7.28E-20 2.62E-20
  4.17E-20 1.56E-19 7.57E-20 1.52E-19 6.23E-19 1.21E-19 3.29E-19 2.79E-19
  8.73E-20 1.92E-19 3.35E-19 1.89E-20 7.64E-20 1.66E-19 4.74E-21 3.04E-21
  4.91E-21 4.84E-19 1.96E-19 3.04E-19 7.62E-21 1.02E-19 1.17E-19 5.64E-20
  6.90E-20 8.22E-20 8.81E-19 4.93E-19 3.53E-20 1.57E-19 1.12E-19 3.93E-20
  3.61E-20 2.11E-20 4.51E-20 1.18E-19 5.34E-21 2.05E-19 6.45E-20 4.24E-19
  7.32E-19 1.82E-20 5.42E-21 3.75E-19 8.28E-20 7.44E-21 1.69E-20 2.38E-20
  7.59E-20 9.13E-20 1.02E-19 1.57E-14
 reduced coordinates (array xred) for    2 atoms
       0.000000000000      0.000000000000      0.000000000000
       0.250000000000      0.250000000000      0.250000000000

 cartesian coordinates (angstrom) at end:
    1      0.00000000000000     0.00000000000000     0.00000000000000
    2      1.35165088504101     1.35165088504101     1.35165088504101
 length scales= 10.217000000000 10.217000000000 10.217000000000 bohr
              =  5.406603540164  5.406603540164  5.406603540164 angstroms
 prteigrs : about to open file tgw1_2o_DS2_EIG
 Eigenvalues (hartree) for nkpt=   1  k points:
 kpt#   1, nband=260, wtk=  1.00000, kpt=  0.0000  0.0000  0.0000 (reduced coord)
  -0.22678   0.21738   0.21738   0.21738   0.31036   0.31036   0.31036   0.33704
   0.49945   0.50776   0.50776   0.62880   0.62880   0.62880   0.77142   1.07646
   1.07646   1.07646   1.11882   1.11882   1.15358   1.15358   1.15358   1.30484
   1.30484   1.30484   1.50052   1.52214   1.52214   1.52214   1.66453   1.66453
   1.72386   1.72386   1.74206   1.74206   1.74206   1.79812   1.83913   1.83913
   1.83913   1.85297   1.88076   1.88076   1.88076   1.89002   1.89002   1.89002
   1.93751   1.93751   1.93751   2.08332   2.11877   2.11877   2.11877   2.12226
   2.12226   2.12226   2.13914   2.68720   2.68720   2.68951   2.79314   2.79314
   2.79314   2.79708   2.91928   2.91928   2.91928   2.94345   2.94345   2.94561
   2.94561   2.94561   3.02953   3.09702   3.09702   3.09702   3.24384   3.24384
   3.24384   3.29863   3.29863   3.29863   3.30135   3.30135   3.30135   3.30810
   3.30810   3.43847   3.43847   3.45698   3.45698   3.45698   3.47466   3.56959
   3.56959   3.56959   3.61149   3.61149   3.61149   3.61844   3.61844   3.61844
   3.63991   3.63991   3.63991   3.66387   3.69507   3.69507   3.69507   3.69920
   3.69920   3.91878   3.99254   3.99254   3.99254   4.04783   4.09583   4.09583
   4.09782   4.09782   4.09782   4.21875   4.21875   4.21875   4.25490   4.25490
   4.25490   4.28785   4.28785   4.28785   4.31644   4.31644   4.31644   4.34256
   4.34256   4.71731   4.72427   4.73075   4.73075   4.75632   4.75632   4.75632
   4.76932   4.76932   4.78433   4.78433   4.78433   4.82764   4.82764   4.82764
   4.83936   4.83936   4.83936   4.85959   4.88093   4.91621   4.91621   4.91621
   4.91673   4.91673   4.91673   4.93379   4.93379   4.93379   4.94110   4.94110
   4.94110   5.56486   5.56486   5.56486   5.56674   5.56674   5.56674   5.58781
   5.58781   5.60073   5.62984   5.62984   5.62984   5.95130   5.98003   5.98003
   5.98003   6.03048   6.03048   6.03048   6.07946   6.07946   6.07946   6.09636
   6.09636   6.13590   6.21699   6.21699   6.21699   6.24013   6.24013   6.25962
   6.25962   6.25962   6.27876   6.27876   6.27876   6.35396   6.35396   6.35396
   6.36082   6.36082   6.36082   6.37630   6.37630   6.39617   6.39617   6.40385
   6.40385   6.40385   6.41514   6.41514   6.41514   6.44279   6.45257   6.45257
   6.45257   6.46391   6.46391   6.46391   6.47474   6.52915   6.53000   6.54839
   6.54839   6.54839   6.55905   6.55905   6.55905   6.56982   6.56982   6.59179
   6.59179   6.59179   6.61484   6.66946   6.66946   6.66986   6.66986   6.66986
   6.68385   6.68385   6.68385   6.69027   6.69027   6.69027   6.69699   6.69699
   6.69699   6.69819   6.69819   7.15785
 Total charge density [el/Bohr^3]
,     Maximum=    8.5805E-02  at reduced coord.    0.1000    0.1000    0.7000
,Next maximum=    8.5805E-02  at reduced coord.    0.1500    0.1500    0.5500
,     Minimum=    3.5222E-03  at reduced coord.    0.5000    0.5000    0.5000
,Next minimum=    3.5222E-03  at reduced coord.    0.7500    0.7500    0.7500
,  Integrated=    8.0000E+00

================================================================================
== DATASET  3 ==================================================================
-   nproc =    1

 mkfilename : getkss/=0, take file _KSS from output of DATASET   2.

 Exchange-correlation functional for the present dataset will be:
  LDA: new Teter (4/93) with spin-polarized option - ixc=1
 Citation for XC functional:
  S. Goedecker, M. Teter, J. Huetter, PRB 54, 1703 (1996)

 SCREENING: Calculation of the susceptibility and dielectric matrices 

 Based on a program developped by R.W. Godby, V. Olevano, G. Onida, and L. Reining.
 Incorporated in ABINIT by V. Olevano, G.-M. Rignanese, and M. Torrent.
.Using double precision arithmetic ; gwpc =  8

 Real(R)+Recip(G) space primitive vectors, cartesian coordinates (Bohr,Bohr^-1):
 R(1)=  0.0000000  5.1085000  5.1085000  G(1)= -0.0978761  0.0978761  0.0978761
 R(2)=  5.1085000  0.0000000  5.1085000  G(2)=  0.0978761 -0.0978761  0.0978761
 R(3)=  5.1085000  5.1085000  0.0000000  G(3)=  0.0978761  0.0978761 -0.0978761
 Unit cell volume ucvol=  2.6663072E+02 bohr^3
 Angles (23,13,12)=  6.00000000E+01  6.00000000E+01  6.00000000E+01 degrees

--- Pseudopotential description ------------------------------------------------
- pspini: atom type   1  psp file is /home/gonze/ABINIT/ABINITv7.10.4/trunk/7.10.4-private/tests/Psps_for_tests/14si.pspnc
- pspatm: opening atomic psp file    /home/gonze/ABINIT/ABINITv7.10.4/trunk/7.10.4-private/tests/Psps_for_tests/14si.pspnc
-  Troullier-Martins psp for element  Si        Thu Oct 27 17:31:21 EDT 1994
- 14.00000   4.00000    940714                znucl, zion, pspdat
    1    1    2    2      2001   0.00000      pspcod,pspxc,lmax,lloc,mmax,r2well
    0   5.907  14.692    1   2.0872718        l,e99.0,e99.9,nproj,rcpsp
   0.00000000   0.00000000   0.00000000   0.00000000     rms, ekb1, ekb2, epsatm
    1   2.617   4.181    1   2.0872718        l,e99.0,e99.9,nproj,rcpsp
   0.00000000   0.00000000   0.00000000   0.00000000     rms, ekb1, ekb2, epsatm
    2   0.000   0.000    0   2.0872718        l,e99.0,e99.9,nproj,rcpsp
   0.00000000   0.00000000   0.00000000   0.00000000     rms, ekb1, ekb2, epsatm
    1.80626423934776    0.22824404341771    1.17378968127746   rchrg,fchrg,qchrg
 pspatm: epsatm=    1.43386982
         --- l  ekb(1:nproj) -->
             0    3.287949
             1    1.849886
 pspatm: atomic psp has been read  and splines computed

--------------------------------------------------------------------------------

 ==== K-mesh for the wavefunctions ====
 Number of points in the irreducible wedge :     1
 Reduced coordinates and weights : 

     1)     0.00000000E+00  0.00000000E+00  0.00000000E+00       1.00000

 Together with 48 symmetry operations and time-reversal symmetry 
 yields     1 points in the full Brillouin Zone.


 ==== Q-mesh for the screening function ====
 Number of points in the irreducible wedge :     1
 Reduced coordinates and weights : 

     1)     0.00000000E+00  0.00000000E+00  0.00000000E+00       1.00000

 Together with 48 symmetry operations and time-reversal symmetry 
 yields     1 points in the full Brillouin Zone.


 setmesh: FFT mesh size selected  =  20x 20x 20
          total number of points  =     8000


 k       eigenvalues [eV]
  1         -6.17   5.92   5.92   5.92   8.45   8.45   8.45   9.17  13.59  13.82
            13.82  17.11  17.11  17.11  20.99  29.29  29.29  29.29  30.44  30.44
            31.39  31.39  31.39  35.51  35.51
 Number of electrons calculated from density =    7.9739; Expected =    8.0000
 average of density, n =  0.029906
 r_s =    1.9986
 omega_plasma =   16.6816 [eV]


 calculating chi0 at frequencies [eV] :
  1    0.000000E+00    0.000000E+00
  2    0.000000E+00    1.670000E+01


--------------------------------------------------------------------------------
  q-point number  1        q = ( 0.000000, 0.000000, 0.000000) [r.l.u.]
--------------------------------------------------------------------------------
  chi0(G,G') at the    1 th omega   0.0000   0.0000 [eV]
       1       2       3       4       5       6       7       8       9
    1  -0.000   0.000  -0.000  -0.001   0.001   0.001  -0.001  -0.000   0.000
        0.000   0.000   0.000  -0.001  -0.001   0.001   0.001  -0.000  -0.000

    2   0.000 -22.905  -0.000  -0.512   0.000  -0.621  -0.000  -0.653   0.000
       -0.000   0.000 -16.465  -0.000  -0.360  -0.000  -0.469   0.000  -0.501

  chi0(G,G') at the    2 th omega   0.0000  16.7000 [eV]
       1       2       3       4       5       6       7       8       9
    1  -0.000   0.000  -0.000  -0.000   0.000   0.000  -0.000  -0.000   0.000
       -0.000   0.000   0.000  -0.000  -0.000   0.000   0.000  -0.000  -0.000

    2   0.000  -5.523  -0.000  -0.031   0.000  -0.115  -0.000  -0.138   0.000
       -0.000  -0.000  -1.883  -0.000  -0.033  -0.000  -0.116   0.000  -0.140

 For q-point:  0.000010 0.000020 0.000030
  dielectric constant = 101.2762
  dielectric constant without local fields = 147.2226

  Average fulfillment of the sum rule on Im[epsilon] for q-point    1 :     42.38  [%]
  Heads and wings of the symmetrical epsilon^-1(G,G') 

   Upper and lower wings at the    1 th omega   0.0000   0.0000 [eV]
       1       2       3       4       5       6       7       8       9
      0.010   0.002  -0.002  -0.006   0.006   0.006  -0.006  -0.002   0.002
      0.000   0.002   0.002  -0.006  -0.006   0.006   0.006  -0.002  -0.002
       1       2       3       4       5       6       7       8       9
      0.010   0.002  -0.002  -0.006   0.006   0.006  -0.006  -0.002   0.002
      0.000  -0.002  -0.002   0.006   0.006  -0.006  -0.006   0.002   0.002


   Upper and lower wings at the    2 th omega   0.0000  16.7000 [eV]
       1       2       3       4       5       6       7       8       9
      0.200   0.004  -0.004  -0.013   0.013   0.013  -0.013  -0.004   0.004
     -0.000   0.004   0.004  -0.013  -0.013   0.013   0.013  -0.004  -0.004
       1       2       3       4       5       6       7       8       9
      0.200   0.004  -0.004  -0.013   0.013   0.013  -0.013  -0.004   0.004
     -0.000  -0.004  -0.004   0.013   0.013  -0.013  -0.013   0.004   0.004



== END DATASET(S) ==============================================================
================================================================================
  
 -outvars: echo values of variables after computation  --------
            acell      1.0217000000E+01  1.0217000000E+01  1.0217000000E+01 Bohr
              amu      2.80855000E+01
             awtr1          1
             awtr2          1
             awtr3          0
           diemac      1.20000000E+01
             ecut1     8.00000000E+00 Hartree
             ecut2     8.00000000E+00 Hartree
             ecut3     3.59282906E+00 Hartree
          ecuteps1     0.00000000E+00 Hartree
          ecuteps2     0.00000000E+00 Hartree
          ecuteps3     5.10559920E+00 Hartree
          ecutwfn1     0.00000000E+00 Hartree
          ecutwfn2     0.00000000E+00 Hartree
          ecutwfn3     3.59282906E+00 Hartree
           etotal1    -8.8725570746E+00
           etotal3     0.0000000000E+00
            fcart1    -0.0000000000E+00 -0.0000000000E+00 -0.0000000000E+00
                      -0.0000000000E+00 -0.0000000000E+00 -0.0000000000E+00
            fcart3     0.0000000000E+00  0.0000000000E+00  0.0000000000E+00
                       0.0000000000E+00  0.0000000000E+00  0.0000000000E+00
-          fftalg         112
           getden1          0
           getden2         -1
           getden3          0
           getkss1          0
           getkss2          0
           getkss3         -1
             iscf1          5
             iscf2         -2
             iscf3          5
           istwfk2       1
           istwfk3       1
           jdtset        1    2    3
              kpt1    -1.25000000E-01 -2.50000000E-01  0.00000000E+00
                      -1.25000000E-01  5.00000000E-01  0.00000000E+00
                      -2.50000000E-01 -3.75000000E-01  0.00000000E+00
                      -1.25000000E-01 -3.75000000E-01  1.25000000E-01
                      -1.25000000E-01  2.50000000E-01  0.00000000E+00
                      -2.50000000E-01  3.75000000E-01  0.00000000E+00
                      -3.75000000E-01  5.00000000E-01  0.00000000E+00
                      -2.50000000E-01  5.00000000E-01  1.25000000E-01
                      -1.25000000E-01  0.00000000E+00  0.00000000E+00
                      -3.75000000E-01  0.00000000E+00  0.00000000E+00
              kpt2     0.00000000E+00  0.00000000E+00  0.00000000E+00
              kpt3     0.00000000E+00  0.00000000E+00  0.00000000E+00
           kptopt1          1
           kptopt2          0
           kptopt3          1
         kptrlatt1       4   -4    4     -4    4    4     -4   -4    4
         kptrlatt3       1    0    0      0    1    0      0    0    1
          kptrlen1     4.08680000E+01
          kptrlen2     3.00000000E+01
          kptrlen3     7.22450998E+00
          kssform1          1
          kssform2          3
          kssform3          1
P           mkmem1         10
P           mkmem2          1
P           mkmem3          1
            natom           2
            nband1          5
            nband2        260
            nband3         25
         nbandkss1          0
         nbandkss2        250
         nbandkss3          0
           nbdbuf1          0
           nbdbuf2         10
           nbdbuf3          0
           ndtset           3
            ngfft1         20      20      20
            ngfft2         20      20      20
            ngfft3         15      15      15
             nkpt1         10
             nkpt2          1
             nkpt3          1
           npweps1          0
           npweps2          0
           npweps3        169
           npwwfn1          0
           npwwfn2          0
           npwwfn3         89
           nsheps1          0
           nsheps2          0
           nsheps3         12
            nstep          20
             nsym          48
           ntypat           1
              occ1     2.000000  2.000000  2.000000  2.000000  0.000000
              occ3     2.000000  2.000000  2.000000  2.000000  0.000000  0.000000
                       0.000000  0.000000  0.000000  0.000000  0.000000  0.000000
                       0.000000  0.000000  0.000000  0.000000  0.000000  0.000000
                       0.000000  0.000000  0.000000  0.000000  0.000000  0.000000
                       0.000000
        optdriver1          0
        optdriver2          0
        optdriver3          3
        optforces           1
           ppmfrq1     0.00000000E+00 Hartree
           ppmfrq2     0.00000000E+00 Hartree
           ppmfrq3     6.13713734E-01 Hartree
            rprim      0.0000000000E+00  5.0000000000E-01  5.0000000000E-01
                       5.0000000000E-01  0.0000000000E+00  5.0000000000E-01
                       5.0000000000E-01  5.0000000000E-01  0.0000000000E+00
           shiftk1     5.00000000E-01  5.00000000E-01  5.00000000E-01
           shiftk2     5.00000000E-01  5.00000000E-01  5.00000000E-01
           shiftk3     0.00000000E+00  0.00000000E+00  0.00000000E+00
          spgroup         227
           strten1     3.0245719699E-05  3.0245719699E-05  3.0245719699E-05
                       0.0000000000E+00  0.0000000000E+00  0.0000000000E+00
           strten3     0.0000000000E+00  0.0000000000E+00  0.0000000000E+00
                       0.0000000000E+00  0.0000000000E+00  0.0000000000E+00
           symrel      1  0  0   0  1  0   0  0  1      -1  0  0   0 -1  0   0  0 -1
                       0 -1  1   0 -1  0   1 -1  0       0  1 -1   0  1  0  -1  1  0
                      -1  0  0  -1  0  1  -1  1  0       1  0  0   1  0 -1   1 -1  0
                       0  1 -1   1  0 -1   0  0 -1       0 -1  1  -1  0  1   0  0  1
                      -1  0  0  -1  1  0  -1  0  1       1  0  0   1 -1  0   1  0 -1
                       0 -1  1   1 -1  0   0 -1  0       0  1 -1  -1  1  0   0  1  0
                       1  0  0   0  0  1   0  1  0      -1  0  0   0  0 -1   0 -1  0
                       0  1 -1   0  0 -1   1  0 -1       0 -1  1   0  0  1  -1  0  1
                      -1  0  1  -1  1  0  -1  0  0       1  0 -1   1 -1  0   1  0  0
                       0 -1  0   1 -1  0   0 -1  1       0  1  0  -1  1  0   0  1 -1
                       1  0 -1   0  0 -1   0  1 -1      -1  0  1   0  0  1   0 -1  1
                       0  1  0   0  0  1   1  0  0       0 -1  0   0  0 -1  -1  0  0
                       1  0 -1   0  1 -1   0  0 -1      -1  0  1   0 -1  1   0  0  1
                       0 -1  0   0 -1  1   1 -1  0       0  1  0   0  1 -1  -1  1  0
                      -1  0  1  -1  0  0  -1  1  0       1  0 -1   1  0  0   1 -1  0
                       0  1  0   1  0  0   0  0  1       0 -1  0  -1  0  0   0  0 -1
                       0  0 -1   0  1 -1   1  0 -1       0  0  1   0 -1  1  -1  0  1
                       1 -1  0   0 -1  1   0 -1  0      -1  1  0   0  1 -1   0  1  0
                       0  0  1   1  0  0   0  1  0       0  0 -1  -1  0  0   0 -1  0
                      -1  1  0  -1  0  0  -1  0  1       1 -1  0   1  0  0   1  0 -1
                       0  0  1   0  1  0   1  0  0       0  0 -1   0 -1  0  -1  0  0
                       1 -1  0   0 -1  0   0 -1  1      -1  1  0   0  1  0   0  1 -1
                       0  0 -1   1  0 -1   0  1 -1       0  0  1  -1  0  1   0 -1  1
                      -1  1  0  -1  0  1  -1  0  0       1 -1  0   1  0 -1   1  0  0
            tnons      0.0000000  0.0000000  0.0000000     0.2500000  0.2500000  0.2500000
                       0.0000000  0.0000000  0.0000000     0.2500000  0.2500000  0.2500000
                       0.0000000  0.0000000  0.0000000     0.2500000  0.2500000  0.2500000
                       0.0000000  0.0000000  0.0000000     0.2500000  0.2500000  0.2500000
                       0.0000000  0.0000000  0.0000000     0.2500000  0.2500000  0.2500000
                       0.0000000  0.0000000  0.0000000     0.2500000  0.2500000  0.2500000
                       0.0000000  0.0000000  0.0000000     0.2500000  0.2500000  0.2500000
                       0.0000000  0.0000000  0.0000000     0.2500000  0.2500000  0.2500000
                       0.0000000  0.0000000  0.0000000     0.2500000  0.2500000  0.2500000
                       0.0000000  0.0000000  0.0000000     0.2500000  0.2500000  0.2500000
                       0.0000000  0.0000000  0.0000000     0.2500000  0.2500000  0.2500000
                       0.0000000  0.0000000  0.0000000     0.2500000  0.2500000  0.2500000
                       0.0000000  0.0000000  0.0000000     0.2500000  0.2500000  0.2500000
                       0.0000000  0.0000000  0.0000000     0.2500000  0.2500000  0.2500000
                       0.0000000  0.0000000  0.0000000     0.2500000  0.2500000  0.2500000
                       0.0000000  0.0000000  0.0000000     0.2500000  0.2500000  0.2500000
                       0.0000000  0.0000000  0.0000000     0.2500000  0.2500000  0.2500000
                       0.0000000  0.0000000  0.0000000     0.2500000  0.2500000  0.2500000
                       0.0000000  0.0000000  0.0000000     0.2500000  0.2500000  0.2500000
                       0.0000000  0.0000000  0.0000000     0.2500000  0.2500000  0.2500000
                       0.0000000  0.0000000  0.0000000     0.2500000  0.2500000  0.2500000
                       0.0000000  0.0000000  0.0000000     0.2500000  0.2500000  0.2500000
                       0.0000000  0.0000000  0.0000000     0.2500000  0.2500000  0.2500000
                       0.0000000  0.0000000  0.0000000     0.2500000  0.2500000  0.2500000
           toldfe1     1.00000000E-06 Hartree
           toldfe2     0.00000000E+00 Hartree
           toldfe3     0.00000000E+00 Hartree
           tolwfr1     0.00000000E+00
           tolwfr2     1.00000000E-18
           tolwfr3     0.00000000E+00
            typat      1  1
              wtk1       0.09375    0.09375    0.09375    0.18750    0.09375    0.09375
                         0.09375    0.18750    0.03125    0.03125
              wtk2       1.00000
              wtk3       1.00000
           xangst      0.0000000000E+00  0.0000000000E+00  0.0000000000E+00
                       1.3516508850E+00  1.3516508850E+00  1.3516508850E+00
            xcart      0.0000000000E+00  0.0000000000E+00  0.0000000000E+00
                       2.5542500000E+00  2.5542500000E+00  2.5542500000E+00
             xred      0.0000000000E+00  0.0000000000E+00  0.0000000000E+00
                       2.5000000000E-01  2.5000000000E-01  2.5000000000E-01
            znucl       14.00000

================================================================================


- Timing analysis has been suppressed with timopt=0



================================================================================

 Suggested references for the acknowledgment of ABINIT usage.

 The users of ABINIT have little formal obligations with respect to the ABINIT group
 (those specified in the GNU General Public License, http://www.gnu.org/copyleft/gpl.txt).
 However, it is common practice in the scientific literature,
 to acknowledge the efforts of people that have made the research possible.
 In this spirit, please find below suggested citations of work written by ABINIT developers,
 corresponding to implementations inside of ABINIT that you have used in the present run.
 Note also that it will be of great value to readers of publications presenting these results,
 to read papers enabling them to understand the theoretical formalism and details
 of the ABINIT implementation.
 For information on why they are suggested, see also http://www.abinit.org/about/?text=acknowledgments.

 [1] ABINIT : First-principles approach of materials and nanosystem properties.
 X. Gonze, B. Amadon, P.-M. Anglade, J.-M. Beuken, F. Bottin, P. Boulanger, F. Bruneval,
 D. Caliste, R. Caracas, M. Cote, T. Deutsch, L. Genovese, Ph. Ghosez, M. Giantomassi
 S. Goedecker, D.R. Hamann, P. Hermet, F. Jollet, G. Jomard, S. Leroux, M. Mancini, S. Mazevet,
 M.J.T. Oliveira, G. Onida, Y. Pouillon, T. Rangel, G.-M. Rignanese, D. Sangalli, R. Shaltaf,
 M. Torrent, M.J. Verstraete, G. Zerah, J.W. Zwanziger
 Computer Phys. Comm. 180, 2582-2615 (2009).
 Comment : the third generic paper describing the ABINIT project.
 Note that a version of this paper, that is not formatted for Computer Phys. Comm. 
 is available at http://www.abinit.org/about/ABINIT_CPC_v10.pdf .
 The licence allows the authors to put it on the Web.

 [2] A brief introduction to the ABINIT software package.
 X. Gonze, G.-M. Rignanese, M. Verstraete, J.-M. Beuken, Y. Pouillon, R. Caracas, F. Jollet,
 M. Torrent, G. Zerah, M. Mikami, Ph. Ghosez, M. Veithen, J.-Y. Raty, V. Olevano, F. Bruneval,
 L. Reining, R. Godby, G. Onida, D.R. Hamann, and D.C. Allan.
 Z. Kristallogr. 220, 558-562 (2005).
 Comment : the second generic paper describing the ABINIT project. Note that this paper
 should be cited especially if you are using the GW part of ABINIT, as several authors
 of this part are not in the list of authors of the first or third paper.
 The .pdf of the latter paper is available at http://www.abinit.org/about/zfk_0505-06_558-562.pdf.
 Note that it should not redistributed (Copyright by Oldenburg Wissenshaftverlag,
 the licence allows the authors to put it on the Web).


 And optionally :

 [3] First-principles computation of material properties : the ABINIT software project. 
 X. Gonze, J.-M. Beuken, R. Caracas, F. Detraux, M. Fuchs, G.-M. Rignanese, L. Sindic,
 M. Verstraete, G. Zerah, F. Jollet, M. Torrent, A. Roy, M. Mikami, Ph. Ghosez, J.-Y. Raty, D.C. Allan.
 Computational Materials Science 25, 478-492 (2002). http://dx.doi.org/10.1016/S0927-0256(02)00325-7
 Comment : the original paper describing the ABINIT project.

 [4] Fast radix 2, 3, 4 and 5 kernels for Fast Fourier Transformations
 on computers with overlapping multiply-add instructions.
 S. Goedecker, SIAM J. on Scientific Computing 18, 1605 (1997).

 [5] Towards a potential-based conjugate gradient algorithm for order-N self-consistent
 total energy calculations.
 X. Gonze, Phys. Rev. B 54, 4383 (1996).
 Comment : The potential-based conjugate-gradient algorithm, used when iscf=5, is not published.
 However, many elements of this algorithm have been explained in the paper above.
-
- Proc.   0 individual time (sec): cpu=          6.9  wall=          6.9

================================================================================

 Calculation completed.
.Delivered    6 WARNINGs and   4 COMMENTs to log file.
+Overall time at end (sec) : cpu=          6.9  wall=          6.9
