
.Version 7.10.4 of ABINIT 
.(MPI version, prepared for a x86_64_linux_gnu4.7 computer) 

.Copyright (C) 1998-2014 ABINIT group . 
 ABINIT comes with ABSOLUTELY NO WARRANTY.
 It is free software, and you are welcome to redistribute it
 under certain conditions (GNU General Public License,
 see ~abinit/COPYING or http://www.gnu.org/copyleft/gpl.txt).

 ABINIT is a project of the Universite Catholique de Louvain,
 Corning Inc. and other collaborators, see ~abinit/doc/developers/contributors.txt .
 Please read ~abinit/doc/users/acknowledgments.html for suggested
 acknowledgments of the ABINIT effort.
 For more information, see http://www.abinit.org .

.Starting date : Wed 11 Mar 2015.
- ( at 10h22 )
  
- input  file    -> tgw1_6.in
- output file    -> tgw1_6.out
- root for input  files -> tgw1_6i
- root for output files -> tgw1_6o


 DATASET   11 : space group Fd -3 m (#227); Bravais cF (face-center cubic)
================================================================================
 Values of the parameters that define the memory need for DATASET 11.
   intxc =         0  ionmov =         0    iscf =         5 xclevel =         1
  lmnmax =         2   lnmax =         2   mband =        25  mffmem =         1
P  mgfft =        10   mkmem =         1 mpssoang=         3     mpw =        51
  mqgrid =      3001   natom =         2    nfft =      1000    nkpt =         1
  nloalg =         4  nspden =         1 nspinor =         1  nsppol =         1
    nsym =        48  n1xccc =      2501  ntypat =         1  occopt =         1
================================================================================
P This job should need less than                       0.860 Mbytes of memory.
  Rough estimation (10% accuracy) of disk space for files :
_ WF disk file :      0.021 Mbytes ; DEN or POT disk file :      0.010 Mbytes.
================================================================================


 DATASET   12 : space group Fd -3 m (#227); Bravais cF (face-center cubic)
================================================================================
 Values of the parameters that define the memory need for DATASET 12.
   intxc =         0  ionmov =         0    iscf =         5 xclevel =         1
  lmnmax =         2   lnmax =         2   mband =       100  mffmem =         1
P  mgfft =        15   mkmem =         1 mpssoang=         3     mpw =       113
  mqgrid =      3001   natom =         2    nfft =      3375    nkpt =         1
  nloalg =         4  nspden =         1 nspinor =         1  nsppol =         1
    nsym =        48  n1xccc =      2501  ntypat =         1  occopt =         1
================================================================================
P This job should need less than                       1.781 Mbytes of memory.
  Rough estimation (10% accuracy) of disk space for files :
_ WF disk file :      0.174 Mbytes ; DEN or POT disk file :      0.028 Mbytes.
================================================================================


 DATASET   21 : space group Fd -3 m (#227); Bravais cF (face-center cubic)
================================================================================
 Values of the parameters that define the memory need for DATASET 21.
   intxc =         0  ionmov =         0    iscf =         5 xclevel =         1
  lmnmax =         2   lnmax =         2   mband =        25  mffmem =         1
P  mgfft =        15   mkmem =         1 mpssoang=         3     mpw =        89
  mqgrid =      3001   natom =         2    nfft =      3375    nkpt =         1
  nloalg =         4  nspden =         1 nspinor =         1  nsppol =         1
    nsym =        48  n1xccc =      2501  ntypat =         1  occopt =         1
================================================================================
P This job should need less than                       1.396 Mbytes of memory.
  Rough estimation (10% accuracy) of disk space for files :
_ WF disk file :      0.036 Mbytes ; DEN or POT disk file :      0.028 Mbytes.
================================================================================


 DATASET   22 : space group Fd -3 m (#227); Bravais cF (face-center cubic)
================================================================================
 Values of the parameters that define the memory need for DATASET 22.
   intxc =         0  ionmov =         0    iscf =         5 xclevel =         1
  lmnmax =         2   lnmax =         2   mband =       100  mffmem =         1
P  mgfft =        15   mkmem =         1 mpssoang=         3     mpw =       113
  mqgrid =      3001   natom =         2    nfft =      3375    nkpt =         1
  nloalg =         4  nspden =         1 nspinor =         1  nsppol =         1
    nsym =        48  n1xccc =      2501  ntypat =         1  occopt =         1
================================================================================
P This job should need less than                       1.781 Mbytes of memory.
  Rough estimation (10% accuracy) of disk space for files :
_ WF disk file :      0.174 Mbytes ; DEN or POT disk file :      0.028 Mbytes.
================================================================================


 DATASET   31 : space group Fd -3 m (#227); Bravais cF (face-center cubic)
================================================================================
 Values of the parameters that define the memory need for DATASET 31.
   intxc =         0  ionmov =         0    iscf =         5 xclevel =         1
  lmnmax =         2   lnmax =         2   mband =        25  mffmem =         1
P  mgfft =        15   mkmem =         1 mpssoang=         3     mpw =       113
  mqgrid =      3001   natom =         2    nfft =      3375    nkpt =         1
  nloalg =         4  nspden =         1 nspinor =         1  nsppol =         1
    nsym =        48  n1xccc =      2501  ntypat =         1  occopt =         1
================================================================================
P This job should need less than                       1.413 Mbytes of memory.
  Rough estimation (10% accuracy) of disk space for files :
_ WF disk file :      0.045 Mbytes ; DEN or POT disk file :      0.028 Mbytes.
================================================================================


 DATASET   32 : space group Fd -3 m (#227); Bravais cF (face-center cubic)
================================================================================
 Values of the parameters that define the memory need for DATASET 32.
   intxc =         0  ionmov =         0    iscf =         5 xclevel =         1
  lmnmax =         2   lnmax =         2   mband =       100  mffmem =         1
P  mgfft =        15   mkmem =         1 mpssoang=         3     mpw =       113
  mqgrid =      3001   natom =         2    nfft =      3375    nkpt =         1
  nloalg =         4  nspden =         1 nspinor =         1  nsppol =         1
    nsym =        48  n1xccc =      2501  ntypat =         1  occopt =         1
================================================================================
P This job should need less than                       1.781 Mbytes of memory.
  Rough estimation (10% accuracy) of disk space for files :
_ WF disk file :      0.174 Mbytes ; DEN or POT disk file :      0.028 Mbytes.
================================================================================


 DATASET   41 : space group Fd -3 m (#227); Bravais cF (face-center cubic)
================================================================================
 Values of the parameters that define the memory need for DATASET 41.
   intxc =         0  ionmov =         0    iscf =         5 xclevel =         1
  lmnmax =         2   lnmax =         2   mband =        25  mffmem =         1
P  mgfft =        16   mkmem =         1 mpssoang=         3     mpw =       137
  mqgrid =      3001   natom =         2    nfft =      4096    nkpt =         1
  nloalg =         4  nspden =         1 nspinor =         1  nsppol =         1
    nsym =        48  n1xccc =      2501  ntypat =         1  occopt =         1
================================================================================
P This job should need less than                       1.611 Mbytes of memory.
  Rough estimation (10% accuracy) of disk space for files :
_ WF disk file :      0.054 Mbytes ; DEN or POT disk file :      0.033 Mbytes.
================================================================================


 DATASET   42 : space group Fd -3 m (#227); Bravais cF (face-center cubic)
================================================================================
 Values of the parameters that define the memory need for DATASET 42.
   intxc =         0  ionmov =         0    iscf =         5 xclevel =         1
  lmnmax =         2   lnmax =         2   mband =       100  mffmem =         1
P  mgfft =        15   mkmem =         1 mpssoang=         3     mpw =       113
  mqgrid =      3001   natom =         2    nfft =      3375    nkpt =         1
  nloalg =         4  nspden =         1 nspinor =         1  nsppol =         1
    nsym =        48  n1xccc =      2501  ntypat =         1  occopt =         1
================================================================================
P This job should need less than                       1.781 Mbytes of memory.
  Rough estimation (10% accuracy) of disk space for files :
_ WF disk file :      0.174 Mbytes ; DEN or POT disk file :      0.028 Mbytes.
================================================================================


 DATASET   51 : space group Fd -3 m (#227); Bravais cF (face-center cubic)
================================================================================
 Values of the parameters that define the memory need for DATASET 51.
   intxc =         0  ionmov =         0    iscf =         5 xclevel =         1
  lmnmax =         2   lnmax =         2   mband =        25  mffmem =         1
P  mgfft =        18   mkmem =         1 mpssoang=         3     mpw =       229
  mqgrid =      3001   natom =         2    nfft =      5832    nkpt =         1
  nloalg =         4  nspden =         1 nspinor =         1  nsppol =         1
    nsym =        48  n1xccc =      2501  ntypat =         1  occopt =         1
================================================================================
P This job should need less than                       2.078 Mbytes of memory.
  Rough estimation (10% accuracy) of disk space for files :
_ WF disk file :      0.089 Mbytes ; DEN or POT disk file :      0.046 Mbytes.
================================================================================


 DATASET   52 : space group Fd -3 m (#227); Bravais cF (face-center cubic)
================================================================================
 Values of the parameters that define the memory need for DATASET 52.
   intxc =         0  ionmov =         0    iscf =         5 xclevel =         1
  lmnmax =         2   lnmax =         2   mband =       100  mffmem =         1
P  mgfft =        15   mkmem =         1 mpssoang=         3     mpw =       113
  mqgrid =      3001   natom =         2    nfft =      3375    nkpt =         1
  nloalg =         4  nspden =         1 nspinor =         1  nsppol =         1
    nsym =        48  n1xccc =      2501  ntypat =         1  occopt =         1
================================================================================
P This job should need less than                       1.781 Mbytes of memory.
  Rough estimation (10% accuracy) of disk space for files :
_ WF disk file :      0.174 Mbytes ; DEN or POT disk file :      0.028 Mbytes.
================================================================================

--------------------------------------------------------------------------------
------------- Echo of variables that govern the present computation ------------
--------------------------------------------------------------------------------
-
- outvars: echo of selected default values                                      
-   accesswff0 =  0 , fftalg0 =112 , wfoptalg0 =  0
-
- outvars: echo of global parameters not present in the input file              
-  max_nthreads =    0
-
 -outvars: echo values of preprocessed input variables --------
            acell      1.0217000000E+01  1.0217000000E+01  1.0217000000E+01 Bohr
              amu      2.80855000E+01
             awtr11         0
             awtr12         1
             awtr21         0
             awtr22         1
             awtr31         0
             awtr32         1
             awtr41         0
             awtr42         1
             awtr51         0
             awtr52         1
             bdgw           4       5
             ecut11    2.26915520E+00 Hartree
             ecut12    4.53831040E+00 Hartree
             ecut21    3.78192533E+00 Hartree
             ecut22    4.53831040E+00 Hartree
             ecut31    4.53831040E+00 Hartree
             ecut32    4.53831040E+00 Hartree
             ecut41    5.10559920E+00 Hartree
             ecut42    4.53831040E+00 Hartree
             ecut51    6.80746559E+00 Hartree
             ecut52    4.53831040E+00 Hartree
          ecuteps      5.10559920E+00 Hartree
         ecutsigx      5.10559920E+00 Hartree
          ecutwfn11    2.26915520E+00 Hartree
          ecutwfn12    4.53831040E+00 Hartree
          ecutwfn21    3.78192533E+00 Hartree
          ecutwfn22    4.53831040E+00 Hartree
          ecutwfn31    4.53831040E+00 Hartree
          ecutwfn32    4.53831040E+00 Hartree
          ecutwfn41    5.10559920E+00 Hartree
          ecutwfn42    4.53831040E+00 Hartree
          ecutwfn51    6.80746559E+00 Hartree
          ecutwfn52    4.53831040E+00 Hartree
-          fftalg         112
           getkss           1
           getscr11         0
           getscr12        -1
           getscr21         0
           getscr22        -1
           getscr31         0
           getscr32        -1
           getscr41         0
           getscr42        -1
           getscr51         0
           getscr52        -1
         icutcoul11         6
         icutcoul12         3
         icutcoul21         6
         icutcoul22         3
         icutcoul31         6
         icutcoul32         3
         icutcoul41         6
         icutcoul42         3
         icutcoul51         6
         icutcoul52         3
             iscf           5
           istwfk        1
           jdtset       11   12   21   22   31   32   41   42   51   52
         kptrlatt        1    0    0      0    1    0      0    0    1
          kptrlen      7.22450998E+00
P           mkmem           1
            natom           2
            nband11        25
            nband12       100
            nband21        25
            nband22       100
            nband31        25
            nband32       100
            nband41        25
            nband42       100
            nband51        25
            nband52       100
           ndtset          10
            ngfft11        10      10      10
            ngfft12        15      15      15
            ngfft21        15      15      15
            ngfft22        15      15      15
            ngfft31        15      15      15
            ngfft32        15      15      15
            ngfft41        16      16      16
            ngfft42        15      15      15
            ngfft51        18      18      18
            ngfft52        15      15      15
             nkpt           1
           nkptgw           1
           npweps         169
          npwsigx         169
           npwwfn11        59
           npwwfn12       137
           npwwfn21       113
           npwwfn22       137
           npwwfn31       137
           npwwfn32       137
           npwwfn41       169
           npwwfn42       137
           npwwfn51       259
           npwwfn52       137
           nsheps          12
          nshsigx          12
             nsym          48
           ntypat           1
              occ11    2.000000  2.000000  2.000000  2.000000  0.000000  0.000000
                       0.000000  0.000000  0.000000  0.000000  0.000000  0.000000
                       0.000000  0.000000  0.000000  0.000000  0.000000  0.000000
                       0.000000  0.000000  0.000000  0.000000  0.000000  0.000000
                       0.000000
              occ12    2.000000  2.000000  2.000000  2.000000  0.000000  0.000000
                       0.000000  0.000000  0.000000  0.000000  0.000000  0.000000
                       0.000000  0.000000  0.000000  0.000000  0.000000  0.000000
                       0.000000  0.000000  0.000000  0.000000  0.000000  0.000000
                       0.000000  0.000000  0.000000  0.000000  0.000000  0.000000
                       0.000000  0.000000  0.000000  0.000000  0.000000  0.000000
                       0.000000  0.000000  0.000000  0.000000  0.000000  0.000000
                       0.000000  0.000000  0.000000  0.000000  0.000000  0.000000
                       0.000000  0.000000  0.000000  0.000000  0.000000  0.000000
                       0.000000  0.000000  0.000000  0.000000  0.000000  0.000000
                       0.000000  0.000000  0.000000  0.000000  0.000000  0.000000
                       0.000000  0.000000  0.000000  0.000000  0.000000  0.000000
                       0.000000  0.000000  0.000000  0.000000  0.000000  0.000000
                       0.000000  0.000000  0.000000  0.000000  0.000000  0.000000
                       0.000000  0.000000  0.000000  0.000000  0.000000  0.000000
                       0.000000  0.000000  0.000000  0.000000  0.000000  0.000000
                       0.000000  0.000000  0.000000  0.000000
              occ21    2.000000  2.000000  2.000000  2.000000  0.000000  0.000000
                       0.000000  0.000000  0.000000  0.000000  0.000000  0.000000
                       0.000000  0.000000  0.000000  0.000000  0.000000  0.000000
                       0.000000  0.000000  0.000000  0.000000  0.000000  0.000000
                       0.000000
              occ22    2.000000  2.000000  2.000000  2.000000  0.000000  0.000000
                       0.000000  0.000000  0.000000  0.000000  0.000000  0.000000
                       0.000000  0.000000  0.000000  0.000000  0.000000  0.000000
                       0.000000  0.000000  0.000000  0.000000  0.000000  0.000000
                       0.000000  0.000000  0.000000  0.000000  0.000000  0.000000
                       0.000000  0.000000  0.000000  0.000000  0.000000  0.000000
                       0.000000  0.000000  0.000000  0.000000  0.000000  0.000000
                       0.000000  0.000000  0.000000  0.000000  0.000000  0.000000
                       0.000000  0.000000  0.000000  0.000000  0.000000  0.000000
                       0.000000  0.000000  0.000000  0.000000  0.000000  0.000000
                       0.000000  0.000000  0.000000  0.000000  0.000000  0.000000
                       0.000000  0.000000  0.000000  0.000000  0.000000  0.000000
                       0.000000  0.000000  0.000000  0.000000  0.000000  0.000000
                       0.000000  0.000000  0.000000  0.000000  0.000000  0.000000
                       0.000000  0.000000  0.000000  0.000000  0.000000  0.000000
                       0.000000  0.000000  0.000000  0.000000  0.000000  0.000000
                       0.000000  0.000000  0.000000  0.000000
              occ31    2.000000  2.000000  2.000000  2.000000  0.000000  0.000000
                       0.000000  0.000000  0.000000  0.000000  0.000000  0.000000
                       0.000000  0.000000  0.000000  0.000000  0.000000  0.000000
                       0.000000  0.000000  0.000000  0.000000  0.000000  0.000000
                       0.000000
              occ32    2.000000  2.000000  2.000000  2.000000  0.000000  0.000000
                       0.000000  0.000000  0.000000  0.000000  0.000000  0.000000
                       0.000000  0.000000  0.000000  0.000000  0.000000  0.000000
                       0.000000  0.000000  0.000000  0.000000  0.000000  0.000000
                       0.000000  0.000000  0.000000  0.000000  0.000000  0.000000
                       0.000000  0.000000  0.000000  0.000000  0.000000  0.000000
                       0.000000  0.000000  0.000000  0.000000  0.000000  0.000000
                       0.000000  0.000000  0.000000  0.000000  0.000000  0.000000
                       0.000000  0.000000  0.000000  0.000000  0.000000  0.000000
                       0.000000  0.000000  0.000000  0.000000  0.000000  0.000000
                       0.000000  0.000000  0.000000  0.000000  0.000000  0.000000
                       0.000000  0.000000  0.000000  0.000000  0.000000  0.000000
                       0.000000  0.000000  0.000000  0.000000  0.000000  0.000000
                       0.000000  0.000000  0.000000  0.000000  0.000000  0.000000
                       0.000000  0.000000  0.000000  0.000000  0.000000  0.000000
                       0.000000  0.000000  0.000000  0.000000  0.000000  0.000000
                       0.000000  0.000000  0.000000  0.000000
              occ41    2.000000  2.000000  2.000000  2.000000  0.000000  0.000000
                       0.000000  0.000000  0.000000  0.000000  0.000000  0.000000
                       0.000000  0.000000  0.000000  0.000000  0.000000  0.000000
                       0.000000  0.000000  0.000000  0.000000  0.000000  0.000000
                       0.000000
              occ42    2.000000  2.000000  2.000000  2.000000  0.000000  0.000000
                       0.000000  0.000000  0.000000  0.000000  0.000000  0.000000
                       0.000000  0.000000  0.000000  0.000000  0.000000  0.000000
                       0.000000  0.000000  0.000000  0.000000  0.000000  0.000000
                       0.000000  0.000000  0.000000  0.000000  0.000000  0.000000
                       0.000000  0.000000  0.000000  0.000000  0.000000  0.000000
                       0.000000  0.000000  0.000000  0.000000  0.000000  0.000000
                       0.000000  0.000000  0.000000  0.000000  0.000000  0.000000
                       0.000000  0.000000  0.000000  0.000000  0.000000  0.000000
                       0.000000  0.000000  0.000000  0.000000  0.000000  0.000000
                       0.000000  0.000000  0.000000  0.000000  0.000000  0.000000
                       0.000000  0.000000  0.000000  0.000000  0.000000  0.000000
                       0.000000  0.000000  0.000000  0.000000  0.000000  0.000000
                       0.000000  0.000000  0.000000  0.000000  0.000000  0.000000
                       0.000000  0.000000  0.000000  0.000000  0.000000  0.000000
                       0.000000  0.000000  0.000000  0.000000  0.000000  0.000000
                       0.000000  0.000000  0.000000  0.000000
              occ51    2.000000  2.000000  2.000000  2.000000  0.000000  0.000000
                       0.000000  0.000000  0.000000  0.000000  0.000000  0.000000
                       0.000000  0.000000  0.000000  0.000000  0.000000  0.000000
                       0.000000  0.000000  0.000000  0.000000  0.000000  0.000000
                       0.000000
              occ52    2.000000  2.000000  2.000000  2.000000  0.000000  0.000000
                       0.000000  0.000000  0.000000  0.000000  0.000000  0.000000
                       0.000000  0.000000  0.000000  0.000000  0.000000  0.000000
                       0.000000  0.000000  0.000000  0.000000  0.000000  0.000000
                       0.000000  0.000000  0.000000  0.000000  0.000000  0.000000
                       0.000000  0.000000  0.000000  0.000000  0.000000  0.000000
                       0.000000  0.000000  0.000000  0.000000  0.000000  0.000000
                       0.000000  0.000000  0.000000  0.000000  0.000000  0.000000
                       0.000000  0.000000  0.000000  0.000000  0.000000  0.000000
                       0.000000  0.000000  0.000000  0.000000  0.000000  0.000000
                       0.000000  0.000000  0.000000  0.000000  0.000000  0.000000
                       0.000000  0.000000  0.000000  0.000000  0.000000  0.000000
                       0.000000  0.000000  0.000000  0.000000  0.000000  0.000000
                       0.000000  0.000000  0.000000  0.000000  0.000000  0.000000
                       0.000000  0.000000  0.000000  0.000000  0.000000  0.000000
                       0.000000  0.000000  0.000000  0.000000  0.000000  0.000000
                       0.000000  0.000000  0.000000  0.000000
        optdriver11         3
        optdriver12         4
        optdriver21         3
        optdriver22         4
        optdriver31         3
        optdriver32         4
        optdriver41         3
        optdriver42         4
        optdriver51         3
        optdriver52         4
           ppmfrq      6.13713734E-01 Hartree
            rprim      0.0000000000E+00  5.0000000000E-01  5.0000000000E-01
                       5.0000000000E-01  0.0000000000E+00  5.0000000000E-01
                       5.0000000000E-01  5.0000000000E-01  0.0000000000E+00
          spgroup         227
           symrel      1  0  0   0  1  0   0  0  1      -1  0  0   0 -1  0   0  0 -1
                       0 -1  1   0 -1  0   1 -1  0       0  1 -1   0  1  0  -1  1  0
                      -1  0  0  -1  0  1  -1  1  0       1  0  0   1  0 -1   1 -1  0
                       0  1 -1   1  0 -1   0  0 -1       0 -1  1  -1  0  1   0  0  1
                      -1  0  0  -1  1  0  -1  0  1       1  0  0   1 -1  0   1  0 -1
                       0 -1  1   1 -1  0   0 -1  0       0  1 -1  -1  1  0   0  1  0
                       1  0  0   0  0  1   0  1  0      -1  0  0   0  0 -1   0 -1  0
                       0  1 -1   0  0 -1   1  0 -1       0 -1  1   0  0  1  -1  0  1
                      -1  0  1  -1  1  0  -1  0  0       1  0 -1   1 -1  0   1  0  0
                       0 -1  0   1 -1  0   0 -1  1       0  1  0  -1  1  0   0  1 -1
                       1  0 -1   0  0 -1   0  1 -1      -1  0  1   0  0  1   0 -1  1
                       0  1  0   0  0  1   1  0  0       0 -1  0   0  0 -1  -1  0  0
                       1  0 -1   0  1 -1   0  0 -1      -1  0  1   0 -1  1   0  0  1
                       0 -1  0   0 -1  1   1 -1  0       0  1  0   0  1 -1  -1  1  0
                      -1  0  1  -1  0  0  -1  1  0       1  0 -1   1  0  0   1 -1  0
                       0  1  0   1  0  0   0  0  1       0 -1  0  -1  0  0   0  0 -1
                       0  0 -1   0  1 -1   1  0 -1       0  0  1   0 -1  1  -1  0  1
                       1 -1  0   0 -1  1   0 -1  0      -1  1  0   0  1 -1   0  1  0
                       0  0  1   1  0  0   0  1  0       0  0 -1  -1  0  0   0 -1  0
                      -1  1  0  -1  0  0  -1  0  1       1 -1  0   1  0  0   1  0 -1
                       0  0  1   0  1  0   1  0  0       0  0 -1   0 -1  0  -1  0  0
                       1 -1  0   0 -1  0   0 -1  1      -1  1  0   0  1  0   0  1 -1
                       0  0 -1   1  0 -1   0  1 -1       0  0  1  -1  0  1   0 -1  1
                      -1  1  0  -1  0  1  -1  0  0       1 -1  0   1  0 -1   1  0  0
            tnons      0.0000000  0.0000000  0.0000000     0.2500000  0.2500000  0.2500000
                       0.0000000  0.0000000  0.0000000     0.2500000  0.2500000  0.2500000
                       0.0000000  0.0000000  0.0000000     0.2500000  0.2500000  0.2500000
                       0.0000000  0.0000000  0.0000000     0.2500000  0.2500000  0.2500000
                       0.0000000  0.0000000  0.0000000     0.2500000  0.2500000  0.2500000
                       0.0000000  0.0000000  0.0000000     0.2500000  0.2500000  0.2500000
                       0.0000000  0.0000000  0.0000000     0.2500000  0.2500000  0.2500000
                       0.0000000  0.0000000  0.0000000     0.2500000  0.2500000  0.2500000
                       0.0000000  0.0000000  0.0000000     0.2500000  0.2500000  0.2500000
                       0.0000000  0.0000000  0.0000000     0.2500000  0.2500000  0.2500000
                       0.0000000  0.0000000  0.0000000     0.2500000  0.2500000  0.2500000
                       0.0000000  0.0000000  0.0000000     0.2500000  0.2500000  0.2500000
                       0.0000000  0.0000000  0.0000000     0.2500000  0.2500000  0.2500000
                       0.0000000  0.0000000  0.0000000     0.2500000  0.2500000  0.2500000
                       0.0000000  0.0000000  0.0000000     0.2500000  0.2500000  0.2500000
                       0.0000000  0.0000000  0.0000000     0.2500000  0.2500000  0.2500000
                       0.0000000  0.0000000  0.0000000     0.2500000  0.2500000  0.2500000
                       0.0000000  0.0000000  0.0000000     0.2500000  0.2500000  0.2500000
                       0.0000000  0.0000000  0.0000000     0.2500000  0.2500000  0.2500000
                       0.0000000  0.0000000  0.0000000     0.2500000  0.2500000  0.2500000
                       0.0000000  0.0000000  0.0000000     0.2500000  0.2500000  0.2500000
                       0.0000000  0.0000000  0.0000000     0.2500000  0.2500000  0.2500000
                       0.0000000  0.0000000  0.0000000     0.2500000  0.2500000  0.2500000
                       0.0000000  0.0000000  0.0000000     0.2500000  0.2500000  0.2500000
            typat      1  1
           xangst      0.0000000000E+00  0.0000000000E+00  0.0000000000E+00
                       1.3516508850E+00  1.3516508850E+00  1.3516508850E+00
            xcart      0.0000000000E+00  0.0000000000E+00  0.0000000000E+00
                       2.5542500000E+00  2.5542500000E+00  2.5542500000E+00
             xred      0.0000000000E+00  0.0000000000E+00  0.0000000000E+00
                       2.5000000000E-01  2.5000000000E-01  2.5000000000E-01
            znucl       14.00000

================================================================================

 chkinp: Checking input parameters for consistency, jdtset=  11.

 chkinp: Checking input parameters for consistency, jdtset=  12.

 chkinp: Checking input parameters for consistency, jdtset=  21.

 chkinp: Checking input parameters for consistency, jdtset=  22.

 chkinp: Checking input parameters for consistency, jdtset=  31.

 chkinp: Checking input parameters for consistency, jdtset=  32.

 chkinp: Checking input parameters for consistency, jdtset=  41.

 chkinp: Checking input parameters for consistency, jdtset=  42.

 chkinp: Checking input parameters for consistency, jdtset=  51.

 chkinp: Checking input parameters for consistency, jdtset=  52.

================================================================================
== DATASET 11 ==================================================================
-   nproc =    1

 mkfilename : getkss/=0, take file _KSS from output of DATASET   1.

 Exchange-correlation functional for the present dataset will be:
  LDA: new Teter (4/93) with spin-polarized option - ixc=1
 Citation for XC functional:
  S. Goedecker, M. Teter, J. Huetter, PRB 54, 1703 (1996)

 SCREENING: Calculation of the susceptibility and dielectric matrices 

 Based on a program developped by R.W. Godby, V. Olevano, G. Onida, and L. Reining.
 Incorporated in ABINIT by V. Olevano, G.-M. Rignanese, and M. Torrent.
.Using double precision arithmetic ; gwpc =  8

 Real(R)+Recip(G) space primitive vectors, cartesian coordinates (Bohr,Bohr^-1):
 R(1)=  0.0000000  5.1085000  5.1085000  G(1)= -0.0978761  0.0978761  0.0978761
 R(2)=  5.1085000  0.0000000  5.1085000  G(2)=  0.0978761 -0.0978761  0.0978761
 R(3)=  5.1085000  5.1085000  0.0000000  G(3)=  0.0978761  0.0978761 -0.0978761
 Unit cell volume ucvol=  2.6663072E+02 bohr^3
 Angles (23,13,12)=  6.00000000E+01  6.00000000E+01  6.00000000E+01 degrees

--- Pseudopotential description ------------------------------------------------
- pspini: atom type   1  psp file is /home/gonze/ABINIT/ABINITv7.10.4/trunk/7.10.4-private/tests/Psps_for_tests/14si.pspnc
- pspatm: opening atomic psp file    /home/gonze/ABINIT/ABINITv7.10.4/trunk/7.10.4-private/tests/Psps_for_tests/14si.pspnc
-  Troullier-Martins psp for element  Si        Thu Oct 27 17:31:21 EDT 1994
- 14.00000   4.00000    940714                znucl, zion, pspdat
    1    1    2    2      2001   0.00000      pspcod,pspxc,lmax,lloc,mmax,r2well
    0   5.907  14.692    1   2.0872718        l,e99.0,e99.9,nproj,rcpsp
   0.00000000   0.00000000   0.00000000   0.00000000     rms, ekb1, ekb2, epsatm
    1   2.617   4.181    1   2.0872718        l,e99.0,e99.9,nproj,rcpsp
   0.00000000   0.00000000   0.00000000   0.00000000     rms, ekb1, ekb2, epsatm
    2   0.000   0.000    0   2.0872718        l,e99.0,e99.9,nproj,rcpsp
   0.00000000   0.00000000   0.00000000   0.00000000     rms, ekb1, ekb2, epsatm
    1.80626423934776    0.22824404341771    1.17378968127746   rchrg,fchrg,qchrg
 pspatm: epsatm=    1.43386982
         --- l  ekb(1:nproj) -->
             0    3.287949
             1    1.849886
 pspatm: atomic psp has been read  and splines computed

   2.29419171E+01                                ecore*ucvol(ha*bohr**3)
--------------------------------------------------------------------------------

 ==== K-mesh for the wavefunctions ====
 Number of points in the irreducible wedge :     1
 Reduced coordinates and weights : 

     1)     0.00000000E+00  0.00000000E+00  0.00000000E+00       1.00000

 Together with 48 symmetry operations and time-reversal symmetry 
 yields     1 points in the full Brillouin Zone.


 ==== Q-mesh for the screening function ====
 Number of points in the irreducible wedge :     1
 Reduced coordinates and weights : 

     1)     0.00000000E+00  0.00000000E+00  0.00000000E+00       1.00000

 Together with 48 symmetry operations and time-reversal symmetry 
 yields     1 points in the full Brillouin Zone.


 setmesh: FFT mesh size selected  =  20x 20x 20
          total number of points  =     8000


 k       eigenvalues [eV]
  1         -6.17   5.92   5.92   5.92   8.45   8.45   8.45   9.17  13.59  13.82
            13.82  17.11  17.11  17.11  20.99  29.29  29.29  29.29  30.44  30.44
            31.39  31.39  31.39  35.51  35.51
 Number of electrons calculated from density =    7.9400; Expected =    8.0000
 average of density, n =  0.029779
 r_s =    2.0014
 omega_plasma =   16.6461 [eV]


 calculating chi0 at frequencies [eV] :
  1    0.000000E+00    0.000000E+00
  2    0.000000E+00    1.670000E+01


--------------------------------------------------------------------------------
  q-point number  1        q = ( 0.000000, 0.000000, 0.000000) [r.l.u.]
--------------------------------------------------------------------------------
  chi0(G,G') at the    1 th omega   0.0000   0.0000 [eV]
       1       2       3       4       5       6       7       8       9
    1  -0.000   0.000  -0.000  -0.001   0.001   0.001  -0.001  -0.000   0.000
        0.000   0.000   0.000  -0.001  -0.001   0.001   0.001  -0.000  -0.000

    2   0.000 -21.759  -0.000  -0.662  -0.000  -0.774  -0.000  -0.806   0.000
       -0.000   0.000 -15.792  -0.000  -0.233  -0.000  -0.345   0.000  -0.378

  chi0(G,G') at the    2 th omega   0.0000  16.7000 [eV]
       1       2       3       4       5       6       7       8       9
    1  -0.000   0.000  -0.000  -0.000   0.000   0.000  -0.000  -0.000   0.000
       -0.000   0.000   0.000  -0.000  -0.000   0.000   0.000  -0.000  -0.000

    2   0.000  -5.234  -0.000  -0.019   0.000  -0.105  -0.000  -0.129   0.000
       -0.000  -0.000  -1.792  -0.000   0.119  -0.000   0.033   0.000   0.009

 For q-point:  0.000010 0.000020 0.000030
  dielectric constant =  99.4325
  dielectric constant without local fields = 147.6077

  Average fulfillment of the sum rule on Im[epsilon] for q-point    1 :     40.58  [%]
  Heads and wings of the symmetrical epsilon^-1(G,G') 

   Upper and lower wings at the    1 th omega   0.0000   0.0000 [eV]
       1       2       3       4       5       6       7       8       9
      0.010   0.002  -0.002  -0.006   0.006   0.006  -0.006  -0.002   0.002
      0.000   0.002   0.002  -0.006  -0.006   0.006   0.006  -0.002  -0.002
       1       2       3       4       5       6       7       8       9
      0.010   0.002  -0.002  -0.006   0.006   0.006  -0.006  -0.002   0.002
      0.000  -0.002  -0.002   0.006   0.006  -0.006  -0.006   0.002   0.002


   Upper and lower wings at the    2 th omega   0.0000  16.7000 [eV]
       1       2       3       4       5       6       7       8       9
      0.200   0.004  -0.004  -0.013   0.013   0.013  -0.013  -0.005   0.005
     -0.000   0.004   0.004  -0.013  -0.013   0.013   0.013  -0.005  -0.005
       1       2       3       4       5       6       7       8       9
      0.200   0.004  -0.004  -0.013   0.013   0.013  -0.013  -0.005   0.005
     -0.000  -0.004  -0.004   0.013   0.013  -0.013  -0.013   0.005   0.005



================================================================================
== DATASET 12 ==================================================================
-   nproc =    1

 mkfilename : getscr/=0, take file _SCR from output of DATASET  11.

 mkfilename : getkss/=0, take file _KSS from output of DATASET   1.

 Exchange-correlation functional for the present dataset will be:
  LDA: new Teter (4/93) with spin-polarized option - ixc=1
 Citation for XC functional:
  S. Goedecker, M. Teter, J. Huetter, PRB 54, 1703 (1996)

 SIGMA: Calculation of the GW corrections 

 Based on a program developped by R.W. Godby, V. Olevano, G. Onida, and L. Reining.
 Incorporated in ABINIT by V. Olevano, G.-M. Rignanese, and M. Torrent.
.Using double precision arithmetic ; gwpc =  8

 Real(R)+Recip(G) space primitive vectors, cartesian coordinates (Bohr,Bohr^-1):
 R(1)=  0.0000000  5.1085000  5.1085000  G(1)= -0.0978761  0.0978761  0.0978761
 R(2)=  5.1085000  0.0000000  5.1085000  G(2)=  0.0978761 -0.0978761  0.0978761
 R(3)=  5.1085000  5.1085000  0.0000000  G(3)=  0.0978761  0.0978761 -0.0978761
 Unit cell volume ucvol=  2.6663072E+02 bohr^3
 Angles (23,13,12)=  6.00000000E+01  6.00000000E+01  6.00000000E+01 degrees

--- Pseudopotential description ------------------------------------------------
- pspini: atom type   1  psp file is /home/gonze/ABINIT/ABINITv7.10.4/trunk/7.10.4-private/tests/Psps_for_tests/14si.pspnc
- pspatm: opening atomic psp file    /home/gonze/ABINIT/ABINITv7.10.4/trunk/7.10.4-private/tests/Psps_for_tests/14si.pspnc
-  Troullier-Martins psp for element  Si        Thu Oct 27 17:31:21 EDT 1994
- 14.00000   4.00000    940714                znucl, zion, pspdat
    1    1    2    2      2001   0.00000      pspcod,pspxc,lmax,lloc,mmax,r2well
    0   5.907  14.692    1   2.0872718        l,e99.0,e99.9,nproj,rcpsp
   0.00000000   0.00000000   0.00000000   0.00000000     rms, ekb1, ekb2, epsatm
    1   2.617   4.181    1   2.0872718        l,e99.0,e99.9,nproj,rcpsp
   0.00000000   0.00000000   0.00000000   0.00000000     rms, ekb1, ekb2, epsatm
    2   0.000   0.000    0   2.0872718        l,e99.0,e99.9,nproj,rcpsp
   0.00000000   0.00000000   0.00000000   0.00000000     rms, ekb1, ekb2, epsatm
    1.80626423934776    0.22824404341771    1.17378968127746   rchrg,fchrg,qchrg
 pspatm: epsatm=    1.43386982
         --- l  ekb(1:nproj) -->
             0    3.287949
             1    1.849886
 pspatm: atomic psp has been read  and splines computed

--------------------------------------------------------------------------------

 ==== K-mesh for the wavefunctions ====
 Number of points in the irreducible wedge :     1
 Reduced coordinates and weights : 

     1)     0.00000000E+00  0.00000000E+00  0.00000000E+00       1.00000

 Together with 48 symmetry operations and time-reversal symmetry 
 yields     1 points in the full Brillouin Zone.


 ==== Q-mesh for screening function ====
 Number of points in the irreducible wedge :     1
 Reduced coordinates and weights : 

     1)     0.00000000E+00  0.00000000E+00  0.00000000E+00       1.00000

 Together with 48 symmetry operations and time-reversal symmetry 
 yields     1 points in the full Brillouin Zone.


 setmesh: FFT mesh size selected  =  20x 20x 20
          total number of points  =     8000


 k       eigenvalues [eV]
  1         -6.17   5.92   5.92   5.92   8.45   8.45   8.45   9.17  13.59  13.82
            13.82  17.11  17.11  17.11  20.99  29.29  29.29  29.29  30.44  30.44
            31.39  31.39  31.39  35.51  35.51  35.51  40.83  41.42  41.42  41.42
            45.29  45.29  46.91  46.91  47.40  47.40  47.40  48.93  50.05  50.05
            50.05  50.42  51.18  51.18  51.18  51.43  51.43  51.43  52.72  52.72
            52.72  56.69  57.65  57.65  57.65  57.75  57.75  57.75  58.21  73.12
            73.12  73.19  76.01  76.01  76.01  76.11  79.44  79.44  79.44  80.10
            80.10  80.15  80.15  80.15  82.44  84.27  84.27  84.27  88.27  88.27
            88.27  89.76  89.76  89.76  89.83  89.83  89.83  90.02  90.02  93.57
            93.57  94.07  94.07  94.07  94.55  97.13  97.13  97.13  98.27  98.27

 Number of electrons calculated from density =    7.9882; Expected =    8.0000
 average of density, n =  0.029960
 r_s =    1.9974
 omega_plasma =   16.6965 [eV]


 === KS Band Gaps ===
  >>>> For spin  1
   Minimum optical gap =   2.5301 [eV], located at k-point      :   0.0000  0.0000  0.0000
   Fundamental gap     =   2.5301 [eV], Top of valence bands at :   0.0000  0.0000  0.0000
                                        Bottom of conduction at :   0.0000  0.0000  0.0000
 SIGMA fundamental parameters:
 PLASMON POLE MODEL  1
 number of plane-waves for SigmaX                  169
 number of plane-waves for SigmaC and W            169
 number of plane-waves for wavefunctions           137
 number of bands                                   100
 number of independent spin polarizations            1
 number of spinorial components                      1
 number of k-points in IBZ                           1
 number of q-points in IBZ                           1
 number of symmetry operations                      48
 number of k-points in BZ                            1
 number of q-points in BZ                            1
 number of frequencies for dSigma/dE                 9
 frequency step for dSigma/dE [eV]                0.25
 number of omega for Sigma on real axis              0
 max omega for Sigma on real axis  [eV]           0.00
 zcut for avoiding poles [eV]                     0.10

 EPSILON^-1 parameters (SCR file):
 dimension of the eps^-1 matrix on file            169
 dimension of the eps^-1 matrix used               169
 number of plane-waves for wavefunctions            59
 number of bands                                    25
 number of q-points in IBZ                           1
 number of frequencies                               2
 number of real frequencies                          1
 number of imag frequencies                          1

 matrix elements of self-energy operator (all in [eV])

 Perturbative Calculation

 k =    0.000   0.000   0.000
 Band     E0 <VxcLDA>   SigX SigC(E0)      Z dSigC/dE  Sig(E)    E-E0       E
    4   5.915 -11.639 -15.244   3.843   0.811  -0.233 -11.446   0.193   6.108
    5   8.445  -9.675  -3.213  -5.527   0.819  -0.221  -8.909   0.766   9.211

 E^0_gap          2.530
 E^GW_gap         3.103
 DeltaE^GW_gap    0.573


 New Fermi energy :        2.674111E-01 Ha ,    7.276627E+00 eV

 === QP Band Gaps ===
  >>>> For spin  1
   Minimum optical gap =   3.1029 [eV], located at k-point      :   0.0000  0.0000  0.0000
   Fundamental gap     =   3.1029 [eV], Top of valence bands at :   0.0000  0.0000  0.0000
                                        Bottom of conduction at :   0.0000  0.0000  0.0000

================================================================================
== DATASET 21 ==================================================================
-   nproc =    1

 mkfilename : getkss/=0, take file _KSS from output of DATASET   1.

 Exchange-correlation functional for the present dataset will be:
  LDA: new Teter (4/93) with spin-polarized option - ixc=1
 Citation for XC functional:
  S. Goedecker, M. Teter, J. Huetter, PRB 54, 1703 (1996)

 SCREENING: Calculation of the susceptibility and dielectric matrices 

 Based on a program developped by R.W. Godby, V. Olevano, G. Onida, and L. Reining.
 Incorporated in ABINIT by V. Olevano, G.-M. Rignanese, and M. Torrent.
.Using double precision arithmetic ; gwpc =  8

 Real(R)+Recip(G) space primitive vectors, cartesian coordinates (Bohr,Bohr^-1):
 R(1)=  0.0000000  5.1085000  5.1085000  G(1)= -0.0978761  0.0978761  0.0978761
 R(2)=  5.1085000  0.0000000  5.1085000  G(2)=  0.0978761 -0.0978761  0.0978761
 R(3)=  5.1085000  5.1085000  0.0000000  G(3)=  0.0978761  0.0978761 -0.0978761
 Unit cell volume ucvol=  2.6663072E+02 bohr^3
 Angles (23,13,12)=  6.00000000E+01  6.00000000E+01  6.00000000E+01 degrees

--- Pseudopotential description ------------------------------------------------
- pspini: atom type   1  psp file is /home/gonze/ABINIT/ABINITv7.10.4/trunk/7.10.4-private/tests/Psps_for_tests/14si.pspnc
- pspatm: opening atomic psp file    /home/gonze/ABINIT/ABINITv7.10.4/trunk/7.10.4-private/tests/Psps_for_tests/14si.pspnc
-  Troullier-Martins psp for element  Si        Thu Oct 27 17:31:21 EDT 1994
- 14.00000   4.00000    940714                znucl, zion, pspdat
    1    1    2    2      2001   0.00000      pspcod,pspxc,lmax,lloc,mmax,r2well
    0   5.907  14.692    1   2.0872718        l,e99.0,e99.9,nproj,rcpsp
   0.00000000   0.00000000   0.00000000   0.00000000     rms, ekb1, ekb2, epsatm
    1   2.617   4.181    1   2.0872718        l,e99.0,e99.9,nproj,rcpsp
   0.00000000   0.00000000   0.00000000   0.00000000     rms, ekb1, ekb2, epsatm
    2   0.000   0.000    0   2.0872718        l,e99.0,e99.9,nproj,rcpsp
   0.00000000   0.00000000   0.00000000   0.00000000     rms, ekb1, ekb2, epsatm
    1.80626423934776    0.22824404341771    1.17378968127746   rchrg,fchrg,qchrg
 pspatm: epsatm=    1.43386982
         --- l  ekb(1:nproj) -->
             0    3.287949
             1    1.849886
 pspatm: atomic psp has been read  and splines computed

--------------------------------------------------------------------------------

 ==== K-mesh for the wavefunctions ====
 Number of points in the irreducible wedge :     1
 Reduced coordinates and weights : 

     1)     0.00000000E+00  0.00000000E+00  0.00000000E+00       1.00000

 Together with 48 symmetry operations and time-reversal symmetry 
 yields     1 points in the full Brillouin Zone.


 ==== Q-mesh for the screening function ====
 Number of points in the irreducible wedge :     1
 Reduced coordinates and weights : 

     1)     0.00000000E+00  0.00000000E+00  0.00000000E+00       1.00000

 Together with 48 symmetry operations and time-reversal symmetry 
 yields     1 points in the full Brillouin Zone.


 setmesh: FFT mesh size selected  =  20x 20x 20
          total number of points  =     8000


 k       eigenvalues [eV]
  1         -6.17   5.92   5.92   5.92   8.45   8.45   8.45   9.17  13.59  13.82
            13.82  17.11  17.11  17.11  20.99  29.29  29.29  29.29  30.44  30.44
            31.39  31.39  31.39  35.51  35.51
 Number of electrons calculated from density =    7.9868; Expected =    8.0000
 average of density, n =  0.029954
 r_s =    1.9975
 omega_plasma =   16.6950 [eV]


 calculating chi0 at frequencies [eV] :
  1    0.000000E+00    0.000000E+00
  2    0.000000E+00    1.670000E+01


--------------------------------------------------------------------------------
  q-point number  1        q = ( 0.000000, 0.000000, 0.000000) [r.l.u.]
--------------------------------------------------------------------------------
  chi0(G,G') at the    1 th omega   0.0000   0.0000 [eV]
       1       2       3       4       5       6       7       8       9
    1  -0.000   0.000  -0.000  -0.001   0.001   0.001  -0.001  -0.000   0.000
        0.000   0.000   0.000  -0.001  -0.001   0.001   0.001  -0.000  -0.000

    2   0.000 -23.007  -0.000  -0.573   0.000  -0.683  -0.000  -0.715   0.000
       -0.000   0.000 -16.516  -0.000  -0.404  -0.000  -0.514   0.000  -0.546

  chi0(G,G') at the    2 th omega   0.0000  16.7000 [eV]
       1       2       3       4       5       6       7       8       9
    1  -0.000   0.000  -0.000  -0.000   0.000   0.000  -0.000  -0.000   0.000
        0.000   0.000   0.000  -0.000  -0.000   0.000   0.000  -0.000  -0.000

    2   0.000  -5.598  -0.000  -0.066   0.000  -0.150  -0.000  -0.174   0.000
       -0.000  -0.000  -1.915  -0.000  -0.046  -0.000  -0.130   0.000  -0.154

 For q-point:  0.000010 0.000020 0.000030
  dielectric constant =  99.8534
  dielectric constant without local fields = 144.5683

  Average fulfillment of the sum rule on Im[epsilon] for q-point    1 :     42.95  [%]
  Heads and wings of the symmetrical epsilon^-1(G,G') 

   Upper and lower wings at the    1 th omega   0.0000   0.0000 [eV]
       1       2       3       4       5       6       7       8       9
      0.010   0.002  -0.002  -0.006   0.006   0.006  -0.006  -0.002   0.002
     -0.000   0.002   0.002  -0.006  -0.006   0.006   0.006  -0.002  -0.002
       1       2       3       4       5       6       7       8       9
      0.010   0.002  -0.002  -0.006   0.006   0.006  -0.006  -0.002   0.002
     -0.000  -0.002  -0.002   0.006   0.006  -0.006  -0.006   0.002   0.002


   Upper and lower wings at the    2 th omega   0.0000  16.7000 [eV]
       1       2       3       4       5       6       7       8       9
      0.203   0.004  -0.004  -0.013   0.013   0.013  -0.013  -0.004   0.004
      0.000   0.004   0.004  -0.013  -0.013   0.013   0.013  -0.004  -0.004
       1       2       3       4       5       6       7       8       9
      0.203   0.004  -0.004  -0.013   0.013   0.013  -0.013  -0.004   0.004
      0.000  -0.004  -0.004   0.013   0.013  -0.013  -0.013   0.004   0.004



================================================================================
== DATASET 22 ==================================================================
-   nproc =    1

 mkfilename : getscr/=0, take file _SCR from output of DATASET  21.

 mkfilename : getkss/=0, take file _KSS from output of DATASET   1.

 Exchange-correlation functional for the present dataset will be:
  LDA: new Teter (4/93) with spin-polarized option - ixc=1
 Citation for XC functional:
  S. Goedecker, M. Teter, J. Huetter, PRB 54, 1703 (1996)

 SIGMA: Calculation of the GW corrections 

 Based on a program developped by R.W. Godby, V. Olevano, G. Onida, and L. Reining.
 Incorporated in ABINIT by V. Olevano, G.-M. Rignanese, and M. Torrent.
.Using double precision arithmetic ; gwpc =  8

 Real(R)+Recip(G) space primitive vectors, cartesian coordinates (Bohr,Bohr^-1):
 R(1)=  0.0000000  5.1085000  5.1085000  G(1)= -0.0978761  0.0978761  0.0978761
 R(2)=  5.1085000  0.0000000  5.1085000  G(2)=  0.0978761 -0.0978761  0.0978761
 R(3)=  5.1085000  5.1085000  0.0000000  G(3)=  0.0978761  0.0978761 -0.0978761
 Unit cell volume ucvol=  2.6663072E+02 bohr^3
 Angles (23,13,12)=  6.00000000E+01  6.00000000E+01  6.00000000E+01 degrees

--- Pseudopotential description ------------------------------------------------
- pspini: atom type   1  psp file is /home/gonze/ABINIT/ABINITv7.10.4/trunk/7.10.4-private/tests/Psps_for_tests/14si.pspnc
- pspatm: opening atomic psp file    /home/gonze/ABINIT/ABINITv7.10.4/trunk/7.10.4-private/tests/Psps_for_tests/14si.pspnc
-  Troullier-Martins psp for element  Si        Thu Oct 27 17:31:21 EDT 1994
- 14.00000   4.00000    940714                znucl, zion, pspdat
    1    1    2    2      2001   0.00000      pspcod,pspxc,lmax,lloc,mmax,r2well
    0   5.907  14.692    1   2.0872718        l,e99.0,e99.9,nproj,rcpsp
   0.00000000   0.00000000   0.00000000   0.00000000     rms, ekb1, ekb2, epsatm
    1   2.617   4.181    1   2.0872718        l,e99.0,e99.9,nproj,rcpsp
   0.00000000   0.00000000   0.00000000   0.00000000     rms, ekb1, ekb2, epsatm
    2   0.000   0.000    0   2.0872718        l,e99.0,e99.9,nproj,rcpsp
   0.00000000   0.00000000   0.00000000   0.00000000     rms, ekb1, ekb2, epsatm
    1.80626423934776    0.22824404341771    1.17378968127746   rchrg,fchrg,qchrg
 pspatm: epsatm=    1.43386982
         --- l  ekb(1:nproj) -->
             0    3.287949
             1    1.849886
 pspatm: atomic psp has been read  and splines computed

--------------------------------------------------------------------------------

 ==== K-mesh for the wavefunctions ====
 Number of points in the irreducible wedge :     1
 Reduced coordinates and weights : 

     1)     0.00000000E+00  0.00000000E+00  0.00000000E+00       1.00000

 Together with 48 symmetry operations and time-reversal symmetry 
 yields     1 points in the full Brillouin Zone.


 ==== Q-mesh for screening function ====
 Number of points in the irreducible wedge :     1
 Reduced coordinates and weights : 

     1)     0.00000000E+00  0.00000000E+00  0.00000000E+00       1.00000

 Together with 48 symmetry operations and time-reversal symmetry 
 yields     1 points in the full Brillouin Zone.


 setmesh: FFT mesh size selected  =  20x 20x 20
          total number of points  =     8000


 k       eigenvalues [eV]
  1         -6.17   5.92   5.92   5.92   8.45   8.45   8.45   9.17  13.59  13.82
            13.82  17.11  17.11  17.11  20.99  29.29  29.29  29.29  30.44  30.44
            31.39  31.39  31.39  35.51  35.51  35.51  40.83  41.42  41.42  41.42
            45.29  45.29  46.91  46.91  47.40  47.40  47.40  48.93  50.05  50.05
            50.05  50.42  51.18  51.18  51.18  51.43  51.43  51.43  52.72  52.72
            52.72  56.69  57.65  57.65  57.65  57.75  57.75  57.75  58.21  73.12
            73.12  73.19  76.01  76.01  76.01  76.11  79.44  79.44  79.44  80.10
            80.10  80.15  80.15  80.15  82.44  84.27  84.27  84.27  88.27  88.27
            88.27  89.76  89.76  89.76  89.83  89.83  89.83  90.02  90.02  93.57
            93.57  94.07  94.07  94.07  94.55  97.13  97.13  97.13  98.27  98.27

 Number of electrons calculated from density =    7.9882; Expected =    8.0000
 average of density, n =  0.029960
 r_s =    1.9974
 omega_plasma =   16.6965 [eV]


 === KS Band Gaps ===
  >>>> For spin  1
   Minimum optical gap =   2.5301 [eV], located at k-point      :   0.0000  0.0000  0.0000
   Fundamental gap     =   2.5301 [eV], Top of valence bands at :   0.0000  0.0000  0.0000
                                        Bottom of conduction at :   0.0000  0.0000  0.0000
 SIGMA fundamental parameters:
 PLASMON POLE MODEL  1
 number of plane-waves for SigmaX                  169
 number of plane-waves for SigmaC and W            169
 number of plane-waves for wavefunctions           137
 number of bands                                   100
 number of independent spin polarizations            1
 number of spinorial components                      1
 number of k-points in IBZ                           1
 number of q-points in IBZ                           1
 number of symmetry operations                      48
 number of k-points in BZ                            1
 number of q-points in BZ                            1
 number of frequencies for dSigma/dE                 9
 frequency step for dSigma/dE [eV]                0.25
 number of omega for Sigma on real axis              0
 max omega for Sigma on real axis  [eV]           0.00
 zcut for avoiding poles [eV]                     0.10

 EPSILON^-1 parameters (SCR file):
 dimension of the eps^-1 matrix on file            169
 dimension of the eps^-1 matrix used               169
 number of plane-waves for wavefunctions           113
 number of bands                                    25
 number of q-points in IBZ                           1
 number of frequencies                               2
 number of real frequencies                          1
 number of imag frequencies                          1

 matrix elements of self-energy operator (all in [eV])

 Perturbative Calculation

 k =    0.000   0.000   0.000
 Band     E0 <VxcLDA>   SigX SigC(E0)      Z dSigC/dE  Sig(E)    E-E0       E
    4   5.915 -11.639 -15.244   3.789   0.804  -0.244 -11.492   0.147   6.063
    5   8.445  -9.675  -3.213  -5.564   0.817  -0.224  -8.941   0.734   9.179

 E^0_gap          2.530
 E^GW_gap         3.116
 DeltaE^GW_gap    0.586


 New Fermi energy :        2.665769E-01 Ha ,    7.253928E+00 eV

 === QP Band Gaps ===
  >>>> For spin  1
   Minimum optical gap =   3.1163 [eV], located at k-point      :   0.0000  0.0000  0.0000
   Fundamental gap     =   3.1163 [eV], Top of valence bands at :   0.0000  0.0000  0.0000
                                        Bottom of conduction at :   0.0000  0.0000  0.0000

================================================================================
== DATASET 31 ==================================================================
-   nproc =    1

 mkfilename : getkss/=0, take file _KSS from output of DATASET   1.

 Exchange-correlation functional for the present dataset will be:
  LDA: new Teter (4/93) with spin-polarized option - ixc=1
 Citation for XC functional:
  S. Goedecker, M. Teter, J. Huetter, PRB 54, 1703 (1996)

 SCREENING: Calculation of the susceptibility and dielectric matrices 

 Based on a program developped by R.W. Godby, V. Olevano, G. Onida, and L. Reining.
 Incorporated in ABINIT by V. Olevano, G.-M. Rignanese, and M. Torrent.
.Using double precision arithmetic ; gwpc =  8

 Real(R)+Recip(G) space primitive vectors, cartesian coordinates (Bohr,Bohr^-1):
 R(1)=  0.0000000  5.1085000  5.1085000  G(1)= -0.0978761  0.0978761  0.0978761
 R(2)=  5.1085000  0.0000000  5.1085000  G(2)=  0.0978761 -0.0978761  0.0978761
 R(3)=  5.1085000  5.1085000  0.0000000  G(3)=  0.0978761  0.0978761 -0.0978761
 Unit cell volume ucvol=  2.6663072E+02 bohr^3
 Angles (23,13,12)=  6.00000000E+01  6.00000000E+01  6.00000000E+01 degrees
--------------------------------------------------------------------------------

 ==== K-mesh for the wavefunctions ====
 Number of points in the irreducible wedge :     1
 Reduced coordinates and weights : 

     1)     0.00000000E+00  0.00000000E+00  0.00000000E+00       1.00000

 Together with 48 symmetry operations and time-reversal symmetry 
 yields     1 points in the full Brillouin Zone.


 ==== Q-mesh for the screening function ====
 Number of points in the irreducible wedge :     1
 Reduced coordinates and weights : 

     1)     0.00000000E+00  0.00000000E+00  0.00000000E+00       1.00000

 Together with 48 symmetry operations and time-reversal symmetry 
 yields     1 points in the full Brillouin Zone.


 setmesh: FFT mesh size selected  =  20x 20x 20
          total number of points  =     8000


 k       eigenvalues [eV]
  1         -6.17   5.92   5.92   5.92   8.45   8.45   8.45   9.17  13.59  13.82
            13.82  17.11  17.11  17.11  20.99  29.29  29.29  29.29  30.44  30.44
            31.39  31.39  31.39  35.51  35.51
 Number of electrons calculated from density =    7.9882; Expected =    8.0000
 average of density, n =  0.029960
 r_s =    1.9974
 omega_plasma =   16.6965 [eV]


 calculating chi0 at frequencies [eV] :
  1    0.000000E+00    0.000000E+00
  2    0.000000E+00    1.670000E+01


--------------------------------------------------------------------------------
  q-point number  1        q = ( 0.000000, 0.000000, 0.000000) [r.l.u.]
--------------------------------------------------------------------------------
  chi0(G,G') at the    1 th omega   0.0000   0.0000 [eV]
       1       2       3       4       5       6       7       8       9
    1  -0.000   0.000  -0.000  -0.001   0.001   0.001  -0.001  -0.000   0.000
       -0.000   0.000   0.000  -0.001  -0.001   0.001   0.001  -0.000  -0.000

    2   0.000 -23.125  -0.000  -0.573   0.000  -0.683  -0.000  -0.715   0.000
       -0.000   0.000 -16.633  -0.000  -0.391  -0.000  -0.502   0.000  -0.533

  chi0(G,G') at the    2 th omega   0.0000  16.7000 [eV]
       1       2       3       4       5       6       7       8       9
    1  -0.000   0.000  -0.000  -0.000   0.000   0.000  -0.000  -0.000   0.000
       -0.000   0.000   0.000  -0.000  -0.000   0.000   0.000  -0.000  -0.000

    2   0.000  -5.625  -0.000  -0.079   0.000  -0.163  -0.000  -0.187   0.000
       -0.000  -0.000  -1.944  -0.000  -0.055  -0.000  -0.139   0.000  -0.163

 For q-point:  0.000010 0.000020 0.000030
  dielectric constant =  99.5265
  dielectric constant without local fields = 143.7209

  Average fulfillment of the sum rule on Im[epsilon] for q-point    1 :     43.10  [%]
  Heads and wings of the symmetrical epsilon^-1(G,G') 

   Upper and lower wings at the    1 th omega   0.0000   0.0000 [eV]
       1       2       3       4       5       6       7       8       9
      0.010   0.002  -0.002  -0.006   0.006   0.006  -0.006  -0.002   0.002
      0.000   0.002   0.002  -0.006  -0.006   0.006   0.006  -0.002  -0.002
       1       2       3       4       5       6       7       8       9
      0.010   0.002  -0.002  -0.006   0.006   0.006  -0.006  -0.002   0.002
      0.000  -0.002  -0.002   0.006   0.006  -0.006  -0.006   0.002   0.002


   Upper and lower wings at the    2 th omega   0.0000  16.7000 [eV]
       1       2       3       4       5       6       7       8       9
      0.204   0.004  -0.004  -0.013   0.013   0.013  -0.013  -0.004   0.004
     -0.000   0.004   0.004  -0.013  -0.013   0.013   0.013  -0.004  -0.004
       1       2       3       4       5       6       7       8       9
      0.204   0.004  -0.004  -0.013   0.013   0.013  -0.013  -0.004   0.004
     -0.000  -0.004  -0.004   0.013   0.013  -0.013  -0.013   0.004   0.004



================================================================================
== DATASET 32 ==================================================================
-   nproc =    1

 mkfilename : getscr/=0, take file _SCR from output of DATASET  31.

 mkfilename : getkss/=0, take file _KSS from output of DATASET   1.

 Exchange-correlation functional for the present dataset will be:
  LDA: new Teter (4/93) with spin-polarized option - ixc=1
 Citation for XC functional:
  S. Goedecker, M. Teter, J. Huetter, PRB 54, 1703 (1996)

 SIGMA: Calculation of the GW corrections 

 Based on a program developped by R.W. Godby, V. Olevano, G. Onida, and L. Reining.
 Incorporated in ABINIT by V. Olevano, G.-M. Rignanese, and M. Torrent.
.Using double precision arithmetic ; gwpc =  8

 Real(R)+Recip(G) space primitive vectors, cartesian coordinates (Bohr,Bohr^-1):
 R(1)=  0.0000000  5.1085000  5.1085000  G(1)= -0.0978761  0.0978761  0.0978761
 R(2)=  5.1085000  0.0000000  5.1085000  G(2)=  0.0978761 -0.0978761  0.0978761
 R(3)=  5.1085000  5.1085000  0.0000000  G(3)=  0.0978761  0.0978761 -0.0978761
 Unit cell volume ucvol=  2.6663072E+02 bohr^3
 Angles (23,13,12)=  6.00000000E+01  6.00000000E+01  6.00000000E+01 degrees
--------------------------------------------------------------------------------

 ==== K-mesh for the wavefunctions ====
 Number of points in the irreducible wedge :     1
 Reduced coordinates and weights : 

     1)     0.00000000E+00  0.00000000E+00  0.00000000E+00       1.00000

 Together with 48 symmetry operations and time-reversal symmetry 
 yields     1 points in the full Brillouin Zone.


 ==== Q-mesh for screening function ====
 Number of points in the irreducible wedge :     1
 Reduced coordinates and weights : 

     1)     0.00000000E+00  0.00000000E+00  0.00000000E+00       1.00000

 Together with 48 symmetry operations and time-reversal symmetry 
 yields     1 points in the full Brillouin Zone.


 setmesh: FFT mesh size selected  =  20x 20x 20
          total number of points  =     8000


 k       eigenvalues [eV]
  1         -6.17   5.92   5.92   5.92   8.45   8.45   8.45   9.17  13.59  13.82
            13.82  17.11  17.11  17.11  20.99  29.29  29.29  29.29  30.44  30.44
            31.39  31.39  31.39  35.51  35.51  35.51  40.83  41.42  41.42  41.42
            45.29  45.29  46.91  46.91  47.40  47.40  47.40  48.93  50.05  50.05
            50.05  50.42  51.18  51.18  51.18  51.43  51.43  51.43  52.72  52.72
            52.72  56.69  57.65  57.65  57.65  57.75  57.75  57.75  58.21  73.12
            73.12  73.19  76.01  76.01  76.01  76.11  79.44  79.44  79.44  80.10
            80.10  80.15  80.15  80.15  82.44  84.27  84.27  84.27  88.27  88.27
            88.27  89.76  89.76  89.76  89.83  89.83  89.83  90.02  90.02  93.57
            93.57  94.07  94.07  94.07  94.55  97.13  97.13  97.13  98.27  98.27

 Number of electrons calculated from density =    7.9882; Expected =    8.0000
 average of density, n =  0.029960
 r_s =    1.9974
 omega_plasma =   16.6965 [eV]


 === KS Band Gaps ===
  >>>> For spin  1
   Minimum optical gap =   2.5301 [eV], located at k-point      :   0.0000  0.0000  0.0000
   Fundamental gap     =   2.5301 [eV], Top of valence bands at :   0.0000  0.0000  0.0000
                                        Bottom of conduction at :   0.0000  0.0000  0.0000
 SIGMA fundamental parameters:
 PLASMON POLE MODEL  1
 number of plane-waves for SigmaX                  169
 number of plane-waves for SigmaC and W            169
 number of plane-waves for wavefunctions           137
 number of bands                                   100
 number of independent spin polarizations            1
 number of spinorial components                      1
 number of k-points in IBZ                           1
 number of q-points in IBZ                           1
 number of symmetry operations                      48
 number of k-points in BZ                            1
 number of q-points in BZ                            1
 number of frequencies for dSigma/dE                 9
 frequency step for dSigma/dE [eV]                0.25
 number of omega for Sigma on real axis              0
 max omega for Sigma on real axis  [eV]           0.00
 zcut for avoiding poles [eV]                     0.10

 EPSILON^-1 parameters (SCR file):
 dimension of the eps^-1 matrix on file            169
 dimension of the eps^-1 matrix used               169
 number of plane-waves for wavefunctions           137
 number of bands                                    25
 number of q-points in IBZ                           1
 number of frequencies                               2
 number of real frequencies                          1
 number of imag frequencies                          1

 matrix elements of self-energy operator (all in [eV])

 Perturbative Calculation

 k =    0.000   0.000   0.000
 Band     E0 <VxcLDA>   SigX SigC(E0)      Z dSigC/dE  Sig(E)    E-E0       E
    4   5.915 -11.639 -15.244   3.779   0.804  -0.243 -11.500   0.140   6.055
    5   8.445  -9.675  -3.213  -5.568   0.816  -0.226  -8.945   0.729   9.175

 E^0_gap          2.530
 E^GW_gap         3.120
 DeltaE^GW_gap    0.590


 New Fermi energy :        2.664315E-01 Ha ,    7.249970E+00 eV

 === QP Band Gaps ===
  >>>> For spin  1
   Minimum optical gap =   3.1198 [eV], located at k-point      :   0.0000  0.0000  0.0000
   Fundamental gap     =   3.1198 [eV], Top of valence bands at :   0.0000  0.0000  0.0000
                                        Bottom of conduction at :   0.0000  0.0000  0.0000

================================================================================
== DATASET 41 ==================================================================
-   nproc =    1

 mkfilename : getkss/=0, take file _KSS from output of DATASET   1.

 Exchange-correlation functional for the present dataset will be:
  LDA: new Teter (4/93) with spin-polarized option - ixc=1
 Citation for XC functional:
  S. Goedecker, M. Teter, J. Huetter, PRB 54, 1703 (1996)

 SCREENING: Calculation of the susceptibility and dielectric matrices 

 Based on a program developped by R.W. Godby, V. Olevano, G. Onida, and L. Reining.
 Incorporated in ABINIT by V. Olevano, G.-M. Rignanese, and M. Torrent.
.Using double precision arithmetic ; gwpc =  8

 Real(R)+Recip(G) space primitive vectors, cartesian coordinates (Bohr,Bohr^-1):
 R(1)=  0.0000000  5.1085000  5.1085000  G(1)= -0.0978761  0.0978761  0.0978761
 R(2)=  5.1085000  0.0000000  5.1085000  G(2)=  0.0978761 -0.0978761  0.0978761
 R(3)=  5.1085000  5.1085000  0.0000000  G(3)=  0.0978761  0.0978761 -0.0978761
 Unit cell volume ucvol=  2.6663072E+02 bohr^3
 Angles (23,13,12)=  6.00000000E+01  6.00000000E+01  6.00000000E+01 degrees

--- Pseudopotential description ------------------------------------------------
- pspini: atom type   1  psp file is /home/gonze/ABINIT/ABINITv7.10.4/trunk/7.10.4-private/tests/Psps_for_tests/14si.pspnc
- pspatm: opening atomic psp file    /home/gonze/ABINIT/ABINITv7.10.4/trunk/7.10.4-private/tests/Psps_for_tests/14si.pspnc
-  Troullier-Martins psp for element  Si        Thu Oct 27 17:31:21 EDT 1994
- 14.00000   4.00000    940714                znucl, zion, pspdat
    1    1    2    2      2001   0.00000      pspcod,pspxc,lmax,lloc,mmax,r2well
    0   5.907  14.692    1   2.0872718        l,e99.0,e99.9,nproj,rcpsp
   0.00000000   0.00000000   0.00000000   0.00000000     rms, ekb1, ekb2, epsatm
    1   2.617   4.181    1   2.0872718        l,e99.0,e99.9,nproj,rcpsp
   0.00000000   0.00000000   0.00000000   0.00000000     rms, ekb1, ekb2, epsatm
    2   0.000   0.000    0   2.0872718        l,e99.0,e99.9,nproj,rcpsp
   0.00000000   0.00000000   0.00000000   0.00000000     rms, ekb1, ekb2, epsatm
    1.80626423934776    0.22824404341771    1.17378968127746   rchrg,fchrg,qchrg
 pspatm: epsatm=    1.43386982
         --- l  ekb(1:nproj) -->
             0    3.287949
             1    1.849886
 pspatm: atomic psp has been read  and splines computed

--------------------------------------------------------------------------------

 ==== K-mesh for the wavefunctions ====
 Number of points in the irreducible wedge :     1
 Reduced coordinates and weights : 

     1)     0.00000000E+00  0.00000000E+00  0.00000000E+00       1.00000

 Together with 48 symmetry operations and time-reversal symmetry 
 yields     1 points in the full Brillouin Zone.


 ==== Q-mesh for the screening function ====
 Number of points in the irreducible wedge :     1
 Reduced coordinates and weights : 

     1)     0.00000000E+00  0.00000000E+00  0.00000000E+00       1.00000

 Together with 48 symmetry operations and time-reversal symmetry 
 yields     1 points in the full Brillouin Zone.


 setmesh: FFT mesh size selected  =  20x 20x 20
          total number of points  =     8000


 k       eigenvalues [eV]
  1         -6.17   5.92   5.92   5.92   8.45   8.45   8.45   9.17  13.59  13.82
            13.82  17.11  17.11  17.11  20.99  29.29  29.29  29.29  30.44  30.44
            31.39  31.39  31.39  35.51  35.51
 Number of electrons calculated from density =    7.9953; Expected =    8.0000
 average of density, n =  0.029986
 r_s =    1.9968
 omega_plasma =   16.7038 [eV]


 calculating chi0 at frequencies [eV] :
  1    0.000000E+00    0.000000E+00
  2    0.000000E+00    1.670000E+01


--------------------------------------------------------------------------------
  q-point number  1        q = ( 0.000000, 0.000000, 0.000000) [r.l.u.]
--------------------------------------------------------------------------------
  chi0(G,G') at the    1 th omega   0.0000   0.0000 [eV]
       1       2       3       4       5       6       7       8       9
    1  -0.000   0.000  -0.000  -0.001   0.001   0.001  -0.001  -0.000   0.000
       -0.000   0.000   0.000  -0.001  -0.001   0.001   0.001  -0.000  -0.000

    2   0.000 -23.161  -0.000  -0.584   0.000  -0.695  -0.000  -0.726   0.000
       -0.000   0.000 -16.628  -0.000  -0.392  -0.000  -0.504   0.000  -0.535

  chi0(G,G') at the    2 th omega   0.0000  16.7000 [eV]
       1       2       3       4       5       6       7       8       9
    1  -0.000   0.000  -0.000  -0.000   0.000   0.000  -0.000  -0.000   0.000
        0.000   0.000   0.000  -0.000  -0.000   0.000   0.000  -0.000  -0.000

    2   0.000  -5.659  -0.000  -0.092   0.000  -0.177  -0.000  -0.201   0.000
       -0.000  -0.000  -1.948  -0.000  -0.059  -0.000  -0.143   0.000  -0.167

 For q-point:  0.000010 0.000020 0.000030
  dielectric constant =  98.2599
  dielectric constant without local fields = 142.5985

  Average fulfillment of the sum rule on Im[epsilon] for q-point    1 :     43.41  [%]
  Heads and wings of the symmetrical epsilon^-1(G,G') 

   Upper and lower wings at the    1 th omega   0.0000   0.0000 [eV]
       1       2       3       4       5       6       7       8       9
      0.010   0.002  -0.002  -0.006   0.006   0.006  -0.006  -0.002   0.002
     -0.000   0.002   0.002  -0.006  -0.006   0.006   0.006  -0.002  -0.002
       1       2       3       4       5       6       7       8       9
      0.010   0.002  -0.002  -0.006   0.006   0.006  -0.006  -0.002   0.002
     -0.000  -0.002  -0.002   0.006   0.006  -0.006  -0.006   0.002   0.002


   Upper and lower wings at the    2 th omega   0.0000  16.7000 [eV]
       1       2       3       4       5       6       7       8       9
      0.205   0.004  -0.004  -0.013   0.013   0.013  -0.013  -0.004   0.004
      0.000   0.004   0.004  -0.013  -0.013   0.013   0.013  -0.004  -0.004
       1       2       3       4       5       6       7       8       9
      0.205   0.004  -0.004  -0.013   0.013   0.013  -0.013  -0.004   0.004
      0.000  -0.004  -0.004   0.013   0.013  -0.013  -0.013   0.004   0.004



================================================================================
== DATASET 42 ==================================================================
-   nproc =    1

 mkfilename : getscr/=0, take file _SCR from output of DATASET  41.

 mkfilename : getkss/=0, take file _KSS from output of DATASET   1.

 Exchange-correlation functional for the present dataset will be:
  LDA: new Teter (4/93) with spin-polarized option - ixc=1
 Citation for XC functional:
  S. Goedecker, M. Teter, J. Huetter, PRB 54, 1703 (1996)

 SIGMA: Calculation of the GW corrections 

 Based on a program developped by R.W. Godby, V. Olevano, G. Onida, and L. Reining.
 Incorporated in ABINIT by V. Olevano, G.-M. Rignanese, and M. Torrent.
.Using double precision arithmetic ; gwpc =  8

 Real(R)+Recip(G) space primitive vectors, cartesian coordinates (Bohr,Bohr^-1):
 R(1)=  0.0000000  5.1085000  5.1085000  G(1)= -0.0978761  0.0978761  0.0978761
 R(2)=  5.1085000  0.0000000  5.1085000  G(2)=  0.0978761 -0.0978761  0.0978761
 R(3)=  5.1085000  5.1085000  0.0000000  G(3)=  0.0978761  0.0978761 -0.0978761
 Unit cell volume ucvol=  2.6663072E+02 bohr^3
 Angles (23,13,12)=  6.00000000E+01  6.00000000E+01  6.00000000E+01 degrees

--- Pseudopotential description ------------------------------------------------
- pspini: atom type   1  psp file is /home/gonze/ABINIT/ABINITv7.10.4/trunk/7.10.4-private/tests/Psps_for_tests/14si.pspnc
- pspatm: opening atomic psp file    /home/gonze/ABINIT/ABINITv7.10.4/trunk/7.10.4-private/tests/Psps_for_tests/14si.pspnc
-  Troullier-Martins psp for element  Si        Thu Oct 27 17:31:21 EDT 1994
- 14.00000   4.00000    940714                znucl, zion, pspdat
    1    1    2    2      2001   0.00000      pspcod,pspxc,lmax,lloc,mmax,r2well
    0   5.907  14.692    1   2.0872718        l,e99.0,e99.9,nproj,rcpsp
   0.00000000   0.00000000   0.00000000   0.00000000     rms, ekb1, ekb2, epsatm
    1   2.617   4.181    1   2.0872718        l,e99.0,e99.9,nproj,rcpsp
   0.00000000   0.00000000   0.00000000   0.00000000     rms, ekb1, ekb2, epsatm
    2   0.000   0.000    0   2.0872718        l,e99.0,e99.9,nproj,rcpsp
   0.00000000   0.00000000   0.00000000   0.00000000     rms, ekb1, ekb2, epsatm
    1.80626423934776    0.22824404341771    1.17378968127746   rchrg,fchrg,qchrg
 pspatm: epsatm=    1.43386982
         --- l  ekb(1:nproj) -->
             0    3.287949
             1    1.849886
 pspatm: atomic psp has been read  and splines computed

--------------------------------------------------------------------------------

 ==== K-mesh for the wavefunctions ====
 Number of points in the irreducible wedge :     1
 Reduced coordinates and weights : 

     1)     0.00000000E+00  0.00000000E+00  0.00000000E+00       1.00000

 Together with 48 symmetry operations and time-reversal symmetry 
 yields     1 points in the full Brillouin Zone.


 ==== Q-mesh for screening function ====
 Number of points in the irreducible wedge :     1
 Reduced coordinates and weights : 

     1)     0.00000000E+00  0.00000000E+00  0.00000000E+00       1.00000

 Together with 48 symmetry operations and time-reversal symmetry 
 yields     1 points in the full Brillouin Zone.


 setmesh: FFT mesh size selected  =  20x 20x 20
          total number of points  =     8000


 k       eigenvalues [eV]
  1         -6.17   5.92   5.92   5.92   8.45   8.45   8.45   9.17  13.59  13.82
            13.82  17.11  17.11  17.11  20.99  29.29  29.29  29.29  30.44  30.44
            31.39  31.39  31.39  35.51  35.51  35.51  40.83  41.42  41.42  41.42
            45.29  45.29  46.91  46.91  47.40  47.40  47.40  48.93  50.05  50.05
            50.05  50.42  51.18  51.18  51.18  51.43  51.43  51.43  52.72  52.72
            52.72  56.69  57.65  57.65  57.65  57.75  57.75  57.75  58.21  73.12
            73.12  73.19  76.01  76.01  76.01  76.11  79.44  79.44  79.44  80.10
            80.10  80.15  80.15  80.15  82.44  84.27  84.27  84.27  88.27  88.27
            88.27  89.76  89.76  89.76  89.83  89.83  89.83  90.02  90.02  93.57
            93.57  94.07  94.07  94.07  94.55  97.13  97.13  97.13  98.27  98.27

 Number of electrons calculated from density =    7.9882; Expected =    8.0000
 average of density, n =  0.029960
 r_s =    1.9974
 omega_plasma =   16.6965 [eV]


 === KS Band Gaps ===
  >>>> For spin  1
   Minimum optical gap =   2.5301 [eV], located at k-point      :   0.0000  0.0000  0.0000
   Fundamental gap     =   2.5301 [eV], Top of valence bands at :   0.0000  0.0000  0.0000
                                        Bottom of conduction at :   0.0000  0.0000  0.0000
 SIGMA fundamental parameters:
 PLASMON POLE MODEL  1
 number of plane-waves for SigmaX                  169
 number of plane-waves for SigmaC and W            169
 number of plane-waves for wavefunctions           137
 number of bands                                   100
 number of independent spin polarizations            1
 number of spinorial components                      1
 number of k-points in IBZ                           1
 number of q-points in IBZ                           1
 number of symmetry operations                      48
 number of k-points in BZ                            1
 number of q-points in BZ                            1
 number of frequencies for dSigma/dE                 9
 frequency step for dSigma/dE [eV]                0.25
 number of omega for Sigma on real axis              0
 max omega for Sigma on real axis  [eV]           0.00
 zcut for avoiding poles [eV]                     0.10

 EPSILON^-1 parameters (SCR file):
 dimension of the eps^-1 matrix on file            169
 dimension of the eps^-1 matrix used               169
 number of plane-waves for wavefunctions           169
 number of bands                                    25
 number of q-points in IBZ                           1
 number of frequencies                               2
 number of real frequencies                          1
 number of imag frequencies                          1

 matrix elements of self-energy operator (all in [eV])

 Perturbative Calculation

 k =    0.000   0.000   0.000
 Band     E0 <VxcLDA>   SigX SigC(E0)      Z dSigC/dE  Sig(E)    E-E0       E
[...]
           npwwfn11        59
           npwwfn12       137
           npwwfn21       113
           npwwfn22       137
           npwwfn31       137
           npwwfn32       137
           npwwfn41       169
           npwwfn42       137
           npwwfn51       259
           npwwfn52       137
           nsheps          12
          nshsigx          12
             nsym          48
           ntypat           1
              occ11    2.000000  2.000000  2.000000  2.000000  0.000000  0.000000
                       0.000000  0.000000  0.000000  0.000000  0.000000  0.000000
                       0.000000  0.000000  0.000000  0.000000  0.000000  0.000000
                       0.000000  0.000000  0.000000  0.000000  0.000000  0.000000
                       0.000000
              occ12    2.000000  2.000000  2.000000  2.000000  0.000000  0.000000
                       0.000000  0.000000  0.000000  0.000000  0.000000  0.000000
                       0.000000  0.000000  0.000000  0.000000  0.000000  0.000000
                       0.000000  0.000000  0.000000  0.000000  0.000000  0.000000
                       0.000000  0.000000  0.000000  0.000000  0.000000  0.000000
                       0.000000  0.000000  0.000000  0.000000  0.000000  0.000000
                       0.000000  0.000000  0.000000  0.000000  0.000000  0.000000
                       0.000000  0.000000  0.000000  0.000000  0.000000  0.000000
                       0.000000  0.000000  0.000000  0.000000  0.000000  0.000000
                       0.000000  0.000000  0.000000  0.000000  0.000000  0.000000
                       0.000000  0.000000  0.000000  0.000000  0.000000  0.000000
                       0.000000  0.000000  0.000000  0.000000  0.000000  0.000000
                       0.000000  0.000000  0.000000  0.000000  0.000000  0.000000
                       0.000000  0.000000  0.000000  0.000000  0.000000  0.000000
                       0.000000  0.000000  0.000000  0.000000  0.000000  0.000000
                       0.000000  0.000000  0.000000  0.000000  0.000000  0.000000
                       0.000000  0.000000  0.000000  0.000000
              occ21    2.000000  2.000000  2.000000  2.000000  0.000000  0.000000
                       0.000000  0.000000  0.000000  0.000000  0.000000  0.000000
                       0.000000  0.000000  0.000000  0.000000  0.000000  0.000000
                       0.000000  0.000000  0.000000  0.000000  0.000000  0.000000
                       0.000000
              occ22    2.000000  2.000000  2.000000  2.000000  0.000000  0.000000
                       0.000000  0.000000  0.000000  0.000000  0.000000  0.000000
                       0.000000  0.000000  0.000000  0.000000  0.000000  0.000000
                       0.000000  0.000000  0.000000  0.000000  0.000000  0.000000
                       0.000000  0.000000  0.000000  0.000000  0.000000  0.000000
                       0.000000  0.000000  0.000000  0.000000  0.000000  0.000000
                       0.000000  0.000000  0.000000  0.000000  0.000000  0.000000
                       0.000000  0.000000  0.000000  0.000000  0.000000  0.000000
                       0.000000  0.000000  0.000000  0.000000  0.000000  0.000000
                       0.000000  0.000000  0.000000  0.000000  0.000000  0.000000
                       0.000000  0.000000  0.000000  0.000000  0.000000  0.000000
                       0.000000  0.000000  0.000000  0.000000  0.000000  0.000000
                       0.000000  0.000000  0.000000  0.000000  0.000000  0.000000
                       0.000000  0.000000  0.000000  0.000000  0.000000  0.000000
                       0.000000  0.000000  0.000000  0.000000  0.000000  0.000000
                       0.000000  0.000000  0.000000  0.000000  0.000000  0.000000
                       0.000000  0.000000  0.000000  0.000000
              occ31    2.000000  2.000000  2.000000  2.000000  0.000000  0.000000
                       0.000000  0.000000  0.000000  0.000000  0.000000  0.000000
                       0.000000  0.000000  0.000000  0.000000  0.000000  0.000000
                       0.000000  0.000000  0.000000  0.000000  0.000000  0.000000
                       0.000000
              occ32    2.000000  2.000000  2.000000  2.000000  0.000000  0.000000
                       0.000000  0.000000  0.000000  0.000000  0.000000  0.000000
                       0.000000  0.000000  0.000000  0.000000  0.000000  0.000000
                       0.000000  0.000000  0.000000  0.000000  0.000000  0.000000
                       0.000000  0.000000  0.000000  0.000000  0.000000  0.000000
                       0.000000  0.000000  0.000000  0.000000  0.000000  0.000000
                       0.000000  0.000000  0.000000  0.000000  0.000000  0.000000
                       0.000000  0.000000  0.000000  0.000000  0.000000  0.000000
                       0.000000  0.000000  0.000000  0.000000  0.000000  0.000000
                       0.000000  0.000000  0.000000  0.000000  0.000000  0.000000
                       0.000000  0.000000  0.000000  0.000000  0.000000  0.000000
                       0.000000  0.000000  0.000000  0.000000  0.000000  0.000000
                       0.000000  0.000000  0.000000  0.000000  0.000000  0.000000
                       0.000000  0.000000  0.000000  0.000000  0.000000  0.000000
                       0.000000  0.000000  0.000000  0.000000  0.000000  0.000000
                       0.000000  0.000000  0.000000  0.000000  0.000000  0.000000
                       0.000000  0.000000  0.000000  0.000000
              occ41    2.000000  2.000000  2.000000  2.000000  0.000000  0.000000
                       0.000000  0.000000  0.000000  0.000000  0.000000  0.000000
                       0.000000  0.000000  0.000000  0.000000  0.000000  0.000000
                       0.000000  0.000000  0.000000  0.000000  0.000000  0.000000
                       0.000000
              occ42    2.000000  2.000000  2.000000  2.000000  0.000000  0.000000
                       0.000000  0.000000  0.000000  0.000000  0.000000  0.000000
                       0.000000  0.000000  0.000000  0.000000  0.000000  0.000000
                       0.000000  0.000000  0.000000  0.000000  0.000000  0.000000
                       0.000000  0.000000  0.000000  0.000000  0.000000  0.000000
                       0.000000  0.000000  0.000000  0.000000  0.000000  0.000000
                       0.000000  0.000000  0.000000  0.000000  0.000000  0.000000
                       0.000000  0.000000  0.000000  0.000000  0.000000  0.000000
                       0.000000  0.000000  0.000000  0.000000  0.000000  0.000000
                       0.000000  0.000000  0.000000  0.000000  0.000000  0.000000
                       0.000000  0.000000  0.000000  0.000000  0.000000  0.000000
                       0.000000  0.000000  0.000000  0.000000  0.000000  0.000000
                       0.000000  0.000000  0.000000  0.000000  0.000000  0.000000
                       0.000000  0.000000  0.000000  0.000000  0.000000  0.000000
                       0.000000  0.000000  0.000000  0.000000  0.000000  0.000000
                       0.000000  0.000000  0.000000  0.000000  0.000000  0.000000
                       0.000000  0.000000  0.000000  0.000000
              occ51    2.000000  2.000000  2.000000  2.000000  0.000000  0.000000
                       0.000000  0.000000  0.000000  0.000000  0.000000  0.000000
                       0.000000  0.000000  0.000000  0.000000  0.000000  0.000000
                       0.000000  0.000000  0.000000  0.000000  0.000000  0.000000
                       0.000000
              occ52    2.000000  2.000000  2.000000  2.000000  0.000000  0.000000
                       0.000000  0.000000  0.000000  0.000000  0.000000  0.000000
                       0.000000  0.000000  0.000000  0.000000  0.000000  0.000000
                       0.000000  0.000000  0.000000  0.000000  0.000000  0.000000
                       0.000000  0.000000  0.000000  0.000000  0.000000  0.000000
                       0.000000  0.000000  0.000000  0.000000  0.000000  0.000000
                       0.000000  0.000000  0.000000  0.000000  0.000000  0.000000
                       0.000000  0.000000  0.000000  0.000000  0.000000  0.000000
                       0.000000  0.000000  0.000000  0.000000  0.000000  0.000000
                       0.000000  0.000000  0.000000  0.000000  0.000000  0.000000
                       0.000000  0.000000  0.000000  0.000000  0.000000  0.000000
                       0.000000  0.000000  0.000000  0.000000  0.000000  0.000000
                       0.000000  0.000000  0.000000  0.000000  0.000000  0.000000
                       0.000000  0.000000  0.000000  0.000000  0.000000  0.000000
                       0.000000  0.000000  0.000000  0.000000  0.000000  0.000000
                       0.000000  0.000000  0.000000  0.000000  0.000000  0.000000
                       0.000000  0.000000  0.000000  0.000000
        optdriver11         3
        optdriver12         4
        optdriver21         3
        optdriver22         4
        optdriver31         3
        optdriver32         4
        optdriver41         3
        optdriver42         4
        optdriver51         3
        optdriver52         4
           ppmfrq      6.13713734E-01 Hartree
            rprim      0.0000000000E+00  5.0000000000E-01  5.0000000000E-01
                       5.0000000000E-01  0.0000000000E+00  5.0000000000E-01
                       5.0000000000E-01  5.0000000000E-01  0.0000000000E+00
          spgroup         227
           strten11    0.0000000000E+00  0.0000000000E+00  0.0000000000E+00
                       0.0000000000E+00  0.0000000000E+00  0.0000000000E+00
           strten12    0.0000000000E+00  0.0000000000E+00  0.0000000000E+00
                       0.0000000000E+00  0.0000000000E+00  0.0000000000E+00
           strten21    0.0000000000E+00  0.0000000000E+00  0.0000000000E+00
                       0.0000000000E+00  0.0000000000E+00  0.0000000000E+00
           strten22    0.0000000000E+00  0.0000000000E+00  0.0000000000E+00
                       0.0000000000E+00  0.0000000000E+00  0.0000000000E+00
           strten31    0.0000000000E+00  0.0000000000E+00  0.0000000000E+00
                       0.0000000000E+00  0.0000000000E+00  0.0000000000E+00
           strten32    0.0000000000E+00  0.0000000000E+00  0.0000000000E+00
                       0.0000000000E+00  0.0000000000E+00  0.0000000000E+00
           strten41    0.0000000000E+00  0.0000000000E+00  0.0000000000E+00
                       0.0000000000E+00  0.0000000000E+00  0.0000000000E+00
           strten42    0.0000000000E+00  0.0000000000E+00  0.0000000000E+00
                       0.0000000000E+00  0.0000000000E+00  0.0000000000E+00
           strten51    0.0000000000E+00  0.0000000000E+00  0.0000000000E+00
                       0.0000000000E+00  0.0000000000E+00  0.0000000000E+00
           strten52    0.0000000000E+00  0.0000000000E+00  0.0000000000E+00
                       0.0000000000E+00  0.0000000000E+00  0.0000000000E+00
           symrel      1  0  0   0  1  0   0  0  1      -1  0  0   0 -1  0   0  0 -1
                       0 -1  1   0 -1  0   1 -1  0       0  1 -1   0  1  0  -1  1  0
                      -1  0  0  -1  0  1  -1  1  0       1  0  0   1  0 -1   1 -1  0
                       0  1 -1   1  0 -1   0  0 -1       0 -1  1  -1  0  1   0  0  1
                      -1  0  0  -1  1  0  -1  0  1       1  0  0   1 -1  0   1  0 -1
                       0 -1  1   1 -1  0   0 -1  0       0  1 -1  -1  1  0   0  1  0
                       1  0  0   0  0  1   0  1  0      -1  0  0   0  0 -1   0 -1  0
                       0  1 -1   0  0 -1   1  0 -1       0 -1  1   0  0  1  -1  0  1
                      -1  0  1  -1  1  0  -1  0  0       1  0 -1   1 -1  0   1  0  0
                       0 -1  0   1 -1  0   0 -1  1       0  1  0  -1  1  0   0  1 -1
                       1  0 -1   0  0 -1   0  1 -1      -1  0  1   0  0  1   0 -1  1
                       0  1  0   0  0  1   1  0  0       0 -1  0   0  0 -1  -1  0  0
                       1  0 -1   0  1 -1   0  0 -1      -1  0  1   0 -1  1   0  0  1
                       0 -1  0   0 -1  1   1 -1  0       0  1  0   0  1 -1  -1  1  0
                      -1  0  1  -1  0  0  -1  1  0       1  0 -1   1  0  0   1 -1  0
                       0  1  0   1  0  0   0  0  1       0 -1  0  -1  0  0   0  0 -1
                       0  0 -1   0  1 -1   1  0 -1       0  0  1   0 -1  1  -1  0  1
                       1 -1  0   0 -1  1   0 -1  0      -1  1  0   0  1 -1   0  1  0
                       0  0  1   1  0  0   0  1  0       0  0 -1  -1  0  0   0 -1  0
                      -1  1  0  -1  0  0  -1  0  1       1 -1  0   1  0  0   1  0 -1
                       0  0  1   0  1  0   1  0  0       0  0 -1   0 -1  0  -1  0  0
                       1 -1  0   0 -1  0   0 -1  1      -1  1  0   0  1  0   0  1 -1
                       0  0 -1   1  0 -1   0  1 -1       0  0  1  -1  0  1   0 -1  1
                      -1  1  0  -1  0  1  -1  0  0       1 -1  0   1  0 -1   1  0  0
            tnons      0.0000000  0.0000000  0.0000000     0.2500000  0.2500000  0.2500000
                       0.0000000  0.0000000  0.0000000     0.2500000  0.2500000  0.2500000
                       0.0000000  0.0000000  0.0000000     0.2500000  0.2500000  0.2500000
                       0.0000000  0.0000000  0.0000000     0.2500000  0.2500000  0.2500000
                       0.0000000  0.0000000  0.0000000     0.2500000  0.2500000  0.2500000
                       0.0000000  0.0000000  0.0000000     0.2500000  0.2500000  0.2500000
                       0.0000000  0.0000000  0.0000000     0.2500000  0.2500000  0.2500000
                       0.0000000  0.0000000  0.0000000     0.2500000  0.2500000  0.2500000
                       0.0000000  0.0000000  0.0000000     0.2500000  0.2500000  0.2500000
                       0.0000000  0.0000000  0.0000000     0.2500000  0.2500000  0.2500000
                       0.0000000  0.0000000  0.0000000     0.2500000  0.2500000  0.2500000
                       0.0000000  0.0000000  0.0000000     0.2500000  0.2500000  0.2500000
                       0.0000000  0.0000000  0.0000000     0.2500000  0.2500000  0.2500000
                       0.0000000  0.0000000  0.0000000     0.2500000  0.2500000  0.2500000
                       0.0000000  0.0000000  0.0000000     0.2500000  0.2500000  0.2500000
                       0.0000000  0.0000000  0.0000000     0.2500000  0.2500000  0.2500000
                       0.0000000  0.0000000  0.0000000     0.2500000  0.2500000  0.2500000
                       0.0000000  0.0000000  0.0000000     0.2500000  0.2500000  0.2500000
                       0.0000000  0.0000000  0.0000000     0.2500000  0.2500000  0.2500000
                       0.0000000  0.0000000  0.0000000     0.2500000  0.2500000  0.2500000
                       0.0000000  0.0000000  0.0000000     0.2500000  0.2500000  0.2500000
                       0.0000000  0.0000000  0.0000000     0.2500000  0.2500000  0.2500000
                       0.0000000  0.0000000  0.0000000     0.2500000  0.2500000  0.2500000
                       0.0000000  0.0000000  0.0000000     0.2500000  0.2500000  0.2500000
            typat      1  1
           xangst      0.0000000000E+00  0.0000000000E+00  0.0000000000E+00
                       1.3516508850E+00  1.3516508850E+00  1.3516508850E+00
            xcart      0.0000000000E+00  0.0000000000E+00  0.0000000000E+00
                       2.5542500000E+00  2.5542500000E+00  2.5542500000E+00
             xred      0.0000000000E+00  0.0000000000E+00  0.0000000000E+00
                       2.5000000000E-01  2.5000000000E-01  2.5000000000E-01
            znucl       14.00000

================================================================================


- Timing analysis has been suppressed with timopt=0



================================================================================

 Suggested references for the acknowledgment of ABINIT usage.

 The users of ABINIT have little formal obligations with respect to the ABINIT group
 (those specified in the GNU General Public License, http://www.gnu.org/copyleft/gpl.txt).
 However, it is common practice in the scientific literature,
 to acknowledge the efforts of people that have made the research possible.
 In this spirit, please find below suggested citations of work written by ABINIT developers,
 corresponding to implementations inside of ABINIT that you have used in the present run.
 Note also that it will be of great value to readers of publications presenting these results,
 to read papers enabling them to understand the theoretical formalism and details
 of the ABINIT implementation.
 For information on why they are suggested, see also http://www.abinit.org/about/?text=acknowledgments.

 [1] ABINIT : First-principles approach of materials and nanosystem properties.
 X. Gonze, B. Amadon, P.-M. Anglade, J.-M. Beuken, F. Bottin, P. Boulanger, F. Bruneval,
 D. Caliste, R. Caracas, M. Cote, T. Deutsch, L. Genovese, Ph. Ghosez, M. Giantomassi
 S. Goedecker, D.R. Hamann, P. Hermet, F. Jollet, G. Jomard, S. Leroux, M. Mancini, S. Mazevet,
 M.J.T. Oliveira, G. Onida, Y. Pouillon, T. Rangel, G.-M. Rignanese, D. Sangalli, R. Shaltaf,
 M. Torrent, M.J. Verstraete, G. Zerah, J.W. Zwanziger
 Computer Phys. Comm. 180, 2582-2615 (2009).
 Comment : the third generic paper describing the ABINIT project.
 Note that a version of this paper, that is not formatted for Computer Phys. Comm. 
 is available at http://www.abinit.org/about/ABINIT_CPC_v10.pdf .
 The licence allows the authors to put it on the Web.

 [2] A brief introduction to the ABINIT software package.
 X. Gonze, G.-M. Rignanese, M. Verstraete, J.-M. Beuken, Y. Pouillon, R. Caracas, F. Jollet,
 M. Torrent, G. Zerah, M. Mikami, Ph. Ghosez, M. Veithen, J.-Y. Raty, V. Olevano, F. Bruneval,
 L. Reining, R. Godby, G. Onida, D.R. Hamann, and D.C. Allan.
 Z. Kristallogr. 220, 558-562 (2005).
 Comment : the second generic paper describing the ABINIT project. Note that this paper
 should be cited especially if you are using the GW part of ABINIT, as several authors
 of this part are not in the list of authors of the first or third paper.
 The .pdf of the latter paper is available at http://www.abinit.org/about/zfk_0505-06_558-562.pdf.
 Note that it should not redistributed (Copyright by Oldenburg Wissenshaftverlag,
 the licence allows the authors to put it on the Web).


 And optionally :

 [3] First-principles computation of material properties : the ABINIT software project. 
 X. Gonze, J.-M. Beuken, R. Caracas, F. Detraux, M. Fuchs, G.-M. Rignanese, L. Sindic,
 M. Verstraete, G. Zerah, F. Jollet, M. Torrent, A. Roy, M. Mikami, Ph. Ghosez, J.-Y. Raty, D.C. Allan.
 Computational Materials Science 25, 478-492 (2002). http://dx.doi.org/10.1016/S0927-0256(02)00325-7
 Comment : the original paper describing the ABINIT project.

 [4] Fast radix 2, 3, 4 and 5 kernels for Fast Fourier Transformations
 on computers with overlapping multiply-add instructions.
 S. Goedecker, SIAM J. on Scientific Computing 18, 1605 (1997).

 [5] Towards a potential-based conjugate gradient algorithm for order-N self-consistent
 total energy calculations.
 X. Gonze, Phys. Rev. B 54, 4383 (1996).
 Comment : The potential-based conjugate-gradient algorithm, used when iscf=5, is not published.
 However, many elements of this algorithm have been explained in the paper above.
-
- Proc.   0 individual time (sec): cpu=         11.1  wall=         11.1

================================================================================

 Calculation completed.
.Delivered   64 WARNINGs and  16 COMMENTs to log file.
+Overall time at end (sec) : cpu=         11.1  wall=         11.1
