
.Version 7.9.3 of ABINIT 
.(MPI version, prepared for a x86_64_linux_gnu4.7 computer) 

.Copyright (C) 1998-2014 ABINIT group . 
 ABINIT comes with ABSOLUTELY NO WARRANTY.
 It is free software, and you are welcome to redistribute it
 under certain conditions (GNU General Public License,
 see ~abinit/COPYING or http://www.gnu.org/copyleft/gpl.txt).

 ABINIT is a project of the Universite Catholique de Louvain,
 Corning Inc. and other collaborators, see ~abinit/doc/developers/contributors.txt .
 Please read ~abinit/doc/users/acknowledgments.html for suggested
 acknowledgments of the ABINIT effort.
 For more information, see http://www.abinit.org .

.Starting date : Sat 30 Aug 2014.
- ( at 22h27 )
  
- input  file    -> tgw2_2.in
- output file    -> tgw2_2.out
- root for input  files -> tgw2_2i
- root for output files -> tgw2_2o


 Symmetries : space group Fm -3 m (#225); Bravais cF (face-center cubic)
================================================================================
 Values of the parameters that define the memory need of the present run
   intxc =         0  ionmov =         0    iscf =         7 xclevel =         1
  lmnmax =         3   lnmax =         3   mband =        30  mffmem =         1
P  mgfft =        10   mkmem =         8 mpssoang=         3     mpw =        43
  mqgrid =      3001   natom =         1    nfft =      1000    nkpt =         8
  nloalg =         4  nspden =         1 nspinor =         1  nsppol =         1
    nsym =        48  n1xccc =         0  ntypat =         1  occopt =         3
================================================================================
P This job should need less than                       1.732 Mbytes of memory.
  Rough estimation (10% accuracy) of disk space for files :
_ WF disk file :      0.159 Mbytes ; DEN or POT disk file :      0.010 Mbytes.
================================================================================

--------------------------------------------------------------------------------
------------- Echo of variables that govern the present computation ------------
--------------------------------------------------------------------------------
-
- outvars: echo of selected default values                                      
-   accesswff0 =  0 , fftalg0 =112 , wfoptalg0 =  0
-
- outvars: echo of global parameters not present in the input file              
-  max_nthreads =    0
-
 -outvars: echo values of preprocessed input variables --------
            acell      7.6520000000E+00  7.6520000000E+00  7.6520000000E+00 Bohr
              amu      2.69815390E+01
             awtr           0
             ecut      3.70827987E+00 Hartree
          ecuteps      3.70827987E+00 Hartree
          ecutwfn      3.70827987E+00 Hartree
           enunit           1
-          fftalg         112
        freqremax      1.00000000E+00 Hartree
        gwcalctyp           2
           istwfk        1    0    1    0    0    0    1    0
              ixc           7
              kpt      0.00000000E+00  0.00000000E+00  0.00000000E+00
                       2.50000000E-01  0.00000000E+00  0.00000000E+00
                       5.00000000E-01  0.00000000E+00  0.00000000E+00
                       2.50000000E-01  2.50000000E-01  0.00000000E+00
                       5.00000000E-01  2.50000000E-01  0.00000000E+00
                      -2.50000000E-01  2.50000000E-01  0.00000000E+00
                       5.00000000E-01  5.00000000E-01  0.00000000E+00
                      -2.50000000E-01  5.00000000E-01  2.50000000E-01
         kptrlatt        4    0    0      0    4    0      0    0    4
          kptrlen      2.16431244E+01
P           mkmem           8
            natom           1
            nband          30
          nfreqim           4
          nfreqre          10
            ngfft          10      10      10
             nkpt           8
           npweps          51
           npwwfn          51
           nsheps           5
            nstep          50
             nsym          48
           ntypat           1
              occ      2.000000  1.000000  0.000000  0.000000  0.000000  0.000000
                       0.000000  0.000000  0.000000  0.000000  0.000000  0.000000
                       0.000000  0.000000  0.000000  0.000000  0.000000  0.000000
                       0.000000  0.000000  0.000000  0.000000  0.000000  0.000000
                       0.000000  0.000000  0.000000  0.000000  0.000000  0.000000
                       2.000000  1.000000  0.000000  0.000000  0.000000  0.000000
                       0.000000  0.000000  0.000000  0.000000  0.000000  0.000000
                       0.000000  0.000000  0.000000  0.000000  0.000000  0.000000
                       0.000000  0.000000  0.000000  0.000000  0.000000  0.000000
                       0.000000  0.000000  0.000000  0.000000  0.000000  0.000000
                       2.000000  1.000000  0.000000  0.000000  0.000000  0.000000
                       0.000000  0.000000  0.000000  0.000000  0.000000  0.000000
                       0.000000  0.000000  0.000000  0.000000  0.000000  0.000000
                       0.000000  0.000000  0.000000  0.000000  0.000000  0.000000
                       0.000000  0.000000  0.000000  0.000000  0.000000  0.000000
                       2.000000  1.000000  0.000000  0.000000  0.000000  0.000000
                       0.000000  0.000000  0.000000  0.000000  0.000000  0.000000
                       0.000000  0.000000  0.000000  0.000000  0.000000  0.000000
                       0.000000  0.000000  0.000000  0.000000  0.000000  0.000000
                       0.000000  0.000000  0.000000  0.000000  0.000000  0.000000
                       2.000000  1.000000  0.000000  0.000000  0.000000  0.000000
                       0.000000  0.000000  0.000000  0.000000  0.000000  0.000000
                       0.000000  0.000000  0.000000  0.000000  0.000000  0.000000
                       0.000000  0.000000  0.000000  0.000000  0.000000  0.000000
                       0.000000  0.000000  0.000000  0.000000  0.000000  0.000000
                       2.000000  1.000000  0.000000  0.000000  0.000000  0.000000
                       0.000000  0.000000  0.000000  0.000000  0.000000  0.000000
                       0.000000  0.000000  0.000000  0.000000  0.000000  0.000000
                       0.000000  0.000000  0.000000  0.000000  0.000000  0.000000
                       0.000000  0.000000  0.000000  0.000000  0.000000  0.000000
                       2.000000  1.000000  0.000000  0.000000  0.000000  0.000000
                       0.000000  0.000000  0.000000  0.000000  0.000000  0.000000
                       0.000000  0.000000  0.000000  0.000000  0.000000  0.000000
                       0.000000  0.000000  0.000000  0.000000  0.000000  0.000000
                       0.000000  0.000000  0.000000  0.000000  0.000000  0.000000
                       2.000000  1.000000  0.000000  0.000000  0.000000  0.000000
                       0.000000  0.000000  0.000000  0.000000  0.000000  0.000000
                       0.000000  0.000000  0.000000  0.000000  0.000000  0.000000
                       0.000000  0.000000  0.000000  0.000000  0.000000  0.000000
                       0.000000  0.000000  0.000000  0.000000  0.000000  0.000000
           occopt           3
        optdriver           3
           prtvol           5
            rprim      0.0000000000E+00  5.0000000000E-01  5.0000000000E-01
                       5.0000000000E-01  0.0000000000E+00  5.0000000000E-01
                       5.0000000000E-01  5.0000000000E-01  0.0000000000E+00
          spgroup         225
           symrel      1  0  0   0  1  0   0  0  1      -1  0  0   0 -1  0   0  0 -1
                       0 -1  1   0 -1  0   1 -1  0       0  1 -1   0  1  0  -1  1  0
                      -1  0  0  -1  0  1  -1  1  0       1  0  0   1  0 -1   1 -1  0
                       0  1 -1   1  0 -1   0  0 -1       0 -1  1  -1  0  1   0  0  1
                      -1  0  0  -1  1  0  -1  0  1       1  0  0   1 -1  0   1  0 -1
                       0 -1  1   1 -1  0   0 -1  0       0  1 -1  -1  1  0   0  1  0
                       1  0  0   0  0  1   0  1  0      -1  0  0   0  0 -1   0 -1  0
                       0  1 -1   0  0 -1   1  0 -1       0 -1  1   0  0  1  -1  0  1
                      -1  0  1  -1  1  0  -1  0  0       1  0 -1   1 -1  0   1  0  0
                       0 -1  0   1 -1  0   0 -1  1       0  1  0  -1  1  0   0  1 -1
                       1  0 -1   0  0 -1   0  1 -1      -1  0  1   0  0  1   0 -1  1
                       0  1  0   0  0  1   1  0  0       0 -1  0   0  0 -1  -1  0  0
                       1  0 -1   0  1 -1   0  0 -1      -1  0  1   0 -1  1   0  0  1
                       0 -1  0   0 -1  1   1 -1  0       0  1  0   0  1 -1  -1  1  0
                      -1  0  1  -1  0  0  -1  1  0       1  0 -1   1  0  0   1 -1  0
                       0  1  0   1  0  0   0  0  1       0 -1  0  -1  0  0   0  0 -1
                       0  0 -1   0  1 -1   1  0 -1       0  0  1   0 -1  1  -1  0  1
                       1 -1  0   0 -1  1   0 -1  0      -1  1  0   0  1 -1   0  1  0
                       0  0  1   1  0  0   0  1  0       0  0 -1  -1  0  0   0 -1  0
                      -1  1  0  -1  0  0  -1  0  1       1 -1  0   1  0  0   1  0 -1
                       0  0  1   0  1  0   1  0  0       0  0 -1   0 -1  0  -1  0  0
                       1 -1  0   0 -1  0   0 -1  1      -1  1  0   0  1  0   0  1 -1
                       0  0 -1   1  0 -1   0  1 -1       0  0  1  -1  0  1   0 -1  1
                      -1  1  0  -1  0  1  -1  0  0       1 -1  0   1  0 -1   1  0  0
           toldfe      1.00000000E-08 Hartree
           tsmear      5.00000000E-02 Hartree
            typat      1
              wtk        0.01563    0.12500    0.06250    0.09375    0.37500    0.18750
                         0.04688    0.09375
            znucl       13.00000

================================================================================

 chkinp: Checking input parameters for consistency.

================================================================================
== DATASET  1 ==================================================================
-   nproc =    1

 Exchange-correlation functional for the present dataset will be:
  LDA: Perdew-Wang 92 LSD fit to Ceperley-Alder data - ixc=7
 Citation for XC functional:
  J.P.Perdew and Y.Wang, PRB 45, 13244 (1992)

 SCREENING: Calculation of the susceptibility and dielectric matrices 

 Based on a program developped by R.W. Godby, V. Olevano, G. Onida, and L. Reining.
 Incorporated in ABINIT by V. Olevano, G.-M. Rignanese, and M. Torrent.
.Using double precision arithmetic ; gwpc =  8

 Real(R)+Recip(G) space primitive vectors, cartesian coordinates (Bohr,Bohr^-1):
 R(1)=  0.0000000  3.8260000  3.8260000  G(1)= -0.1306848  0.1306848  0.1306848
 R(2)=  3.8260000  0.0000000  3.8260000  G(2)=  0.1306848 -0.1306848  0.1306848
 R(3)=  3.8260000  3.8260000  0.0000000  G(3)=  0.1306848  0.1306848 -0.1306848
 Unit cell volume ucvol=  1.1201209E+02 bohr^3
 Angles (23,13,12)=  6.00000000E+01  6.00000000E+01  6.00000000E+01 degrees

--- Pseudopotential description ------------------------------------------------
- pspini: atom type   1  psp file is /home/gonze/ABINIT/ABINITv7.9.3/trunk/7.9.3-private/tests/Psps_for_tests/13al.981214.fhi
- pspatm: opening atomic psp file    /home/gonze/ABINIT/ABINITv7.9.3/trunk/7.9.3-private/tests/Psps_for_tests/13al.981214.fhi
- Aluminum, fhi98PP : Hamann-type, LDA CA PerdewWang, l=2 local
- 13.00000   3.00000    981214                znucl, zion, pspdat
    6    7    2    2       493   0.00000      pspcod,pspxc,lmax,lloc,mmax,r2well
  No XC core correction.
  1.024700          amesh (Hamman grid)
 pspatm: epsatm=    1.36305739
         --- l  ekb(1:nproj) -->
             0    1.768744
             1    0.900554
 pspatm: atomic psp has been read  and splines computed

   4.08917216E+00                                ecore*ucvol(ha*bohr**3)
--------------------------------------------------------------------------------

 ==== K-mesh for the wavefunctions ====
 Number of points in the irreducible wedge :     8
 Reduced coordinates and weights : 

     1)     0.00000000E+00  0.00000000E+00  0.00000000E+00       0.01563
     2)     2.50000000E-01  0.00000000E+00  0.00000000E+00       0.12500
     3)     5.00000000E-01  0.00000000E+00  0.00000000E+00       0.06250
     4)     2.50000000E-01  2.50000000E-01  0.00000000E+00       0.09375
     5)     5.00000000E-01  2.50000000E-01  0.00000000E+00       0.37500
     6)    -2.50000000E-01  2.50000000E-01  0.00000000E+00       0.18750
     7)     5.00000000E-01  5.00000000E-01  0.00000000E+00       0.04688
     8)    -2.50000000E-01  5.00000000E-01  2.50000000E-01       0.09375

 Together with 48 symmetry operations and time-reversal symmetry 
 yields    64 points in the full Brillouin Zone.


 ==== Q-mesh for the screening function ====
 Number of points in the irreducible wedge :     8
 Reduced coordinates and weights : 

     1)     0.00000000E+00  0.00000000E+00  0.00000000E+00       0.01563
     2)     2.50000000E-01  0.00000000E+00  0.00000000E+00       0.12500
     3)     5.00000000E-01  0.00000000E+00  0.00000000E+00       0.06250
     4)     2.50000000E-01  2.50000000E-01  0.00000000E+00       0.09375
     5)     5.00000000E-01  2.50000000E-01  0.00000000E+00       0.37500
     6)    -2.50000000E-01  2.50000000E-01  0.00000000E+00       0.18750
     7)     5.00000000E-01  5.00000000E-01  0.00000000E+00       0.04688
     8)    -2.50000000E-01  5.00000000E-01  2.50000000E-01       0.09375

 Together with 48 symmetry operations and time-reversal symmetry 
 yields    64 points in the full Brillouin Zone.


 setmesh: FFT mesh size selected  =   9x  9x  9
          total number of points  =      729


 k       eigenvalues [eV]
  1         -3.76  19.92  19.92  19.92  21.00  21.00  21.00  23.88  26.71  26.71
            29.15  31.73  31.73  31.73  38.00  60.59  60.59  60.59  63.51  63.51
            63.77  63.77  63.77  67.11  67.28  67.28  67.28  85.89  85.89  88.52

  2         -2.08  10.72  18.06  18.06  21.49  21.89  21.89  25.91  26.04  26.04
            31.63  37.67  39.40  39.40  44.61  47.79  47.79  51.58  63.24  63.24
            64.85  65.15  67.48  67.48  70.14  70.55  70.55  77.41  79.47  79.47

  3          2.78   2.92  18.41  18.41  18.77  18.77  22.18  22.53  32.20  32.20
            37.69  37.69  38.17  43.26  50.07  51.81  51.81  53.80  54.39  54.39
            58.45  59.03  65.67  65.67  67.47  68.68  71.46  71.46  73.76  73.76

  4         -1.52  14.71  14.71  14.83  15.49  18.03  28.77  28.93  28.93  33.47
            33.82  34.93  34.93  37.89  48.21  48.33  48.33  50.33  53.54  62.09
            63.95  66.65  66.65  68.09  68.17  68.17  69.76  80.67  80.72  80.72

  5          2.30   6.56  10.92  14.24  15.94  23.16  25.83  28.59  31.85  32.72
            38.44  39.65  41.91  44.66  45.38  48.18  50.49  51.18  53.26  55.40
            58.00  58.87  61.97  63.24  65.78  66.38  68.49  69.54  70.87  76.43

  6          0.68   8.56  10.00  16.64  18.62  24.28  24.64  25.80  28.18  32.64
            34.98  37.39  43.03  43.59  48.28  48.73  52.32  52.75  53.42  55.60
            58.41  60.23  61.72  63.08  65.18  69.51  70.14  70.23  77.94  78.27

  7          4.42   5.70  12.62  12.80  12.80  16.13  32.83  34.41  34.41  39.71
            39.79  39.79  40.39  42.30  47.98  47.98  48.33  48.33  48.84  49.36
            49.48  49.78  65.66  69.57  72.12  72.12  73.85  74.87  75.16  75.39

  8          6.49   6.49   7.54   8.26  23.04  23.04  23.32  25.45  34.65  39.48
            41.10  41.10  42.22  42.53  42.53  44.38  52.85  52.85  56.17  57.67
            59.27  59.57  59.83  60.28  60.38  60.38  62.85  62.85  75.52  76.87

 Number of electrons calculated from density =    2.9972; Expected =    3.0000
 average of density, n =  0.026758
 r_s =    2.0740
 omega_plasma =   15.7792 [eV]


 calculating chi0 at frequencies [eV] :
  1    0.000000E+00    0.000000E+00
  2    3.023487E+00    0.000000E+00
  3    6.046974E+00    0.000000E+00
  4    9.070461E+00    0.000000E+00
  5    1.209395E+01    0.000000E+00
  6    1.511744E+01    0.000000E+00
  7    1.814092E+01    0.000000E+00
  8    2.116441E+01    0.000000E+00
  9    2.418790E+01    0.000000E+00
 10    2.721138E+01    0.000000E+00
 11    0.000000E+00    3.897983E+00
 12    0.000000E+00    1.068477E+01
 13    0.000000E+00    2.250124E+01
 14    0.000000E+00    4.307492E+01


--------------------------------------------------------------------------------
  q-point number  1        q = ( 0.000000, 0.000000, 0.000000) [r.l.u.]
--------------------------------------------------------------------------------
  chi0(G,G') at the    1 th omega   0.0000   0.0000 [eV]
       1       2       3       4       5       6       7       8       9
    1  -0.000  -0.000   0.000   0.000  -0.000  -0.000   0.000   0.000  -0.000
        0.000   0.000   0.000   0.000   0.000  -0.000  -0.000  -0.000  -0.000

    2  -0.000  -8.128   0.259   0.794   0.382   0.794   0.382   0.794   0.382
       -0.000  -0.000   0.000   0.000  -0.000   0.000   0.000  -0.000   0.000

  chi0(G,G') at the    2 th omega   3.0235   0.0000 [eV]
       1       2       3       4       5       6       7       8       9
    1   0.000  -0.000   0.000   0.000  -0.000  -0.000   0.000   0.000  -0.000
       -0.000  -0.000   0.000   0.000  -0.000  -0.000   0.000   0.000  -0.000

    2  -0.000  -9.021   0.277   0.796   0.529   0.796   0.529   0.796   0.529
       -0.000  -0.357   0.033   0.076   0.010   0.076   0.010   0.076   0.010

  chi0(G,G') at the    3 th omega   6.0470   0.0000 [eV]
       1       2       3       4       5       6       7       8       9
    1   0.000  -0.000   0.000   0.000  -0.000  -0.000   0.000   0.000  -0.000
       -0.000  -0.000   0.000   0.000  -0.000  -0.000   0.000   0.000  -0.000

    2  -0.000  -7.285   0.326   0.681   0.297   0.681   0.297   0.681   0.296
       -0.000  -0.326   0.035   0.059   0.014   0.059   0.014   0.059   0.014

  chi0(G,G') at the    4 th omega   9.0705   0.0000 [eV]
       1       2       3       4       5       6       7       8       9
    1   0.000  -0.000   0.000   0.000  -0.000  -0.000   0.000   0.000  -0.000
       -0.000  -0.000   0.000   0.000  -0.000  -0.000   0.000   0.000  -0.000

    2  -0.000  -8.460   1.899   1.117  -1.146   1.117  -1.146   1.117  -1.146
       -0.000  -2.067  -0.001   0.386  -0.122   0.386  -0.122   0.386  -0.122

  chi0(G,G') at the    5 th omega  12.0939   0.0000 [eV]
       1       2       3       4       5       6       7       8       9
    1   0.000   0.000  -0.000  -0.000   0.000   0.000  -0.000  -0.000   0.000
       -0.000  -0.000   0.000   0.000  -0.000  -0.000   0.000   0.000  -0.000

    2   0.000   4.048   1.227  -3.723   0.210  -3.723   0.210  -3.724   0.210
       -0.000  -8.406  -0.689   2.579   0.234   2.579   0.234   2.579   0.234

  chi0(G,G') at the    6 th omega  15.1174   0.0000 [eV]
       1       2       3       4       5       6       7       8       9
    1   0.000   0.000  -0.000  -0.000   0.000   0.000  -0.000  -0.000   0.000
       -0.000  -0.000   0.000   0.000  -0.000  -0.000   0.000   0.000  -0.000

    2   0.000  -7.457   0.017   0.754   0.138   0.754   0.138   0.754   0.138
       -0.000  -2.475   0.924   0.403  -0.182   0.403  -0.182   0.403  -0.182

  chi0(G,G') at the    7 th omega  18.1409   0.0000 [eV]
       1       2       3       4       5       6       7       8       9
    1   0.000  -0.000   0.000   0.000  -0.000  -0.000   0.000   0.000  -0.000
       -0.000  -0.000   0.000   0.000  -0.000  -0.000   0.000   0.000  -0.000

    2  -0.000  -4.614   0.882   0.150  -0.385   0.150  -0.385   0.150  -0.385
       -0.000  -1.053   0.256   0.118  -0.179   0.118  -0.179   0.118  -0.179

  chi0(G,G') at the    8 th omega  21.1644   0.0000 [eV]
       1       2       3       4       5       6       7       8       9
    1   0.000   0.000  -0.000  -0.000   0.000   0.000  -0.000  -0.000   0.000
       -0.000  -0.000   0.000   0.000  -0.000  -0.000   0.000   0.000  -0.000

    2   0.000   5.057  -1.325  -1.995   0.951  -1.995   0.951  -1.995   0.951
       -0.000  -2.864   0.769   0.320  -0.154   0.320  -0.154   0.320  -0.154

  chi0(G,G') at the    9 th omega  24.1879   0.0000 [eV]
       1       2       3       4       5       6       7       8       9
    1   0.000   0.000  -0.000  -0.000   0.000   0.000  -0.000  -0.000   0.000
       -0.000  -0.000   0.000   0.000  -0.000  -0.000   0.000   0.000  -0.000

    2   0.000   6.060  -2.950  -2.197   0.127  -2.197   0.127  -2.197   0.126
       -0.000  -4.252   2.721   0.590  -0.213   0.590  -0.213   0.590  -0.213

  chi0(G,G') at the   10 th omega  27.2114   0.0000 [eV]
       1       2       3       4       5       6       7       8       9
    1   0.000   0.000  -0.000  -0.000   0.000   0.000  -0.000  -0.000   0.000
       -0.000   0.000  -0.000  -0.000   0.000   0.000  -0.000  -0.000   0.000

    2   0.000  -4.718  -3.528  -0.757  -0.981  -0.757  -0.981  -0.757  -0.981
        0.000  -2.224  -0.730  -0.262  -0.032  -0.262  -0.032  -0.262  -0.032

  chi0(G,G') at the   11 th omega   0.0000   3.8980 [eV]
       1       2       3       4       5       6       7       8       9
    1  -0.000  -0.000   0.000   0.000  -0.000  -0.000   0.000   0.000  -0.000
        0.000  -0.000  -0.000  -0.000  -0.000  -0.000  -0.000  -0.000  -0.000

    2  -0.000  -6.576   0.161   0.472   0.321   0.472   0.321   0.472   0.321
       -0.000  -0.000   0.000   0.000  -0.000   0.000   0.000   0.000   0.000

  chi0(G,G') at the   12 th omega   0.0000  10.6848 [eV]
       1       2       3       4       5       6       7       8       9
    1  -0.000  -0.000   0.000   0.000  -0.000  -0.000   0.000   0.000  -0.000
       -0.000  -0.000  -0.000  -0.000  -0.000  -0.000  -0.000  -0.000  -0.000

    2  -0.000  -4.637   0.117   0.231   0.176   0.231   0.176   0.231   0.176
       -0.000  -0.000   0.000  -0.000  -0.000   0.000   0.000   0.000   0.000

  chi0(G,G') at the   13 th omega   0.0000  22.5012 [eV]
       1       2       3       4       5       6       7       8       9
    1  -0.000  -0.000   0.000   0.000  -0.000  -0.000   0.000   0.000  -0.000
        0.000  -0.000  -0.000  -0.000  -0.000  -0.000  -0.000  -0.000  -0.000

    2  -0.000  -2.775   0.042   0.062   0.081   0.062   0.081   0.062   0.081
       -0.000  -0.000   0.000  -0.000  -0.000   0.000   0.000   0.000   0.000

  chi0(G,G') at the   14 th omega   0.0000  43.0749 [eV]
       1       2       3       4       5       6       7       8       9
    1  -0.000  -0.000   0.000   0.000  -0.000  -0.000   0.000   0.000  -0.000
        0.000  -0.000  -0.000   0.000   0.000  -0.000  -0.000  -0.000  -0.000

    2  -0.000  -1.356  -0.002  -0.004   0.034  -0.004   0.034  -0.004   0.033
       -0.000  -0.000   0.000  -0.000  -0.000   0.000   0.000   0.000  -0.000

 For q-point:  0.000010 0.000020 0.000030
  dielectric constant =  69.0659
  dielectric constant without local fields =  71.2321

  Average fulfillment of the sum rule on Im[epsilon] for q-point    1 :     86.16  [%]
  Heads and wings of the symmetrical epsilon^-1(G,G') 

   Upper and lower wings at the    1 th omega   0.0000   0.0000 [eV]
       1       2       3       4       5       6       7       8       9
      0.014  -0.001   0.001   0.002  -0.002  -0.002   0.002   0.001  -0.001
      0.000  -0.000  -0.000   0.000   0.000  -0.000  -0.000   0.000   0.000
       1       2       3       4       5       6       7       8       9
      0.014  -0.001   0.001   0.002  -0.002  -0.002   0.002   0.001  -0.001
      0.000   0.000   0.000  -0.000  -0.000   0.000   0.000  -0.000  -0.000


   Upper and lower wings at the    2 th omega   3.0235   0.0000 [eV]
       1       2       3       4       5       6       7       8       9
     -0.072   0.000  -0.000  -0.000   0.000   0.000  -0.000  -0.000   0.000
     -0.010   0.000  -0.000  -0.001   0.001   0.001  -0.001  -0.000   0.000
       1       2       3       4       5       6       7       8       9
     -0.072   0.000  -0.000  -0.000   0.000   0.000  -0.000  -0.000   0.000
     -0.010   0.000  -0.000  -0.001   0.001   0.001  -0.001  -0.000   0.000


   Upper and lower wings at the    3 th omega   6.0470   0.0000 [eV]
       1       2       3       4       5       6       7       8       9
     -0.497   0.000  -0.000  -0.001   0.001   0.001  -0.001  -0.000   0.000
     -0.069   0.001  -0.001  -0.002   0.002   0.002  -0.002  -0.001   0.001
       1       2       3       4       5       6       7       8       9
     -0.497   0.000  -0.000  -0.001   0.001   0.001  -0.001  -0.000   0.000
     -0.069   0.001  -0.001  -0.002   0.002   0.002  -0.002  -0.001   0.001


   Upper and lower wings at the    4 th omega   9.0705   0.0000 [eV]
       1       2       3       4       5       6       7       8       9
     -1.815   0.011  -0.011  -0.033   0.033   0.033  -0.033  -0.011   0.011
     -0.979   0.010  -0.010  -0.030   0.030   0.030  -0.030  -0.010   0.010
       1       2       3       4       5       6       7       8       9
     -1.815   0.011  -0.011  -0.033   0.033   0.033  -0.033  -0.011   0.011
     -0.979   0.010  -0.010  -0.030   0.030   0.030  -0.030  -0.010   0.010


   Upper and lower wings at the    5 th omega  12.0939   0.0000 [eV]
       1       2       3       4       5       6       7       8       9
      4.020  -0.021   0.021   0.063  -0.062  -0.062   0.063   0.021  -0.021
     -1.759  -0.099   0.099   0.297  -0.297  -0.297   0.297   0.099  -0.099
       1       2       3       4       5       6       7       8       9
      4.020  -0.021   0.021   0.063  -0.062  -0.062   0.063   0.021  -0.021
     -1.759  -0.099   0.099   0.297  -0.297  -0.297   0.297   0.099  -0.099


   Upper and lower wings at the    6 th omega  15.1174   0.0000 [eV]
       1       2       3       4       5       6       7       8       9
      1.873   0.001  -0.001  -0.003   0.003   0.003  -0.003  -0.001   0.001
     -0.426  -0.019   0.019   0.056  -0.056  -0.056   0.056   0.019  -0.019
       1       2       3       4       5       6       7       8       9
      1.873   0.001  -0.001  -0.003   0.003   0.003  -0.003  -0.001   0.001
     -0.426  -0.019   0.019   0.056  -0.056  -0.056   0.056   0.019  -0.019


   Upper and lower wings at the    7 th omega  18.1409   0.0000 [eV]
       1       2       3       4       5       6       7       8       9
      1.571  -0.009   0.009   0.026  -0.026  -0.026   0.026   0.009  -0.009
     -0.197  -0.001   0.001   0.002  -0.002  -0.002   0.002   0.001  -0.001
       1       2       3       4       5       6       7       8       9
      1.571  -0.009   0.009   0.026  -0.026  -0.026   0.026   0.009  -0.009
     -0.197  -0.001   0.001   0.002  -0.002  -0.002   0.002   0.001  -0.001


   Upper and lower wings at the    8 th omega  21.1644   0.0000 [eV]
       1       2       3       4       5       6       7       8       9
      1.377   0.014  -0.014  -0.042   0.042   0.042  -0.042  -0.014   0.014
     -0.056  -0.016   0.016   0.048  -0.048  -0.048   0.048   0.016  -0.016
       1       2       3       4       5       6       7       8       9
      1.377   0.014  -0.014  -0.042   0.042   0.042  -0.042  -0.014   0.014
     -0.056  -0.016   0.016   0.048  -0.048  -0.048   0.048   0.016  -0.016


   Upper and lower wings at the    9 th omega  24.1879   0.0000 [eV]
       1       2       3       4       5       6       7       8       9
      1.258   0.002  -0.002  -0.005   0.005   0.005  -0.005  -0.002   0.002
     -0.060  -0.029   0.029   0.087  -0.087  -0.087   0.087   0.029  -0.029
       1       2       3       4       5       6       7       8       9
      1.258   0.002  -0.002  -0.005   0.005   0.005  -0.005  -0.002   0.002
     -0.060  -0.029   0.029   0.087  -0.087  -0.087   0.087   0.029  -0.029


   Upper and lower wings at the   10 th omega  27.2114   0.0000 [eV]
       1       2       3       4       5       6       7       8       9
      1.182   0.003  -0.003  -0.009   0.009   0.009  -0.009  -0.003   0.003
     -0.019   0.000  -0.000  -0.000   0.000   0.000  -0.000  -0.000   0.000
       1       2       3       4       5       6       7       8       9
      1.182   0.003  -0.003  -0.009   0.009   0.009  -0.009  -0.003   0.003
     -0.019   0.000  -0.000  -0.000   0.000   0.000  -0.000  -0.000   0.000


   Upper and lower wings at the   11 th omega   0.0000   3.8980 [eV]
       1       2       3       4       5       6       7       8       9
      0.137  -0.002   0.002   0.005  -0.005  -0.005   0.005   0.002  -0.002
      0.000  -0.000  -0.000  -0.000  -0.000  -0.000  -0.000  -0.000  -0.000
       1       2       3       4       5       6       7       8       9
      0.137  -0.002   0.002   0.005  -0.005  -0.005   0.005   0.002  -0.002
      0.000  -0.000  -0.000  -0.000  -0.000  -0.000  -0.000  -0.000  -0.000


   Upper and lower wings at the   12 th omega   0.0000  10.6848 [eV]
       1       2       3       4       5       6       7       8       9
      0.511  -0.002   0.002   0.007  -0.007  -0.007   0.007   0.002  -0.002
     -0.000  -0.000  -0.000  -0.000  -0.000  -0.000  -0.000  -0.000  -0.000
       1       2       3       4       5       6       7       8       9
      0.511  -0.002   0.002   0.007  -0.007  -0.007   0.007   0.002  -0.002
     -0.000  -0.000  -0.000  -0.000  -0.000  -0.000  -0.000  -0.000  -0.000


   Upper and lower wings at the   13 th omega   0.0000  22.5012 [eV]
       1       2       3       4       5       6       7       8       9
      0.816  -0.002   0.002   0.005  -0.005  -0.005   0.005   0.002  -0.002
      0.000  -0.000  -0.000  -0.000  -0.000  -0.000  -0.000  -0.000  -0.000
       1       2       3       4       5       6       7       8       9
      0.816  -0.002   0.002   0.005  -0.005  -0.005   0.005   0.002  -0.002
      0.000  -0.000  -0.000  -0.000  -0.000  -0.000  -0.000  -0.000  -0.000


   Upper and lower wings at the   14 th omega   0.0000  43.0749 [eV]
       1       2       3       4       5       6       7       8       9
      0.941  -0.001   0.001   0.002  -0.002  -0.002   0.002   0.001  -0.001
      0.000  -0.000  -0.000   0.000   0.000  -0.000  -0.000  -0.000  -0.000
       1       2       3       4       5       6       7       8       9
      0.941  -0.001   0.001   0.002  -0.002  -0.002   0.002   0.001  -0.001
      0.000  -0.000  -0.000   0.000   0.000  -0.000  -0.000  -0.000  -0.000




--------------------------------------------------------------------------------
  q-point number  2        q = ( 0.250000, 0.000000, 0.000000) [r.l.u.]
--------------------------------------------------------------------------------
  chi0(G,G') at the    1 th omega   0.0000   0.0000 [eV]
       1       2       3       4       5       6       7       8       9
    1 -11.203  -0.182  -0.213  -0.189  -0.178  -0.189  -0.178  -0.189  -0.178
       -0.000   0.000   0.000   0.000   0.000   0.000   0.000  -0.000   0.000

    2  -0.182  -6.000   0.143   0.569   0.461   0.569   0.461   0.569   0.457
       -0.000  -0.000   0.000   0.000  -0.000   0.000  -0.000   0.000  -0.000

  chi0(G,G') at the    2 th omega   3.0235   0.0000 [eV]
       1       2       3       4       5       6       7       8       9
    1 -11.486  -0.296  -0.126   0.446   0.375   0.446   0.375   0.446   0.375
       -2.170  -0.017   0.089   0.013  -0.014   0.013  -0.014   0.013  -0.014

    2  -0.296  -6.396   0.353   0.721  -0.079   0.721  -0.079   0.721  -0.083
       -0.017  -0.429   0.012   0.091  -0.021   0.091  -0.021   0.091  -0.021

  chi0(G,G') at the    3 th omega   6.0470   0.0000 [eV]
       1       2       3       4       5       6       7       8       9
    1   0.635   1.160   0.947  -0.306  -0.333  -0.306  -0.333  -0.306  -0.333
      -18.228  -1.452  -2.973  -0.575  -0.475  -0.575  -0.475  -0.575  -0.475

    2   1.160  -5.193  -1.268   0.175   0.903   0.175   0.903   0.174   0.900
       -1.452  -1.750   1.900   0.700  -0.620   0.700  -0.620   0.700  -0.620

  chi0(G,G') at the    4 th omega   9.0705   0.0000 [eV]
       1       2       3       4       5       6       7       8       9
    1   4.212   0.062  -0.337  -0.078   0.172  -0.078   0.172  -0.078   0.172
       -1.183   0.046  -0.066   0.029  -0.029   0.029  -0.029   0.029  -0.029

    2   0.062  -5.587   2.695  -0.256   0.907  -0.256   0.907  -0.257   0.904
        0.046  -0.726   0.392  -0.007   0.156  -0.007   0.156  -0.007   0.156

  chi0(G,G') at the    5 th omega  12.0939   0.0000 [eV]
       1       2       3       4       5       6       7       8       9
    1   2.905  -0.036   0.176   0.111   0.018   0.111   0.018   0.111   0.018
       -0.253   0.154  -0.180  -0.102   0.011  -0.102   0.011  -0.102   0.011

    2  -0.036 -10.347  -1.250   1.616   0.847   1.616   0.847   1.616   0.843
        0.154  -5.843   1.595   1.541   1.063   1.541   1.063   1.541   1.063

  chi0(G,G') at the    6 th omega  15.1174   0.0000 [eV]
       1       2       3       4       5       6       7       8       9
    1   1.382   0.147  -0.128   0.102   0.097   0.102   0.097   0.102   0.097
       -0.073   0.062  -0.101  -0.000   0.003  -0.000   0.003  -0.000   0.003

    2   0.147  -6.253   1.769  -0.198  -0.463  -0.198  -0.463  -0.198  -0.466
        0.062  -0.616   0.739  -0.046   0.059  -0.046   0.059  -0.046   0.059

  chi0(G,G') at the    7 th omega  18.1409   0.0000 [eV]
       1       2       3       4       5       6       7       8       9
    1   0.922  -0.106   0.137   0.052   0.029   0.052   0.029   0.052   0.029
       -0.061   0.027   0.019  -0.020  -0.005  -0.020  -0.005  -0.020  -0.005

    2  -0.106  -2.230   1.263  -0.829   0.763  -0.829   0.763  -0.830   0.759
        0.027  -0.973   0.167   0.182  -0.003   0.182  -0.003   0.182  -0.003

  chi0(G,G') at the    8 th omega  21.1644   0.0000 [eV]
       1       2       3       4       5       6       7       8       9
    1   0.640   0.029   0.056  -0.056  -0.070  -0.056  -0.070  -0.056  -0.070
       -0.037  -0.040  -0.065   0.062   0.069   0.062   0.069   0.062   0.069

    2   0.029  -3.892  -2.218   1.325  -0.219   1.325  -0.219   1.325  -0.223
       -0.040  -1.342   0.463   0.008   0.355   0.007   0.355   0.007   0.355

  chi0(G,G') at the    9 th omega  24.1879   0.0000 [eV]
       1       2       3       4       5       6       7       8       9
    1   0.455   0.062   0.166   0.027   0.095   0.027   0.095   0.027   0.095
       -0.025   0.079   0.044  -0.002   0.043  -0.002   0.043  -0.002   0.043

    2   0.062  -2.214  -3.326   0.070  -0.912   0.071  -0.911   0.070  -0.915
        0.079  -1.561  -0.055   0.296  -0.116   0.296  -0.116   0.296  -0.116

  chi0(G,G') at the   10 th omega  27.2114   0.0000 [eV]
       1       2       3       4       5       6       7       8       9
    1   0.362   0.058  -0.015   0.054  -0.019   0.054  -0.019   0.054  -0.019
       -0.032   0.010  -0.065   0.104   0.007   0.104   0.007   0.104   0.007

    2   0.058  -6.480   0.234   1.269  -0.105   1.269  -0.105   1.269  -0.109
        0.010  -1.574   0.067   0.465  -0.045   0.465  -0.045   0.465  -0.045

  chi0(G,G') at the   11 th omega   0.0000   3.8980 [eV]
       1       2       3       4       5       6       7       8       9
    1  -5.021   0.006  -0.196  -0.110  -0.056  -0.110  -0.056  -0.110  -0.056
        0.000   0.000   0.000   0.000  -0.000  -0.000  -0.000  -0.000   0.000

    2   0.006  -5.059   0.136   0.417   0.289   0.417   0.289   0.417   0.285
       -0.000  -0.000   0.000   0.000  -0.000   0.000  -0.000   0.000  -0.000

  chi0(G,G') at the   12 th omega   0.0000  10.6848 [eV]
       1       2       3       4       5       6       7       8       9
    1  -1.615   0.040  -0.111  -0.041   0.002  -0.041   0.002  -0.041   0.002
        0.000   0.000   0.000   0.000  -0.000  -0.000  -0.000   0.000   0.000

    2   0.040  -3.905   0.102   0.229   0.190   0.229   0.190   0.229   0.187
       -0.000  -0.000   0.000   0.000  -0.000   0.000  -0.000   0.000  -0.000

  chi0(G,G') at the   13 th omega   0.0000  22.5012 [eV]
       1       2       3       4       5       6       7       8       9
    1  -0.464   0.029  -0.041  -0.012   0.010  -0.012   0.010  -0.012   0.010
        0.000   0.000   0.000   0.000  -0.000  -0.000  -0.000   0.000   0.000

    2   0.029  -2.646   0.036   0.082   0.105   0.082   0.105   0.082   0.102
       -0.000  -0.000   0.000   0.000  -0.000   0.000  -0.000  -0.000  -0.000

  chi0(G,G') at the   14 th omega   0.0000  43.0749 [eV]
       1       2       3       4       5       6       7       8       9
    1  -0.137   0.015  -0.013  -0.003   0.007  -0.003   0.007  -0.003   0.007
        0.000   0.000  -0.000   0.000  -0.000   0.000   0.000   0.000   0.000

    2   0.015  -1.484  -0.002   0.012   0.052   0.012   0.052   0.012   0.050
       -0.000  -0.000   0.000   0.000  -0.000   0.000  -0.000   0.000  -0.000

  Average fulfillment of the sum rule on Im[epsilon] for q-point    2 :     92.93  [%]


--------------------------------------------------------------------------------
  q-point number  3        q = ( 0.500000, 0.000000, 0.000000) [r.l.u.]
--------------------------------------------------------------------------------
  chi0(G,G') at the    1 th omega   0.0000   0.0000 [eV]
       1       2       3       4       5       6       7       8       9
    1 -10.196  -0.151  -0.193  -0.214  -0.150  -0.214  -0.150  -0.214  -0.150
        0.000   0.000   0.000   0.000  -0.000   0.000   0.000  -0.000   0.000

    2  -0.151  -3.133   0.110   0.376   0.227   0.377   0.227   0.376   0.221
       -0.000  -0.000   0.000  -0.000  -0.000   0.000  -0.000   0.000  -0.000

  chi0(G,G') at the    2 th omega   3.0235   0.0000 [eV]
       1       2       3       4       5       6       7       8       9
    1 -10.690  -0.103  -0.434  -0.556  -0.259  -0.556  -0.259  -0.556  -0.259
       -1.586  -0.061   0.582   0.138  -0.044   0.138  -0.044   0.138  -0.044

    2  -0.103  -3.218  -0.073   0.318   0.260   0.318   0.261   0.317   0.255
       -0.061  -0.028   0.049   0.032   0.006   0.032   0.006   0.032   0.006

  chi0(G,G') at the    3 th omega   6.0470   0.0000 [eV]
       1       2       3       4       5       6       7       8       9
    1  -5.262   0.088  -0.237   0.051  -0.167   0.051  -0.167   0.051  -0.167
       -3.218  -0.170   0.099  -0.032  -0.129  -0.032  -0.129  -0.032  -0.129

    2   0.088  -4.116  -0.329   0.303   0.690   0.303   0.690   0.303   0.685
       -0.170  -0.932  -0.740   0.187   0.378   0.187   0.378   0.187   0.378

  chi0(G,G') at the    4 th omega   9.0705   0.0000 [eV]
       1       2       3       4       5       6       7       8       9
    1  -5.437  -0.137  -1.737  -0.080  -0.025  -0.080  -0.025  -0.080  -0.025
       -6.175  -0.492  -2.654   0.734   0.415   0.734   0.415   0.734   0.415

    2  -0.137  -3.805   0.524   0.609   0.316   0.609   0.316   0.609   0.311
       -0.492  -0.215  -0.229   0.252   0.107   0.252   0.107   0.252   0.107

  chi0(G,G') at the    5 th omega  12.0939   0.0000 [eV]
       1       2       3       4       5       6       7       8       9
    1   7.294   0.124   0.627   0.158   0.084   0.158   0.084   0.158   0.084
      -14.364  -0.493  -1.510  -0.555  -0.611  -0.555  -0.611  -0.555  -0.611

    2   0.124  -2.438   0.806  -0.228  -0.008  -0.228  -0.008  -0.229  -0.014
       -0.493  -0.765   0.069   0.073   0.090   0.073   0.090   0.073   0.090

  chi0(G,G') at the    6 th omega  15.1174   0.0000 [eV]
       1       2       3       4       5       6       7       8       9
    1   3.485   0.410  -0.014  -0.119   0.236  -0.119   0.236  -0.119   0.236
       -2.039   0.012  -0.226  -0.266   0.007  -0.266   0.007  -0.266   0.007

    2   0.410  -1.945  -0.724   1.228  -0.035   1.228  -0.035   1.228  -0.041
        0.012  -1.134   0.453  -0.375   0.140  -0.375   0.140  -0.375   0.140

  chi0(G,G') at the    7 th omega  18.1409   0.0000 [eV]
       1       2       3       4       5       6       7       8       9
    1   4.581   1.896  -1.683  -0.417   0.469  -0.417   0.469  -0.417   0.469
       -8.614   0.391  -1.592   0.063  -1.405   0.063  -1.405   0.063  -1.405

    2   1.896  -3.199   2.312   0.182  -0.233   0.182  -0.233   0.182  -0.239
        0.391  -6.986   6.212   3.808  -0.483   3.808  -0.483   3.808  -0.483

  chi0(G,G') at the    8 th omega  21.1644   0.0000 [eV]
       1       2       3       4       5       6       7       8       9
    1   5.262  -0.070   0.068  -0.109  -0.017  -0.109  -0.017  -0.109  -0.017
       -1.043   0.280  -0.247   0.341  -0.234   0.341  -0.234   0.341  -0.234

    2  -0.070  -2.858  -1.400   0.429  -0.479   0.430  -0.479   0.429  -0.485
        0.280  -0.806   0.401  -0.314   0.496  -0.314   0.496  -0.314   0.496

  chi0(G,G') at the    9 th omega  24.1879   0.0000 [eV]
       1       2       3       4       5       6       7       8       9
    1   2.082  -0.061   0.132   0.089   0.140   0.089   0.140   0.089   0.140
       -0.170   0.024  -0.011   0.004   0.017   0.004   0.017   0.004   0.017

    2  -0.061  -0.635  -0.380  -1.270  -0.005  -1.270  -0.005  -1.270  -0.011
        0.024  -0.903   0.023   0.298   0.011   0.298   0.011   0.298   0.011

  chi0(G,G') at the   10 th omega  27.2114   0.0000 [eV]
       1       2       3       4       5       6       7       8       9
    1   2.164   0.116   0.090   0.027   0.133   0.027   0.133   0.027   0.133
       -0.141   0.026  -0.004  -0.021   0.073  -0.021   0.073  -0.021   0.073

    2   0.116  -3.290  -0.168   0.074   0.126   0.074   0.127   0.074   0.120
        0.026  -0.615   0.001   0.409  -0.264   0.409  -0.264   0.409  -0.264

  chi0(G,G') at the   11 th omega   0.0000   3.8980 [eV]
       1       2       3       4       5       6       7       8       9
    1  -7.106  -0.055  -0.221  -0.140  -0.093  -0.140  -0.093  -0.140  -0.093
       -0.000   0.000   0.000  -0.000  -0.000   0.000   0.000  -0.000   0.000

    2  -0.055  -3.001   0.104   0.307   0.194   0.307   0.194   0.306   0.189
       -0.000  -0.000   0.000  -0.000  -0.000   0.000  -0.000  -0.000  -0.000

  chi0(G,G') at the   12 th omega   0.0000  10.6848 [eV]
       1       2       3       4       5       6       7       8       9
    1  -3.649   0.020  -0.155  -0.070  -0.032  -0.070  -0.032  -0.070  -0.032
       -0.000   0.000   0.000   0.000  -0.000  -0.000   0.000   0.000  -0.000

    2   0.020  -2.609   0.072   0.197   0.143   0.197   0.143   0.197   0.138
       -0.000  -0.000   0.000  -0.000  -0.000   0.000  -0.000  -0.000  -0.000

  chi0(G,G') at the   13 th omega   0.0000  22.5012 [eV]
       1       2       3       4       5       6       7       8       9
    1  -1.459   0.035  -0.060  -0.021   0.005  -0.021   0.005  -0.021   0.005
       -0.000   0.000   0.000  -0.000  -0.000  -0.000   0.000   0.000  -0.000

    2   0.035  -1.975   0.023   0.091   0.092   0.091   0.092   0.090   0.087
       -0.000  -0.000   0.000  -0.000  -0.000   0.000  -0.000  -0.000  -0.000

  chi0(G,G') at the   14 th omega   0.0000  43.0749 [eV]
       1       2       3       4       5       6       7       8       9
    1  -0.500   0.024  -0.017  -0.003   0.012  -0.003   0.012  -0.003   0.012
       -0.000   0.000  -0.000   0.000  -0.000  -0.000   0.000   0.000  -0.000

    2   0.024  -1.225  -0.002   0.028   0.051   0.028   0.051   0.028   0.047
       -0.000  -0.000   0.000  -0.000  -0.000   0.000  -0.000  -0.000  -0.000

  Average fulfillment of the sum rule on Im[epsilon] for q-point    3 :     90.56  [%]


--------------------------------------------------------------------------------
  q-point number  4        q = ( 0.250000, 0.250000, 0.000000) [r.l.u.]
--------------------------------------------------------------------------------
  chi0(G,G') at the    1 th omega   0.0000   0.0000 [eV]
       1       2       3       4       5       6       7       8       9
    1 -10.021  -0.152  -0.181  -0.181  -0.152  -0.181  -0.152  -0.152  -0.181
        0.000   0.000   0.000   0.000  -0.000   0.000  -0.000   0.000   0.000

    2  -0.152  -6.402   0.164   0.605   0.406   0.605   0.406   0.497   0.433
       -0.000  -0.000   0.000   0.000  -0.000   0.000  -0.000  -0.000  -0.000

  chi0(G,G') at the    2 th omega   3.0235   0.0000 [eV]
       1       2       3       4       5       6       7       8       9
    1  -7.354  -0.368   0.001   0.001  -0.368   0.001  -0.368  -0.368   0.001
       -1.218   0.004  -0.049  -0.049   0.004  -0.049   0.004   0.004  -0.049

    2  -0.368  -6.901  -0.008   0.927   0.149   0.927   0.149   0.646   0.999
        0.004  -0.322  -0.020   0.083  -0.027   0.083  -0.027   0.077   0.153

  chi0(G,G') at the    3 th omega   6.0470   0.0000 [eV]
       1       2       3       4       5       6       7       8       9
    1  -6.166  -0.222  -0.224  -0.224  -0.222  -0.224  -0.222  -0.222  -0.224
       -9.365  -0.275  -0.404  -0.404  -0.275  -0.404  -0.275  -0.275  -0.404

    2  -0.222  -6.534  -0.054   0.427   1.347   0.427   1.347  -0.149  -0.564
       -0.275  -1.329   0.257  -0.407   0.748  -0.407   0.748  -0.545   0.849

  chi0(G,G') at the    4 th omega   9.0705   0.0000 [eV]
       1       2       3       4       5       6       7       8       9
    1   3.733   0.405  -0.444  -0.444   0.405  -0.444   0.405   0.405  -0.444
       -5.654   0.732  -1.081  -1.081   0.732  -1.081   0.732   0.732  -1.081

    2   0.405  -5.685  -0.550   0.113   0.519   0.113   0.519   0.289   0.680
        0.732  -3.571   1.319   1.073   0.421   1.073   0.421   1.044  -1.844

  chi0(G,G') at the    5 th omega  12.0939   0.0000 [eV]
       1       2       3       4       5       6       7       8       9
    1   2.751   0.016   0.060   0.060   0.016   0.060   0.016   0.016   0.060
       -4.211  -0.010  -0.494  -0.494  -0.010  -0.494  -0.010  -0.010  -0.494

    2   0.016  -3.384   1.996  -1.961   0.016  -1.961   0.016  -0.125  -0.374
       -0.010  -5.602   1.857   0.435   1.295   0.435   1.295   0.036  -0.704

  chi0(G,G') at the    6 th omega  15.1174   0.0000 [eV]
       1       2       3       4       5       6       7       8       9
    1   2.380   0.104  -0.023  -0.023   0.104  -0.023   0.104   0.104  -0.023
       -0.295   0.022   0.069   0.069   0.022   0.069   0.022   0.022   0.069

    2   0.104  -5.503   0.113   1.265  -0.106   1.265  -0.106   0.951  -0.728
        0.022  -1.878  -0.016   0.477   0.121   0.477   0.121   0.746   0.015

  chi0(G,G') at the    7 th omega  18.1409   0.0000 [eV]
       1       2       3       4       5       6       7       8       9
    1   1.286  -0.040   0.189   0.189  -0.040   0.189  -0.040  -0.040   0.189
       -0.053  -0.054   0.072   0.072  -0.054   0.072  -0.054  -0.054   0.072

    2  -0.040  -2.728   0.913  -1.541   0.693  -1.541   0.693  -0.883   0.174
       -0.054  -4.907   1.255   3.276  -0.439   3.276  -0.439  -0.432   1.726

  chi0(G,G') at the    8 th omega  21.1644   0.0000 [eV]
       1       2       3       4       5       6       7       8       9
    1   0.887  -0.026  -0.062  -0.062  -0.026  -0.062  -0.026  -0.026  -0.062
       -0.030   0.013  -0.001  -0.001   0.013  -0.001   0.013   0.013  -0.001

    2  -0.026  -1.570  -2.039  -0.205   0.400  -0.205   0.400   0.675   2.432
        0.013  -4.010  -0.352   0.210   0.116   0.210   0.116   1.896   0.451

  chi0(G,G') at the    9 th omega  24.1879   0.0000 [eV]
       1       2       3       4       5       6       7       8       9
    1   0.631   0.016   0.090   0.090   0.016   0.090   0.016   0.016   0.090
       -0.022   0.024  -0.023  -0.023   0.024  -0.023   0.024   0.024  -0.023

    2   0.016  -1.157  -0.609  -1.042   0.094  -1.042   0.093  -0.624  -0.421
        0.024  -1.098   0.249   0.288  -0.042   0.288  -0.042   0.071   0.036

  chi0(G,G') at the   10 th omega  27.2114   0.0000 [eV]
       1       2       3       4       5       6       7       8       9
    1   0.509   0.036   0.018   0.018   0.036   0.018   0.036   0.036   0.018
       -0.013   0.007  -0.006  -0.006   0.007  -0.006   0.007   0.007  -0.006

    2   0.036  -3.552   0.299  -1.131   0.340  -1.131   0.340   0.429  -0.370
        0.007  -2.371   1.766  -0.618   0.571  -0.618   0.571   0.757  -0.306

  chi0(G,G') at the   11 th omega   0.0000   3.8980 [eV]
       1       2       3       4       5       6       7       8       9
    1  -5.515  -0.044  -0.146  -0.146  -0.044  -0.146  -0.044  -0.044  -0.146
       -0.000   0.000   0.000   0.000  -0.000  -0.000  -0.000   0.000   0.000

    2  -0.044  -5.481   0.146   0.432   0.283   0.432   0.283   0.394   0.358
       -0.000  -0.000   0.000  -0.000  -0.000   0.000  -0.000  -0.000  -0.000

  chi0(G,G') at the   12 th omega   0.0000  10.6848 [eV]
       1       2       3       4       5       6       7       8       9
    1  -1.975   0.013  -0.070  -0.070   0.013  -0.070   0.013   0.013  -0.070
       -0.000   0.000   0.000   0.000  -0.000  -0.000  -0.000   0.000  -0.000

    2   0.013  -4.155   0.110   0.222   0.185   0.222   0.185   0.240   0.182
       -0.000  -0.000   0.000  -0.000  -0.000   0.000  -0.000  -0.000  -0.000

  chi0(G,G') at the   13 th omega   0.0000  22.5012 [eV]
       1       2       3       4       5       6       7       8       9
    1  -0.601   0.018  -0.024  -0.024   0.018  -0.024   0.018   0.018  -0.024
       -0.000   0.000  -0.000   0.000  -0.000  -0.000  -0.000   0.000  -0.000

    2   0.018  -2.741   0.041   0.065   0.101   0.065   0.101   0.103   0.090
       -0.000  -0.000   0.000   0.000  -0.000   0.000  -0.000   0.000  -0.000

  chi0(G,G') at the   14 th omega   0.0000  43.0749 [eV]
       1       2       3       4       5       6       7       8       9
    1  -0.180   0.011  -0.007  -0.007   0.011  -0.007   0.011   0.011  -0.007
       -0.000   0.000  -0.000  -0.000  -0.000  -0.000  -0.000   0.000  -0.000

    2   0.011  -1.495  -0.002   0.001   0.050   0.001   0.050   0.026   0.040
       -0.000  -0.000   0.000   0.000  -0.000   0.000  -0.000   0.000  -0.000

  Average fulfillment of the sum rule on Im[epsilon] for q-point    4 :     92.27  [%]


--------------------------------------------------------------------------------
  q-point number  5        q = ( 0.500000, 0.250000, 0.000000) [r.l.u.]
--------------------------------------------------------------------------------
  chi0(G,G') at the    1 th omega   0.0000   0.0000 [eV]
       1       2       3       4       5       6       7       8       9
    1 -10.642  -0.170  -0.205  -0.193  -0.174  -0.193  -0.174  -0.183  -0.190
       -0.000   0.000   0.000  -0.000  -0.000  -0.000  -0.000   0.000   0.000

    2  -0.170  -3.797   0.113   0.445   0.242   0.445   0.242   0.374   0.376
       -0.000  -0.000  -0.000  -0.000  -0.000   0.000  -0.000  -0.000  -0.000

  chi0(G,G') at the    2 th omega   3.0235   0.0000 [eV]
       1       2       3       4       5       6       7       8       9
    1 -11.225  -0.318  -0.472   0.439   0.097   0.439   0.097  -0.307   0.411
       -1.399  -0.094  -0.104   0.169   0.140   0.169   0.140  -0.094  -0.017

    2  -0.318  -3.819   0.066   0.609   0.312   0.609   0.312   0.314   0.396
       -0.094  -0.092  -0.001   0.084   0.042   0.084   0.042  -0.016   0.058

  chi0(G,G') at the    3 th omega   6.0470   0.0000 [eV]
       1       2       3       4       5       6       7       8       9
    1  -6.013  -0.318  -0.126   0.510   0.062   0.510   0.062   0.085  -0.009
       -9.219   0.024  -0.804  -1.123  -0.431  -1.123  -0.431  -0.017  -0.819

    2  -0.318  -3.557   0.258   0.174   0.322   0.174   0.322   0.452   0.056
        0.024  -0.374  -0.356   0.161  -0.013   0.161  -0.013   0.142   0.164

  chi0(G,G') at the    4 th omega   9.0705   0.0000 [eV]
       1       2       3       4       5       6       7       8       9
    1  -5.369   0.076  -0.304  -0.196  -0.132  -0.196  -0.132  -0.259  -0.146
       -1.867  -0.062   0.027   0.007  -0.051   0.007  -0.051  -0.078  -0.087

    2   0.076  -3.247   0.277   0.323   0.070   0.323   0.070   0.261  -0.393
       -0.062  -0.225   0.083   0.057   0.045   0.057   0.045   0.156   0.025

  chi0(G,G') at the    5 th omega  12.0939   0.0000 [eV]
       1       2       3       4       5       6       7       8       9
    1  -2.676  -0.376   1.457  -0.044  -0.256  -0.044  -0.256  -0.041   1.498
      -12.570  -0.141  -0.275  -0.217  -0.283  -0.217  -0.283  -0.419   0.333

    2  -0.376  -3.208  -0.016   0.244   0.216   0.244   0.216  -0.098  -0.035
       -0.141  -1.776   0.555   1.149   0.419   1.149   0.419   0.020   0.063

  chi0(G,G') at the    6 th omega  15.1174   0.0000 [eV]
       1       2       3       4       5       6       7       8       9
    1  -3.013   1.513  -0.277  -0.474   0.572  -0.474   0.572  -0.034  -0.519
       -8.011  -1.954  -0.563   0.592  -0.024   0.592  -0.024  -0.260  -0.451

    2   1.513  -5.013  -0.351   1.670   0.602   1.670   0.602   1.815  -0.278
       -1.954  -4.333   0.784   1.705  -0.063   1.705  -0.063  -0.424   0.988

  chi0(G,G') at the    7 th omega  18.1409   0.0000 [eV]
       1       2       3       4       5       6       7       8       9
    1   5.404   0.455   0.358  -0.128   0.592  -0.128   0.592   0.937   0.846
       -3.149   0.336   0.010  -0.176   0.066  -0.176   0.066  -0.421  -0.094

    2   0.455  -2.414   1.301  -0.098  -0.299  -0.098  -0.299  -1.489   0.431
        0.336  -2.802   2.268   0.647  -0.051   0.647  -0.051   2.128  -1.195

  chi0(G,G') at the    8 th omega  21.1644   0.0000 [eV]
       1       2       3       4       5       6       7       8       9
    1   3.316  -0.481   0.348   0.208   0.066   0.208   0.066   0.197   0.139
       -0.681   0.361  -0.194  -0.050   0.037  -0.050   0.037   0.017   0.049

    2  -0.481  -4.457  -0.855   0.173   0.258   0.173   0.258  -0.792   0.216
        0.361  -1.438   0.363   0.269   0.207   0.269   0.207   0.508   0.168

  chi0(G,G') at the    9 th omega  24.1879   0.0000 [eV]
       1       2       3       4       5       6       7       8       9
    1   2.691   0.205   0.348   0.280   0.203   0.280   0.203   0.161   0.090
       -0.424   0.040   0.101   0.190   0.174   0.190   0.174   0.034   0.079

    2   0.205  -2.713  -1.564   0.311  -0.672   0.311  -0.672   0.528  -0.265
        0.040  -1.564   1.064   0.034   0.581   0.034   0.581   0.454  -0.243

  chi0(G,G') at the   10 th omega  27.2114   0.0000 [eV]
       1       2       3       4       5       6       7       8       9
    1   1.790  -0.099   0.057   0.058   0.050   0.058   0.050   0.096   0.181
       -0.145   0.125  -0.079  -0.030   0.048  -0.030   0.048   0.008  -0.081

    2  -0.099  -0.630  -0.612  -1.088   0.709  -1.088   0.709  -0.050  -0.010
        0.125  -2.156  -0.159  -0.559  -0.562  -0.559  -0.562  -0.318   1.541

  chi0(G,G') at the   11 th omega   0.0000   3.8980 [eV]
       1       2       3       4       5       6       7       8       9
    1  -6.938  -0.059  -0.214  -0.144  -0.085  -0.144  -0.085  -0.114  -0.123
       -0.000   0.000   0.000  -0.000  -0.000  -0.000  -0.000   0.000  -0.000

    2  -0.059  -3.505   0.109   0.338   0.200   0.339   0.200   0.304   0.293
       -0.000  -0.000  -0.000  -0.000  -0.000   0.000  -0.000  -0.000  -0.000

  chi0(G,G') at the   12 th omega   0.0000  10.6848 [eV]
       1       2       3       4       5       6       7       8       9
    1  -3.501   0.012  -0.126  -0.083  -0.016  -0.083  -0.016  -0.037  -0.061
       -0.000   0.000   0.000  -0.000  -0.000  -0.000  -0.000   0.000  -0.000

    2   0.012  -2.963   0.084   0.197   0.142   0.197   0.142   0.212   0.186
       -0.000  -0.000  -0.000  -0.000  -0.000   0.000  -0.000  -0.000  -0.000

  chi0(G,G') at the   13 th omega   0.0000  22.5012 [eV]
       1       2       3       4       5       6       7       8       9
    1  -1.371   0.030  -0.050  -0.030   0.014  -0.030   0.014   0.001  -0.014
       -0.000   0.000   0.000  -0.000  -0.000  -0.000  -0.000   0.000  -0.000

    2   0.030  -2.183   0.030   0.078   0.088   0.078   0.088   0.107   0.112
       -0.000  -0.000  -0.000  -0.000  -0.000   0.000  -0.000  -0.000  -0.000

  chi0(G,G') at the   14 th omega   0.0000  43.0749 [eV]
       1       2       3       4       5       6       7       8       9
    1  -0.463   0.022  -0.015  -0.007   0.015  -0.007   0.015   0.008   0.001
       -0.000   0.000   0.000  -0.000  -0.000  -0.000  -0.000   0.000  -0.000

    2   0.022  -1.323  -0.001   0.018   0.047   0.018   0.047   0.038   0.060
       -0.000  -0.000   0.000   0.000  -0.000   0.000  -0.000  -0.000  -0.000

  Average fulfillment of the sum rule on Im[epsilon] for q-point    5 :     90.11  [%]


--------------------------------------------------------------------------------
  q-point number  6        q = (-0.250000, 0.250000, 0.000000) [r.l.u.]
--------------------------------------------------------------------------------
  chi0(G,G') at the    1 th omega   0.0000   0.0000 [eV]
       1       2       3       4       5       6       7       8       9
    1  -9.220  -0.224  -0.123  -0.165  -0.165  -0.165  -0.165  -0.123  -0.224
       -0.000   0.000   0.000   0.000  -0.000  -0.000  -0.000  -0.000   0.000

    2  -0.224  -9.361   0.104   0.776   0.324   0.776   0.324   0.573   0.256
       -0.000   0.000   0.000   0.000   0.000   0.000   0.000  -0.000  -0.000

  chi0(G,G') at the    2 th omega   3.0235   0.0000 [eV]
       1       2       3       4       5       6       7       8       9
    1 -12.626  -0.244  -0.230  -0.205  -0.205  -0.205  -0.205  -0.230  -0.244
       -0.945   0.016  -0.036  -0.039  -0.039  -0.039  -0.039  -0.036   0.016

    2  -0.244 -10.014   0.104   0.055   1.094   0.055   1.094   0.553  -0.447
        0.016  -1.086   0.026   0.313  -0.238   0.313  -0.238   0.065   0.602

  chi0(G,G') at the    3 th omega   6.0470   0.0000 [eV]
       1       2       3       4       5       6       7       8       9
    1  -6.585  -0.116  -0.171  -0.114  -0.114  -0.114  -0.114  -0.171  -0.116
       -1.253  -0.011  -0.026  -0.036  -0.036  -0.036  -0.036  -0.026  -0.011

    2  -0.116  -6.946   0.170   0.287   0.078   0.287   0.078   0.533   0.722
       -0.011  -0.726   0.008   0.134   0.018   0.134   0.018  -0.016  -0.085

  chi0(G,G') at the    4 th omega   9.0705   0.0000 [eV]
       1       2       3       4       5       6       7       8       9
    1   4.212  -0.769   0.539   0.165   0.165   0.165   0.165   0.539  -0.769
      -11.048   2.026  -0.325  -0.460  -0.460  -0.460  -0.460  -0.325   2.026

    2  -0.769  -5.598   0.884  -0.288  -1.290  -0.288  -1.290  -0.807   1.969
        2.026  -5.777   0.278   0.678  -0.178   0.678  -0.178  -0.095  -1.609

  chi0(G,G') at the    5 th omega  12.0939   0.0000 [eV]
       1       2       3       4       5       6       7       8       9
    1  14.860   3.100  -0.620   0.645   0.645   0.645   0.645  -0.620   3.100
      -17.714  -0.668   0.856  -1.608  -1.608  -1.608  -1.608   0.856  -0.668

    2   3.100   0.801   0.723  -1.324  -1.343  -1.324  -1.343  -0.469  -0.214
       -0.668 -19.263  -0.957   6.230   2.140   6.230   2.140   0.228  -0.122

  chi0(G,G') at the    6 th omega  15.1174   0.0000 [eV]
       1       2       3       4       5       6       7       8       9
    1   5.367  -0.228   1.016  -0.026  -0.026  -0.026  -0.026   1.016  -0.228
       -5.357   0.130  -0.333   0.016   0.016   0.016   0.016  -0.333   0.130

    2  -0.228  -9.019   0.485   1.415  -0.441   1.415  -0.441  -0.033  -0.251
        0.130  -5.010   1.150   1.231  -1.209   1.231  -1.209  -0.714  -0.410

  chi0(G,G') at the    7 th omega  18.1409   0.0000 [eV]
       1       2       3       4       5       6       7       8       9
    1   4.030   0.668  -0.128   0.176   0.176   0.176   0.176  -0.128   0.668
       -0.585  -0.063   0.135  -0.000  -0.000  -0.000  -0.000   0.135  -0.063

    2   0.668   4.687  -0.644   1.797  -0.804   1.797  -0.804  -0.743   1.308
       -0.063  -6.291   0.344  -1.635   0.275  -1.635   0.275   0.652  -0.822

  chi0(G,G') at the    8 th omega  21.1644   0.0000 [eV]
       1       2       3       4       5       6       7       8       9
    1   2.448   0.182   0.010  -0.004  -0.004  -0.004  -0.004   0.010   0.182
       -0.144  -0.048   0.031   0.051   0.051   0.051   0.051   0.031  -0.048

    2   0.182   7.463  -0.435  -1.396   0.734  -1.396   0.734  -1.453   1.140
       -0.048  -3.217   0.763   0.117   0.068   0.117   0.068   0.017  -0.527

  chi0(G,G') at the    9 th omega  24.1879   0.0000 [eV]
       1       2       3       4       5       6       7       8       9
    1   1.530   0.104   0.038   0.030   0.030   0.030   0.030   0.038   0.104
       -0.066   0.051  -0.034   0.033   0.033   0.033   0.033  -0.034   0.051

    2   0.104   9.199  -1.256  -1.626   0.394  -1.626   0.394  -1.226   1.060
        0.051  -3.279   1.170  -0.049  -0.391  -0.049  -0.391   0.192   0.075

  chi0(G,G') at the   10 th omega  27.2114   0.0000 [eV]
       1       2       3       4       5       6       7       8       9
    1   1.106   0.030   0.007   0.068   0.068   0.068   0.068   0.007   0.030
       -0.055  -0.044   0.011   0.001   0.001   0.001   0.001   0.011  -0.044

    2   0.030   2.248  -2.324  -0.656  -0.563  -0.656  -0.563  -1.415  -0.004
       -0.044  -2.082  -0.084  -0.519  -0.030  -0.519  -0.030   0.076   0.461

  chi0(G,G') at the   11 th omega   0.0000   3.8980 [eV]
       1       2       3       4       5       6       7       8       9
    1  -6.520  -0.186  -0.051  -0.110  -0.110  -0.110  -0.110  -0.051  -0.186
       -0.000  -0.000   0.000   0.000  -0.000  -0.000  -0.000  -0.000   0.000

    2  -0.186  -7.364   0.125   0.476   0.265   0.476   0.265   0.378   0.080
        0.000  -0.000   0.000   0.000   0.000   0.000   0.000  -0.000  -0.000

  chi0(G,G') at the   12 th omega   0.0000  10.6848 [eV]
       1       2       3       4       5       6       7       8       9
    1  -3.009  -0.113   0.014  -0.039  -0.039  -0.039  -0.039   0.014  -0.113
       -0.000  -0.000  -0.000   0.000  -0.000  -0.000  -0.000   0.000  -0.000

    2  -0.113  -4.511   0.095   0.193   0.137   0.193   0.137   0.186  -0.042
        0.000  -0.000   0.000   0.000   0.000   0.000   0.000  -0.000   0.000

  chi0(G,G') at the   13 th omega   0.0000  22.5012 [eV]
       1       2       3       4       5       6       7       8       9
    1  -1.078  -0.044   0.028  -0.004  -0.004  -0.004  -0.004   0.028  -0.044
       -0.000   0.000  -0.000   0.000  -0.000  -0.000  -0.000   0.000  -0.000

    2  -0.044  -2.211   0.035   0.022   0.053   0.022   0.053   0.055  -0.049
       -0.000  -0.000   0.000   0.000  -0.000   0.000   0.000  -0.000   0.000

  chi0(G,G') at the   14 th omega   0.0000  43.0749 [eV]
       1       2       3       4       5       6       7       8       9
    1  -0.347  -0.013   0.019   0.004   0.004   0.004   0.004   0.019  -0.013
       -0.000   0.000  -0.000   0.000  -0.000  -0.000  -0.000   0.000  -0.000

    2  -0.013  -0.882  -0.001  -0.020   0.018  -0.020   0.018   0.003  -0.025
       -0.000  -0.000   0.000   0.000  -0.000   0.000   0.000  -0.000   0.000

  Average fulfillment of the sum rule on Im[epsilon] for q-point    6 :     90.73  [%]


--------------------------------------------------------------------------------
  q-point number  7        q = ( 0.500000, 0.500000, 0.000000) [r.l.u.]
--------------------------------------------------------------------------------
  chi0(G,G') at the    1 th omega   0.0000   0.0000 [eV]
       1       2       3       4       5       6       7       8       9
    1  -9.104  -0.139  -0.188  -0.188  -0.139  -0.188  -0.139  -0.139  -0.188
        0.000   0.000   0.000  -0.000  -0.000   0.000  -0.000   0.000   0.000

    2  -0.139  -3.869   0.111   0.381   0.193   0.381   0.193   0.279   0.311
       -0.000  -0.000  -0.000  -0.000  -0.000   0.000  -0.000  -0.000  -0.000

  chi0(G,G') at the    2 th omega   3.0235   0.0000 [eV]
       1       2       3       4       5       6       7       8       9
    1 -12.183  -0.222  -0.244  -0.244  -0.222  -0.244  -0.222  -0.222  -0.244
       -0.596  -0.018  -0.014  -0.014  -0.018  -0.014  -0.018  -0.018  -0.014

    2  -0.222  -3.960   0.136   0.423   0.189   0.423   0.189   0.286   0.304
       -0.018  -0.029   0.003   0.005   0.000   0.005   0.000   0.004  -0.001

  chi0(G,G') at the    3 th omega   6.0470   0.0000 [eV]
       1       2       3       4       5       6       7       8       9
    1  -8.825  -0.233  -0.224  -0.224  -0.233  -0.224  -0.233  -0.233  -0.224
       -0.632  -0.049  -0.008  -0.008  -0.049  -0.008  -0.049  -0.049  -0.008

    2  -0.233  -4.881   0.132   0.812   0.299   0.812   0.299   0.371   0.328
       -0.049  -0.137   0.004   0.058   0.011   0.058   0.011   0.011  -0.031

  chi0(G,G') at the    4 th omega   9.0705   0.0000 [eV]
       1       2       3       4       5       6       7       8       9
    1  -6.509   0.236  -0.463  -0.463   0.236  -0.463   0.236   0.236  -0.463
       -8.079  -0.368   1.899   1.899  -0.368   1.899  -0.368  -0.368   1.899

    2   0.236  -4.416   1.244  -0.678   0.459  -0.678   0.459   0.497  -0.181
       -0.368  -0.729   0.079   0.375   0.103   0.375   0.103   0.038   0.504

  chi0(G,G') at the    5 th omega  12.0939   0.0000 [eV]
       1       2       3       4       5       6       7       8       9
    1   9.312   0.532   0.643   0.643   0.532   0.643   0.532   0.532   0.643
      -12.497  -0.413  -0.548  -0.548  -0.413  -0.548  -0.413  -0.413  -0.548

    2   0.532  -3.568   0.101   0.360   0.179   0.360   0.179   0.201   0.094
       -0.413  -0.155  -0.008   0.001  -0.023   0.001  -0.023   0.036  -0.010

  chi0(G,G') at the    6 th omega  15.1174   0.0000 [eV]
       1       2       3       4       5       6       7       8       9
    1  -2.270   0.177  -0.605  -0.605   0.177  -0.605   0.177   0.177  -0.605
       -3.943  -0.462  -0.254  -0.254  -0.462  -0.254  -0.462  -0.462  -0.254

    2   0.177  -7.914   0.269   1.815   0.580   1.815   0.580   0.831   0.432
       -0.462  -2.125   0.364   0.678  -0.160   0.678  -0.160   0.157  -0.405

  chi0(G,G') at the    7 th omega  18.1409   0.0000 [eV]
       1       2       3       4       5       6       7       8       9
    1   7.279  -0.141   0.568   0.568  -0.141   0.568  -0.141  -0.141   0.568
       -5.080   0.176  -0.386  -0.386   0.176  -0.386   0.176   0.176  -0.386

    2  -0.141  -2.779   0.056  -1.965   0.524  -1.965   0.524   0.496  -0.536
        0.176  -1.185   0.140   1.179   0.227   1.179   0.227  -0.642   0.111

  chi0(G,G') at the    8 th omega  21.1644   0.0000 [eV]
       1       2       3       4       5       6       7       8       9
    1   3.604   0.579  -0.351  -0.351   0.579  -0.351   0.579   0.579  -0.351
       -3.294   0.217  -0.285  -0.285   0.217  -0.285   0.217   0.217  -0.285

    2   0.579  -3.644   0.091   0.493   0.084   0.493   0.084   0.223   0.052
        0.217  -0.695   0.079   0.270  -0.163   0.270  -0.163   0.036   0.251

  chi0(G,G') at the    9 th omega  24.1879   0.0000 [eV]
       1       2       3       4       5       6       7       8       9
    1   5.330   0.058   0.220   0.220   0.058   0.220   0.058   0.058   0.220
       -1.012  -0.097   0.114   0.114  -0.097   0.114  -0.097  -0.097   0.114

    2   0.058   2.017  -1.089  -2.583   0.396  -2.583   0.396  -1.063   0.044
       -0.097  -2.023   1.099   0.603  -0.118   0.603  -0.118   0.345  -0.054

  chi0(G,G') at the   10 th omega  27.2114   0.0000 [eV]
       1       2       3       4       5       6       7       8       9
    1   0.869  -0.132   0.315   0.315  -0.132   0.315  -0.132  -0.132   0.315
       -2.010  -0.110   0.076   0.076  -0.110   0.076  -0.110  -0.110   0.076

    2  -0.132  -3.908  -2.490  -0.646  -0.375  -0.646  -0.375   1.018  -0.959
       -0.110  -2.273   0.559   0.192  -0.640   0.192  -0.640  -0.330   1.146

  chi0(G,G') at the   11 th omega   0.0000   3.8980 [eV]
       1       2       3       4       5       6       7       8       9
    1  -7.134  -0.088  -0.160  -0.160  -0.088  -0.160  -0.088  -0.088  -0.160
       -0.000   0.000  -0.000  -0.000  -0.000   0.000  -0.000   0.000   0.000

    2  -0.088  -3.658   0.118   0.331   0.173   0.331   0.173   0.256   0.274
       -0.000  -0.000  -0.000  -0.000  -0.000   0.000  -0.000  -0.000  -0.000

  chi0(G,G') at the   12 th omega   0.0000  10.6848 [eV]
       1       2       3       4       5       6       7       8       9
    1  -4.030  -0.019  -0.093  -0.093  -0.019  -0.093  -0.019  -0.019  -0.093
       -0.000   0.000  -0.000  -0.000  -0.000  -0.000  -0.000   0.000   0.000

    2  -0.019  -3.080   0.092   0.193   0.127   0.193   0.127   0.194   0.189
       -0.000  -0.000  -0.000  -0.000  -0.000   0.000  -0.000  -0.000  -0.000

  chi0(G,G') at the   13 th omega   0.0000  22.5012 [eV]
       1       2       3       4       5       6       7       8       9
    1  -1.763   0.014  -0.034  -0.034   0.014  -0.034   0.014   0.014  -0.034
       -0.000   0.000  -0.000  -0.000  -0.000  -0.000  -0.000   0.000   0.000

    2   0.014  -2.247   0.037   0.072   0.080   0.072   0.080   0.110   0.110
       -0.000  -0.000  -0.000  -0.000  -0.000  -0.000  -0.000  -0.000  -0.000

  chi0(G,G') at the   14 th omega   0.0000  43.0749 [eV]
       1       2       3       4       5       6       7       8       9
    1  -0.640   0.017  -0.008  -0.008   0.017  -0.008   0.017   0.017  -0.008
       -0.000   0.000  -0.000  -0.000  -0.000  -0.000  -0.000   0.000  -0.000

    2   0.017  -1.350   0.000   0.014   0.043   0.014   0.043   0.046   0.056
       -0.000  -0.000   0.000  -0.000  -0.000  -0.000  -0.000  -0.000  -0.000

  Average fulfillment of the sum rule on Im[epsilon] for q-point    7 :     89.33  [%]


--------------------------------------------------------------------------------
  q-point number  8        q = (-0.250000, 0.500000, 0.250000) [r.l.u.]
--------------------------------------------------------------------------------
  chi0(G,G') at the    1 th omega   0.0000   0.0000 [eV]
       1       2       3       4       5       6       7       8       9
    1  -9.594  -0.199  -0.152  -0.167  -0.178  -0.178  -0.167  -0.152  -0.199
       -0.000  -0.000   0.000  -0.000   0.000  -0.000  -0.000  -0.000   0.000

    2  -0.199  -9.594   0.107   0.531   0.361   0.718   0.394   0.362   0.194
        0.000  -0.000   0.000  -0.000   0.000   0.000   0.000  -0.000  -0.000

  chi0(G,G') at the    2 th omega   3.0235   0.0000 [eV]
       1       2       3       4       5       6       7       8       9
    1 -10.181  -0.517  -0.159  -0.243  -0.099  -0.099  -0.243  -0.159  -0.517
       -0.929  -0.317  -0.041  -0.011   0.238   0.238  -0.011  -0.041  -0.317

    2  -0.517 -10.181   0.043   0.520   1.347   1.926   0.345   0.318  -0.800
       -0.317  -0.929  -0.019   0.052   0.384   0.351  -0.007   0.011  -0.379

  chi0(G,G') at the    3 th omega   6.0470   0.0000 [eV]
       1       2       3       4       5       6       7       8       9
    1  -8.191  -0.143  -0.011  -0.204  -0.369  -0.369  -0.204  -0.011  -0.143
       -4.387  -0.244  -0.180  -0.145  -0.007  -0.007  -0.145  -0.180  -0.244

    2  -0.143  -8.191   0.228   0.330  -3.276   1.098   1.977   0.494  -1.761
       -0.244  -4.387  -0.111  -0.419   0.245   0.187   1.127   0.259   1.754

  chi0(G,G') at the    4 th omega   9.0705   0.0000 [eV]
       1       2       3       4       5       6       7       8       9
    1  -0.115  -0.640   0.186  -0.009  -0.173  -0.173  -0.009   0.186  -0.640
       -5.670  -0.013  -0.318   0.192  -0.161  -0.161   0.192  -0.318  -0.013

    2  -0.640  -0.115   0.030  -1.323   0.354   0.453   0.910   0.086  -2.121
       -0.013  -5.670  -0.030   1.226  -0.353   0.574  -1.076   0.195   3.177

  chi0(G,G') at the    5 th omega  12.0939   0.0000 [eV]
       1       2       3       4       5       6       7       8       9
    1   1.595   0.915   0.252  -0.068   0.024   0.024  -0.068   0.252   0.915
      -10.278  -1.292  -0.158  -0.309  -0.243  -0.243  -0.309  -0.158  -1.292

    2   0.915   1.595   0.393  -2.069   0.417  -4.249  -1.068   0.071   2.345
       -1.292 -10.278  -0.066   1.807   0.842   2.607  -0.544   0.353  -0.054

  chi0(G,G') at the    6 th omega  15.1174   0.0000 [eV]
       1       2       3       4       5       6       7       8       9
    1  -0.138  -0.499   0.089  -0.098  -0.063  -0.063  -0.098   0.089  -0.499
       -5.437  -0.654  -0.189  -0.124  -0.105  -0.105  -0.124  -0.189  -0.654

    2  -0.499  -0.138  -0.181  -0.162  -0.993   1.558  -0.436   0.424  -1.874
       -0.654  -5.437   0.328   0.532   0.312   0.133   0.035   0.055  -0.081

  chi0(G,G') at the    7 th omega  18.1409   0.0000 [eV]
       1       2       3       4       5       6       7       8       9
    1   6.518   0.200   0.464   0.063  -0.139  -0.139   0.063   0.464   0.200
      -14.904   0.751  -0.513  -0.657   0.197   0.197  -0.657  -0.513   0.751

    2   0.200   6.518   0.412  -2.075  -0.118   1.462  -0.810  -0.348   0.672
        0.751 -14.904   0.948   1.340   0.510   3.748  -0.372   1.132  -2.282

  chi0(G,G') at the    8 th omega  21.1644   0.0000 [eV]
       1       2       3       4       5       6       7       8       9
    1   4.352  -0.461  -0.061   0.318   0.556   0.556   0.318  -0.061  -0.461
       -3.423  -0.117  -0.204   0.142   0.013   0.013   0.142  -0.204  -0.117

    2  -0.461   4.352  -0.672  -0.055   1.825  -2.175   0.190  -0.458   0.859
       -0.117  -3.423  -0.020   0.320   0.433  -0.539  -0.013   0.218  -0.723

  chi0(G,G') at the    9 th omega  24.1879   0.0000 [eV]
       1       2       3       4       5       6       7       8       9
    1   3.030   0.422   0.156   0.062  -0.019  -0.019   0.062   0.156   0.422
       -1.834   0.105  -0.009   0.443   0.064   0.064   0.443  -0.009   0.105

    2   0.422   3.030  -0.161  -0.476  -0.734   0.346  -0.179  -0.476   0.495
        0.105  -1.834   0.255   0.369  -0.169  -0.060  -0.244  -0.014   0.642

  chi0(G,G') at the   10 th omega  27.2114   0.0000 [eV]
       1       2       3       4       5       6       7       8       9
    1   3.871   0.022   0.289   0.574   0.350   0.350   0.574   0.289   0.022
       -0.590   0.012   0.066   0.041   0.033   0.033   0.041   0.066   0.012

    2   0.022   3.871  -0.665  -0.492   0.115  -0.036  -0.014  -0.320   0.335
        0.012  -0.590   0.045  -0.054   0.042  -0.168   0.050  -0.021   0.155

  chi0(G,G') at the   11 th omega   0.0000   3.8980 [eV]
       1       2       3       4       5       6       7       8       9
    1  -7.295  -0.164  -0.081  -0.114  -0.151  -0.151  -0.113  -0.081  -0.164
       -0.000  -0.000   0.000  -0.000  -0.000  -0.000  -0.000  -0.000   0.000

    2  -0.164  -7.295   0.104   0.375   0.311   0.491   0.299   0.267  -0.113
        0.000  -0.000   0.000   0.000  -0.000   0.000   0.000  -0.000  -0.000

  chi0(G,G') at the   12 th omega   0.0000  10.6848 [eV]
       1       2       3       4       5       6       7       8       9
    1  -4.318  -0.104  -0.011  -0.051  -0.081  -0.081  -0.051  -0.011  -0.104
       -0.000  -0.000  -0.000   0.000  -0.000  -0.000  -0.000   0.000   0.000

    2  -0.104  -4.318   0.076   0.172   0.114   0.180   0.180   0.146  -0.147
        0.000  -0.000   0.000   0.000  -0.000   0.000   0.000  -0.000  -0.000

  chi0(G,G') at the   13 th omega   0.0000  22.5012 [eV]
       1       2       3       4       5       6       7       8       9
    1  -2.010  -0.042   0.021  -0.005  -0.023  -0.023  -0.005   0.021  -0.042
       -0.000  -0.000  -0.000  -0.000  -0.000  -0.000  -0.000   0.000   0.000

    2  -0.042  -2.010   0.029   0.041   0.034   0.000   0.092   0.053  -0.092
        0.000  -0.000   0.000   0.000  -0.000   0.000   0.000  -0.000  -0.000

  chi0(G,G') at the   14 th omega   0.0000  43.0749 [eV]
       1       2       3       4       5       6       7       8       9
    1  -0.767  -0.012   0.021   0.010  -0.000  -0.000   0.010   0.021  -0.012
       -0.000  -0.000  -0.000  -0.000  -0.000  -0.000   0.000   0.000   0.000

    2  -0.012  -0.767   0.001  -0.004   0.009  -0.028   0.041   0.012  -0.038
        0.000  -0.000  -0.000   0.000  -0.000   0.000   0.000  -0.000  -0.000

  Average fulfillment of the sum rule on Im[epsilon] for q-point    8 :     89.62  [%]

== END DATASET(S) ==============================================================
================================================================================
  
 -outvars: echo values of variables after computation  --------
            acell      7.6520000000E+00  7.6520000000E+00  7.6520000000E+00 Bohr
              amu      2.69815390E+01
             awtr           0
             ecut      3.70827987E+00 Hartree
          ecuteps      3.70827987E+00 Hartree
          ecutwfn      3.70827987E+00 Hartree
           enunit           1
           etotal      0.0000000000E+00
            fcart      0.0000000000E+00  0.0000000000E+00  0.0000000000E+00
-          fftalg         112
        freqremax      1.00000000E+00 Hartree
        gwcalctyp           2
           istwfk        1    0    1    0    0    0    1    0
              ixc           7
              kpt      0.00000000E+00  0.00000000E+00  0.00000000E+00
                       2.50000000E-01  0.00000000E+00  0.00000000E+00
                       5.00000000E-01  0.00000000E+00  0.00000000E+00
                       2.50000000E-01  2.50000000E-01  0.00000000E+00
                       5.00000000E-01  2.50000000E-01  0.00000000E+00
                      -2.50000000E-01  2.50000000E-01  0.00000000E+00
                       5.00000000E-01  5.00000000E-01  0.00000000E+00
                      -2.50000000E-01  5.00000000E-01  2.50000000E-01
         kptrlatt        4    0    0      0    4    0      0    0    4
          kptrlen      2.16431244E+01
P           mkmem           8
            natom           1
            nband          30
          nfreqim           4
          nfreqre          10
            ngfft          10      10      10
             nkpt           8
           npweps          51
           npwwfn          51
           nsheps           5
            nstep          50
             nsym          48
           ntypat           1
              occ      2.000000  1.000000  0.000000  0.000000  0.000000  0.000000
                       0.000000  0.000000  0.000000  0.000000  0.000000  0.000000
                       0.000000  0.000000  0.000000  0.000000  0.000000  0.000000
                       0.000000  0.000000  0.000000  0.000000  0.000000  0.000000
                       0.000000  0.000000  0.000000  0.000000  0.000000  0.000000
                       2.000000  1.000000  0.000000  0.000000  0.000000  0.000000
                       0.000000  0.000000  0.000000  0.000000  0.000000  0.000000
                       0.000000  0.000000  0.000000  0.000000  0.000000  0.000000
                       0.000000  0.000000  0.000000  0.000000  0.000000  0.000000
                       0.000000  0.000000  0.000000  0.000000  0.000000  0.000000
                       2.000000  1.000000  0.000000  0.000000  0.000000  0.000000
                       0.000000  0.000000  0.000000  0.000000  0.000000  0.000000
                       0.000000  0.000000  0.000000  0.000000  0.000000  0.000000
                       0.000000  0.000000  0.000000  0.000000  0.000000  0.000000
                       0.000000  0.000000  0.000000  0.000000  0.000000  0.000000
                       2.000000  1.000000  0.000000  0.000000  0.000000  0.000000
                       0.000000  0.000000  0.000000  0.000000  0.000000  0.000000
                       0.000000  0.000000  0.000000  0.000000  0.000000  0.000000
                       0.000000  0.000000  0.000000  0.000000  0.000000  0.000000
                       0.000000  0.000000  0.000000  0.000000  0.000000  0.000000
                       2.000000  1.000000  0.000000  0.000000  0.000000  0.000000
                       0.000000  0.000000  0.000000  0.000000  0.000000  0.000000
                       0.000000  0.000000  0.000000  0.000000  0.000000  0.000000
                       0.000000  0.000000  0.000000  0.000000  0.000000  0.000000
                       0.000000  0.000000  0.000000  0.000000  0.000000  0.000000
                       2.000000  1.000000  0.000000  0.000000  0.000000  0.000000
                       0.000000  0.000000  0.000000  0.000000  0.000000  0.000000
                       0.000000  0.000000  0.000000  0.000000  0.000000  0.000000
                       0.000000  0.000000  0.000000  0.000000  0.000000  0.000000
                       0.000000  0.000000  0.000000  0.000000  0.000000  0.000000
                       2.000000  1.000000  0.000000  0.000000  0.000000  0.000000
                       0.000000  0.000000  0.000000  0.000000  0.000000  0.000000
                       0.000000  0.000000  0.000000  0.000000  0.000000  0.000000
                       0.000000  0.000000  0.000000  0.000000  0.000000  0.000000
                       0.000000  0.000000  0.000000  0.000000  0.000000  0.000000
                       2.000000  1.000000  0.000000  0.000000  0.000000  0.000000
                       0.000000  0.000000  0.000000  0.000000  0.000000  0.000000
                       0.000000  0.000000  0.000000  0.000000  0.000000  0.000000
                       0.000000  0.000000  0.000000  0.000000  0.000000  0.000000
                       0.000000  0.000000  0.000000  0.000000  0.000000  0.000000
           occopt           3
        optdriver           3
           prtvol           5
            rprim      0.0000000000E+00  5.0000000000E-01  5.0000000000E-01
                       5.0000000000E-01  0.0000000000E+00  5.0000000000E-01
                       5.0000000000E-01  5.0000000000E-01  0.0000000000E+00
          spgroup         225
           strten      0.0000000000E+00  0.0000000000E+00  0.0000000000E+00
                       0.0000000000E+00  0.0000000000E+00  0.0000000000E+00
           symrel      1  0  0   0  1  0   0  0  1      -1  0  0   0 -1  0   0  0 -1
                       0 -1  1   0 -1  0   1 -1  0       0  1 -1   0  1  0  -1  1  0
                      -1  0  0  -1  0  1  -1  1  0       1  0  0   1  0 -1   1 -1  0
                       0  1 -1   1  0 -1   0  0 -1       0 -1  1  -1  0  1   0  0  1
                      -1  0  0  -1  1  0  -1  0  1       1  0  0   1 -1  0   1  0 -1
                       0 -1  1   1 -1  0   0 -1  0       0  1 -1  -1  1  0   0  1  0
                       1  0  0   0  0  1   0  1  0      -1  0  0   0  0 -1   0 -1  0
                       0  1 -1   0  0 -1   1  0 -1       0 -1  1   0  0  1  -1  0  1
                      -1  0  1  -1  1  0  -1  0  0       1  0 -1   1 -1  0   1  0  0
                       0 -1  0   1 -1  0   0 -1  1       0  1  0  -1  1  0   0  1 -1
                       1  0 -1   0  0 -1   0  1 -1      -1  0  1   0  0  1   0 -1  1
                       0  1  0   0  0  1   1  0  0       0 -1  0   0  0 -1  -1  0  0
                       1  0 -1   0  1 -1   0  0 -1      -1  0  1   0 -1  1   0  0  1
                       0 -1  0   0 -1  1   1 -1  0       0  1  0   0  1 -1  -1  1  0
                      -1  0  1  -1  0  0  -1  1  0       1  0 -1   1  0  0   1 -1  0
                       0  1  0   1  0  0   0  0  1       0 -1  0  -1  0  0   0  0 -1
                       0  0 -1   0  1 -1   1  0 -1       0  0  1   0 -1  1  -1  0  1
                       1 -1  0   0 -1  1   0 -1  0      -1  1  0   0  1 -1   0  1  0
                       0  0  1   1  0  0   0  1  0       0  0 -1  -1  0  0   0 -1  0
                      -1  1  0  -1  0  0  -1  0  1       1 -1  0   1  0  0   1  0 -1
                       0  0  1   0  1  0   1  0  0       0  0 -1   0 -1  0  -1  0  0
                       1 -1  0   0 -1  0   0 -1  1      -1  1  0   0  1  0   0  1 -1
                       0  0 -1   1  0 -1   0  1 -1       0  0  1  -1  0  1   0 -1  1
                      -1  1  0  -1  0  1  -1  0  0       1 -1  0   1  0 -1   1  0  0
           toldfe      1.00000000E-08 Hartree
           tsmear      5.00000000E-02 Hartree
            typat      1
              wtk        0.01563    0.12500    0.06250    0.09375    0.37500    0.18750
                         0.04688    0.09375
            znucl       13.00000

================================================================================


- Timing analysis has been suppressed with timopt=0



================================================================================

 Suggested references for the acknowledgment of ABINIT usage.

 The users of ABINIT have little formal obligations with respect to the ABINIT group
 (those specified in the GNU General Public License, http://www.gnu.org/copyleft/gpl.txt).
 However, it is common practice in the scientific literature,
 to acknowledge the efforts of people that have made the research possible.
 In this spirit, please find below suggested citations of work written by ABINIT developers,
 corresponding to implementations inside of ABINIT that you have used in the present run.
 Note also that it will be of great value to readers of publications presenting these results,
 to read papers enabling them to understand the theoretical formalism and details
 of the ABINIT implementation.
 For information on why they are suggested, see also http://www.abinit.org/about/?text=acknowledgments.

 [1] Ab initio pseudopotentials for electronic structure calculations of poly-atomic systems, 
 using density-functional theory.
 M. Fuchs, M. Scheffler, Comput. Phys. Commun. 119, 67 (1999).
 Comment : Some pseudopotential generated using the FHI code were used.

 [2] ABINIT : First-principles approach of materials and nanosystem properties.
 X. Gonze, B. Amadon, P.-M. Anglade, J.-M. Beuken, F. Bottin, P. Boulanger, F. Bruneval,
 D. Caliste, R. Caracas, M. Cote, T. Deutsch, L. Genovese, Ph. Ghosez, M. Giantomassi
 S. Goedecker, D.R. Hamann, P. Hermet, F. Jollet, G. Jomard, S. Leroux, M. Mancini, S. Mazevet,
 M.J.T. Oliveira, G. Onida, Y. Pouillon, T. Rangel, G.-M. Rignanese, D. Sangalli, R. Shaltaf,
 M. Torrent, M.J. Verstraete, G. Zerah, J.W. Zwanziger
 Computer Phys. Comm. 180, 2582-2615 (2009).
 Comment : the third generic paper describing the ABINIT project.
 Note that a version of this paper, that is not formatted for Computer Phys. Comm. 
 is available at http://www.abinit.org/about/ABINIT_CPC_v10.pdf .
 The licence allows the authors to put it on the Web.

 [3] A brief introduction to the ABINIT software package.
 X. Gonze, G.-M. Rignanese, M. Verstraete, J.-M. Beuken, Y. Pouillon, R. Caracas, F. Jollet,
 M. Torrent, G. Zerah, M. Mikami, Ph. Ghosez, M. Veithen, J.-Y. Raty, V. Olevano, F. Bruneval,
 L. Reining, R. Godby, G. Onida, D.R. Hamann, and D.C. Allan.
 Z. Kristallogr. 220, 558-562 (2005).
 Comment : the second generic paper describing the ABINIT project. Note that this paper
 should be cited especially if you are using the GW part of ABINIT, as several authors
 of this part are not in the list of authors of the first or third paper.
 The .pdf of the latter paper is available at http://www.abinit.org/about/zfk_0505-06_558-562.pdf.
 Note that it should not redistributed (Copyright by Oldenburg Wissenshaftverlag,
 the licence allows the authors to put it on the Web).


 And optionally :

 [4] First-principles computation of material properties : the ABINIT software project. 
 X. Gonze, J.-M. Beuken, R. Caracas, F. Detraux, M. Fuchs, G.-M. Rignanese, L. Sindic,
 M. Verstraete, G. Zerah, F. Jollet, M. Torrent, A. Roy, M. Mikami, Ph. Ghosez, J.-Y. Raty, D.C. Allan.
 Computational Materials Science 25, 478-492 (2002). http://dx.doi.org/10.1016/S0927-0256(02)00325-7
 Comment : the original paper describing the ABINIT project.

 [5] Fast radix 2, 3, 4 and 5 kernels for Fast Fourier Transformations
 on computers with overlapping multiply-add instructions.
 S. Goedecker, SIAM J. on Scientific Computing 18, 1605 (1997).
-
- Proc.   0 individual time (sec): cpu=          8.3  wall=          8.3

================================================================================

 Calculation completed.
.Delivered    6 WARNINGs and   4 COMMENTs to log file.
+Overall time at end (sec) : cpu=          8.3  wall=          8.3
