
.Version 7.9.3 of ABINIT 
.(MPI version, prepared for a x86_64_linux_gnu4.7 computer) 

.Copyright (C) 1998-2014 ABINIT group . 
 ABINIT comes with ABSOLUTELY NO WARRANTY.
 It is free software, and you are welcome to redistribute it
 under certain conditions (GNU General Public License,
 see ~abinit/COPYING or http://www.gnu.org/copyleft/gpl.txt).

 ABINIT is a project of the Universite Catholique de Louvain,
 Corning Inc. and other collaborators, see ~abinit/doc/developers/contributors.txt .
 Please read ~abinit/doc/users/acknowledgments.html for suggested
 acknowledgments of the ABINIT effort.
 For more information, see http://www.abinit.org .

.Starting date : Sat 30 Aug 2014.
- ( at 22h28 )
  
- input  file    -> tpaw2_1.in
- output file    -> tpaw2_1.out
- root for input  files -> tpaw2_1i
- root for output files -> tpaw2_1o


 DATASET    1 : space group Fm -3 m (#225); Bravais cF (face-center cubic)
================================================================================
 Values of the parameters that define the memory need for DATASET  1.
   intxc =         0  ionmov =         0    iscf =        17 xclevel =         2
  lmnmax =        18   lnmax =         6   mband =        14  mffmem =         1
P  mgfft =        12   mkmem =        28 mpssoang=         3     mpw =        84
  mqgrid =      3001   natom =         1    nfft =      1728    nkpt =        28
  nloalg =         4  nspden =         2 nspinor =         1  nsppol =         2
    nsym =        48  n1xccc =         1  ntypat =         1  occopt =         7
 PAW method is used; the additional fine FFT grid is defined by:
   mgfftf=        30    nfftf =     27000
================================================================================
P This job should need less than                      17.593 Mbytes of memory.
  Rough estimation (10% accuracy) of disk space for files :
_ WF disk file :      1.007 Mbytes ; DEN or POT disk file :      0.414 Mbytes.
================================================================================

--------------------------------------------------------------------------------
------------- Echo of variables that govern the present computation ------------
--------------------------------------------------------------------------------
-
- outvars: echo of selected default values                                      
-   accesswff0 =  0 , fftalg0 =112 , wfoptalg0 = 10
-
- outvars: echo of global parameters not present in the input file              
-  max_nthreads =    0
-
 -outvars: echo values of preprocessed input variables --------
            acell      6.6518359878E+00  6.6518359878E+00  6.6518359878E+00 Bohr
              amu      5.86900000E+01
             ecut      8.00000000E+00 Hartree
-          fftalg         112
           getwfk          -1
              ixc          11
           jdtset        1
              kpt     -8.33333333E-02 -1.66666667E-01  0.00000000E+00
                      -8.33333333E-02 -3.33333333E-01  0.00000000E+00
                      -1.66666667E-01 -2.50000000E-01  0.00000000E+00
                      -8.33333333E-02 -2.50000000E-01  8.33333333E-02
                      -8.33333333E-02  5.00000000E-01  0.00000000E+00
                      -1.66666667E-01 -4.16666667E-01  0.00000000E+00
                      -8.33333333E-02 -4.16666667E-01  8.33333333E-02
                      -2.50000000E-01 -3.33333333E-01  0.00000000E+00
                      -1.66666667E-01 -3.33333333E-01  8.33333333E-02
                      -8.33333333E-02 -3.33333333E-01  1.66666667E-01
                      -8.33333333E-02  3.33333333E-01  0.00000000E+00
                      -1.66666667E-01  4.16666667E-01  0.00000000E+00
                      -2.50000000E-01  5.00000000E-01  0.00000000E+00
                      -1.66666667E-01  5.00000000E-01  8.33333333E-02
                      -3.33333333E-01 -4.16666667E-01  0.00000000E+00
                      -2.50000000E-01 -4.16666667E-01  8.33333333E-02
                      -1.66666667E-01 -4.16666667E-01  1.66666667E-01
                      -8.33333333E-02 -4.16666667E-01  2.50000000E-01
                      -8.33333333E-02  1.66666667E-01  0.00000000E+00
                      -1.66666667E-01  2.50000000E-01  0.00000000E+00
                      -2.50000000E-01  3.33333333E-01  0.00000000E+00
                      -3.33333333E-01  4.16666667E-01  0.00000000E+00
                      -4.16666667E-01  5.00000000E-01  0.00000000E+00
                      -3.33333333E-01  5.00000000E-01  8.33333333E-02
                      -2.50000000E-01  5.00000000E-01  1.66666667E-01
                      -8.33333333E-02  0.00000000E+00  0.00000000E+00
                      -2.50000000E-01  0.00000000E+00  0.00000000E+00
                      -4.16666667E-01  0.00000000E+00  0.00000000E+00
         kptrlatt        6   -6    6     -6    6    6     -6   -6    6
          kptrlen      3.99110159E+01
P           mkmem          28
            natom           1
            nband          14
           ndtset           1
            ngfft          12      12      12
          ngfftdg          30      30      30
             nkpt          28
           nspden           2
           nsppol           2
            nstep          50
             nsym          48
           ntypat           1
              occ      1.000000  1.000000  1.000000  1.000000  1.000000  0.000000
                       0.000000  0.000000  0.000000  0.000000  0.000000  0.000000
                       0.000000  0.000000
                       1.000000  1.000000  1.000000  1.000000  1.000000  0.000000
                       0.000000  0.000000  0.000000  0.000000  0.000000  0.000000
                       0.000000  0.000000
                       1.000000  1.000000  1.000000  1.000000  1.000000  0.000000
                       0.000000  0.000000  0.000000  0.000000  0.000000  0.000000
                       0.000000  0.000000
                       1.000000  1.000000  1.000000  1.000000  1.000000  0.000000
                       0.000000  0.000000  0.000000  0.000000  0.000000  0.000000
                       0.000000  0.000000
                       1.000000  1.000000  1.000000  1.000000  1.000000  0.000000
                       0.000000  0.000000  0.000000  0.000000  0.000000  0.000000
                       0.000000  0.000000
                       1.000000  1.000000  1.000000  1.000000  1.000000  0.000000
                       0.000000  0.000000  0.000000  0.000000  0.000000  0.000000
                       0.000000  0.000000
                       1.000000  1.000000  1.000000  1.000000  1.000000  0.000000
                       0.000000  0.000000  0.000000  0.000000  0.000000  0.000000
                       0.000000  0.000000
                       1.000000  1.000000  1.000000  1.000000  1.000000  0.000000
                       0.000000  0.000000  0.000000  0.000000  0.000000  0.000000
                       0.000000  0.000000
                       1.000000  1.000000  1.000000  1.000000  1.000000  0.000000
                       0.000000  0.000000  0.000000  0.000000  0.000000  0.000000
                       0.000000  0.000000
                       1.000000  1.000000  1.000000  1.000000  1.000000  0.000000
                       0.000000  0.000000  0.000000  0.000000  0.000000  0.000000
                       0.000000  0.000000
                       1.000000  1.000000  1.000000  1.000000  1.000000  0.000000
                       0.000000  0.000000  0.000000  0.000000  0.000000  0.000000
                       0.000000  0.000000
                       1.000000  1.000000  1.000000  1.000000  1.000000  0.000000
                       0.000000  0.000000  0.000000  0.000000  0.000000  0.000000
                       0.000000  0.000000
                       1.000000  1.000000  1.000000  1.000000  1.000000  0.000000
                       0.000000  0.000000  0.000000  0.000000  0.000000  0.000000
                       0.000000  0.000000
                       1.000000  1.000000  1.000000  1.000000  1.000000  0.000000
                       0.000000  0.000000  0.000000  0.000000  0.000000  0.000000
                       0.000000  0.000000
                       1.000000  1.000000  1.000000  1.000000  1.000000  0.000000
                       0.000000  0.000000  0.000000  0.000000  0.000000  0.000000
                       0.000000  0.000000
                       1.000000  1.000000  1.000000  1.000000  1.000000  0.000000
                       0.000000  0.000000  0.000000  0.000000  0.000000  0.000000
                       0.000000  0.000000
                       1.000000  1.000000  1.000000  1.000000  1.000000  0.000000
                       0.000000  0.000000  0.000000  0.000000  0.000000  0.000000
                       0.000000  0.000000
                       1.000000  1.000000  1.000000  1.000000  1.000000  0.000000
                       0.000000  0.000000  0.000000  0.000000  0.000000  0.000000
                       0.000000  0.000000
                       1.000000  1.000000  1.000000  1.000000  1.000000  0.000000
                       0.000000  0.000000  0.000000  0.000000  0.000000  0.000000
                       0.000000  0.000000
                       1.000000  1.000000  1.000000  1.000000  1.000000  0.000000
                       0.000000  0.000000  0.000000  0.000000  0.000000  0.000000
                       0.000000  0.000000
                       1.000000  1.000000  1.000000  1.000000  1.000000  0.000000
                       0.000000  0.000000  0.000000  0.000000  0.000000  0.000000
                       0.000000  0.000000
                       1.000000  1.000000  1.000000  1.000000  1.000000  0.000000
                       0.000000  0.000000  0.000000  0.000000  0.000000  0.000000
                       0.000000  0.000000
                       1.000000  1.000000  1.000000  1.000000  1.000000  0.000000
                       0.000000  0.000000  0.000000  0.000000  0.000000  0.000000
                       0.000000  0.000000
                       1.000000  1.000000  1.000000  1.000000  1.000000  0.000000
                       0.000000  0.000000  0.000000  0.000000  0.000000  0.000000
                       0.000000  0.000000
                       1.000000  1.000000  1.000000  1.000000  1.000000  0.000000
                       0.000000  0.000000  0.000000  0.000000  0.000000  0.000000
                       0.000000  0.000000
                       1.000000  1.000000  1.000000  1.000000  1.000000  0.000000
                       0.000000  0.000000  0.000000  0.000000  0.000000  0.000000
                       0.000000  0.000000
                       1.000000  1.000000  1.000000  1.000000  1.000000  0.000000
                       0.000000  0.000000  0.000000  0.000000  0.000000  0.000000
                       0.000000  0.000000
                       1.000000  1.000000  1.000000  1.000000  1.000000  0.000000
                       0.000000  0.000000  0.000000  0.000000  0.000000  0.000000
                       0.000000  0.000000
                       1.000000  1.000000  1.000000  1.000000  1.000000  0.000000
                       0.000000  0.000000  0.000000  0.000000  0.000000  0.000000
                       0.000000  0.000000
                       1.000000  1.000000  1.000000  1.000000  1.000000  0.000000
                       0.000000  0.000000  0.000000  0.000000  0.000000  0.000000
                       0.000000  0.000000
                       1.000000  1.000000  1.000000  1.000000  1.000000  0.000000
                       0.000000  0.000000  0.000000  0.000000  0.000000  0.000000
                       0.000000  0.000000
                       1.000000  1.000000  1.000000  1.000000  1.000000  0.000000
                       0.000000  0.000000  0.000000  0.000000  0.000000  0.000000
                       0.000000  0.000000
                       1.000000  1.000000  1.000000  1.000000  1.000000  0.000000
                       0.000000  0.000000  0.000000  0.000000  0.000000  0.000000
                       0.000000  0.000000
                       1.000000  1.000000  1.000000  1.000000  1.000000  0.000000
                       0.000000  0.000000  0.000000  0.000000  0.000000  0.000000
                       0.000000  0.000000
                       1.000000  1.000000  1.000000  1.000000  1.000000  0.000000
                       0.000000  0.000000  0.000000  0.000000  0.000000  0.000000
                       0.000000  0.000000
                       1.000000  1.000000  1.000000  1.000000  1.000000  0.000000
                       0.000000  0.000000  0.000000  0.000000  0.000000  0.000000
                       0.000000  0.000000
                       1.000000  1.000000  1.000000  1.000000  1.000000  0.000000
                       0.000000  0.000000  0.000000  0.000000  0.000000  0.000000
                       0.000000  0.000000
                       1.000000  1.000000  1.000000  1.000000  1.000000  0.000000
                       0.000000  0.000000  0.000000  0.000000  0.000000  0.000000
                       0.000000  0.000000
                       1.000000  1.000000  1.000000  1.000000  1.000000  0.000000
                       0.000000  0.000000  0.000000  0.000000  0.000000  0.000000
                       0.000000  0.000000
                       1.000000  1.000000  1.000000  1.000000  1.000000  0.000000
                       0.000000  0.000000  0.000000  0.000000  0.000000  0.000000
                       0.000000  0.000000
                       1.000000  1.000000  1.000000  1.000000  1.000000  0.000000
                       0.000000  0.000000  0.000000  0.000000  0.000000  0.000000
                       0.000000  0.000000
                       1.000000  1.000000  1.000000  1.000000  1.000000  0.000000
                       0.000000  0.000000  0.000000  0.000000  0.000000  0.000000
                       0.000000  0.000000
                       1.000000  1.000000  1.000000  1.000000  1.000000  0.000000
                       0.000000  0.000000  0.000000  0.000000  0.000000  0.000000
                       0.000000  0.000000
                       1.000000  1.000000  1.000000  1.000000  1.000000  0.000000
                       0.000000  0.000000  0.000000  0.000000  0.000000  0.000000
                       0.000000  0.000000
                       1.000000  1.000000  1.000000  1.000000  1.000000  0.000000
                       0.000000  0.000000  0.000000  0.000000  0.000000  0.000000
                       0.000000  0.000000
                       1.000000  1.000000  1.000000  1.000000  1.000000  0.000000
                       0.000000  0.000000  0.000000  0.000000  0.000000  0.000000
                       0.000000  0.000000
                       1.000000  1.000000  1.000000  1.000000  1.000000  0.000000
                       0.000000  0.000000  0.000000  0.000000  0.000000  0.000000
                       0.000000  0.000000
                       1.000000  1.000000  1.000000  1.000000  1.000000  0.000000
                       0.000000  0.000000  0.000000  0.000000  0.000000  0.000000
                       0.000000  0.000000
                       1.000000  1.000000  1.000000  1.000000  1.000000  0.000000
                       0.000000  0.000000  0.000000  0.000000  0.000000  0.000000
                       0.000000  0.000000
                       1.000000  1.000000  1.000000  1.000000  1.000000  0.000000
                       0.000000  0.000000  0.000000  0.000000  0.000000  0.000000
                       0.000000  0.000000
                       1.000000  1.000000  1.000000  1.000000  1.000000  0.000000
                       0.000000  0.000000  0.000000  0.000000  0.000000  0.000000
                       0.000000  0.000000
                       1.000000  1.000000  1.000000  1.000000  1.000000  0.000000
                       0.000000  0.000000  0.000000  0.000000  0.000000  0.000000
                       0.000000  0.000000
                       1.000000  1.000000  1.000000  1.000000  1.000000  0.000000
                       0.000000  0.000000  0.000000  0.000000  0.000000  0.000000
                       0.000000  0.000000
                       1.000000  1.000000  1.000000  1.000000  1.000000  0.000000
                       0.000000  0.000000  0.000000  0.000000  0.000000  0.000000
                       0.000000  0.000000
                       1.000000  1.000000  1.000000  1.000000  1.000000  0.000000
                       0.000000  0.000000  0.000000  0.000000  0.000000  0.000000
                       0.000000  0.000000
                       1.000000  1.000000  1.000000  1.000000  1.000000  0.000000
                       0.000000  0.000000  0.000000  0.000000  0.000000  0.000000
                       0.000000  0.000000
           occopt           7
        pawecutdg      4.00000000E+01 Hartree
           prtden           0
           prteig           0
            rprim      0.0000000000E+00  5.0000000000E-01  5.0000000000E-01
                       5.0000000000E-01  0.0000000000E+00  5.0000000000E-01
                       5.0000000000E-01  5.0000000000E-01  0.0000000000E+00
           shiftk      5.00000000E-01  5.00000000E-01  5.00000000E-01
          spgroup         225
           spinat      0.0000000000E+00  0.0000000000E+00  4.0000000000E+00
           symrel      1  0  0   0  1  0   0  0  1      -1  0  0   0 -1  0   0  0 -1
                       0 -1  1   0 -1  0   1 -1  0       0  1 -1   0  1  0  -1  1  0
                      -1  0  0  -1  0  1  -1  1  0       1  0  0   1  0 -1   1 -1  0
                       0  1 -1   1  0 -1   0  0 -1       0 -1  1  -1  0  1   0  0  1
                      -1  0  0  -1  1  0  -1  0  1       1  0  0   1 -1  0   1  0 -1
                       0 -1  1   1 -1  0   0 -1  0       0  1 -1  -1  1  0   0  1  0
                       1  0  0   0  0  1   0  1  0      -1  0  0   0  0 -1   0 -1  0
                       0  1 -1   0  0 -1   1  0 -1       0 -1  1   0  0  1  -1  0  1
                      -1  0  1  -1  1  0  -1  0  0       1  0 -1   1 -1  0   1  0  0
                       0 -1  0   1 -1  0   0 -1  1       0  1  0  -1  1  0   0  1 -1
                       1  0 -1   0  0 -1   0  1 -1      -1  0  1   0  0  1   0 -1  1
                       0  1  0   0  0  1   1  0  0       0 -1  0   0  0 -1  -1  0  0
                       1  0 -1   0  1 -1   0  0 -1      -1  0  1   0 -1  1   0  0  1
                       0 -1  0   0 -1  1   1 -1  0       0  1  0   0  1 -1  -1  1  0
                      -1  0  1  -1  0  0  -1  1  0       1  0 -1   1  0  0   1 -1  0
                       0  1  0   1  0  0   0  0  1       0 -1  0  -1  0  0   0  0 -1
                       0  0 -1   0  1 -1   1  0 -1       0  0  1   0 -1  1  -1  0  1
                       1 -1  0   0 -1  1   0 -1  0      -1  1  0   0  1 -1   0  1  0
                       0  0  1   1  0  0   0  1  0       0  0 -1  -1  0  0   0 -1  0
                      -1  1  0  -1  0  0  -1  0  1       1 -1  0   1  0  0   1  0 -1
                       0  0  1   0  1  0   1  0  0       0  0 -1   0 -1  0  -1  0  0
                       1 -1  0   0 -1  0   0 -1  1      -1  1  0   0  1  0   0  1 -1
                       0  0 -1   1  0 -1   0  1 -1       0  0  1  -1  0  1   0 -1  1
                      -1  1  0  -1  0  1  -1  0  0       1 -1  0   1  0 -1   1  0  0
           tolvrs      1.00000000E-09
           tsmear      7.50000000E-03 Hartree
            typat      1
           useylm           1
              wtk        0.02778    0.02778    0.02778    0.05556    0.02778    0.02778
                         0.05556    0.02778    0.05556    0.05556    0.02778    0.02778
                         0.02778    0.05556    0.02778    0.05556    0.05556    0.05556
                         0.02778    0.02778    0.02778    0.02778    0.02778    0.05556
                         0.05556    0.00926    0.00926    0.00926
            znucl       28.00000

================================================================================

 chkinp: Checking input parameters for consistency, jdtset=   1.

================================================================================
== DATASET  1 ==================================================================
-   nproc =    1

 Exchange-correlation functional for the present dataset will be:
  GGA: Perdew-Burke-Ernzerhof functional - ixc=11
 Citation for XC functional:
  J.P.Perdew, K.Burke, M.Ernzerhof, PRL 77, 3865 (1996)

 Real(R)+Recip(G) space primitive vectors, cartesian coordinates (Bohr,Bohr^-1):
 R(1)=  0.0000000  3.3259180  3.3259180  G(1)= -0.1503344  0.1503344  0.1503344
 R(2)=  3.3259180  0.0000000  3.3259180  G(2)=  0.1503344 -0.1503344  0.1503344
 R(3)=  3.3259180  3.3259180  0.0000000  G(3)=  0.1503344  0.1503344 -0.1503344
 Unit cell volume ucvol=  7.3580817E+01 bohr^3
 Angles (23,13,12)=  6.00000000E+01  6.00000000E+01  6.00000000E+01 degrees

 Coarse grid specifications (used for wave-functions):

 getcut: wavevector=  0.0000  0.0000  0.0000  ngfft=  12  12  12
         ecut(hartree)=      8.000   => boxcut(ratio)=   2.00375

 Fine grid specifications (used for densities):

 getcut: wavevector=  0.0000  0.0000  0.0000  ngfft=  30  30  30
         ecut(hartree)=     40.000   => boxcut(ratio)=   2.24275

 getcut : COMMENT -
  Note that boxcut > 2.2 ; recall that boxcut=Gcut(box)/Gcut(sphere) = 2
  is sufficient for exact treatment of convolution.
  Such a large boxcut is a waste : you could raise ecut
  e.g. ecut=   50.299449 Hartrees makes boxcut=2


--- Pseudopotential description ------------------------------------------------
- pspini: atom type   1  psp file is /home/gonze/ABINIT/ABINITv7.9.3/trunk/7.9.3-private/tests/Psps_for_tests/Ni.GGA-PBE-paw.abinit.bloechl
- pspatm: opening atomic psp file    /home/gonze/ABINIT/ABINITv7.9.3/trunk/7.9.3-private/tests/Psps_for_tests/Ni.GGA-PBE-paw.abinit.bloechl
- Paw atomic data for element Ni - Generated by atompaw v3.0.1 & AtomPAW2Abinit v3.3.1
- 28.00000  10.00000  20110216                znucl, zion, pspdat
    7   11    2    0       495   0.00000      pspcod,pspxc,lmax,lloc,mmax,r2well
 Pseudopotential format is: paw5
 basis_size (lnmax)=  6 (lmn_size= 18), orbitals=   0   0   1   1   2   2
 Spheres core radius: rc_sph= 2.31145012
 5 radial meshes are used:
  - mesh 1: r(i)=AA*[exp(BB*(i-1))-1], size= 495 , AA= 0.60270E-03 BB= 0.16876E-01
  - mesh 2: r(i)=AA*[exp(BB*(i-1))-1], size= 490 , AA= 0.60270E-03 BB= 0.16876E-01
  - mesh 3: r(i)=AA*[exp(BB*(i-1))-1], size= 533 , AA= 0.60270E-03 BB= 0.16876E-01
  - mesh 4: r(i)=AA*[exp(BB*(i-1))-1], size= 576 , AA= 0.60270E-03 BB= 0.16876E-01
  - mesh 5: r(i)=AA*[exp(BB*(i-1))-1], size= 606 , AA= 0.60270E-03 BB= 0.16876E-01
 Shapefunction is SIN type: shapef(r)=[sin(pi*r/rshp)/(pi*r/rshp)]**2
 Radius for shape functions = sphere core radius
 Radial grid used for partial waves is grid 1
 Radial grid used for projectors is grid  2
 Radial grid used for (t)core density is grid 3
 Radial grid used for Vloc is grid 4
 Radial grid used for pseudo valence density is grid 5
 Compensation charge density is not taken into account in XC energy/potential
 pspatm: atomic psp has been read  and splines computed

   2.06131081E+02                                ecore*ucvol(ha*bohr**3)
--------------------------------------------------------------------------------

P newkpt: treating     14 bands with npw=      73 for ikpt=   1 by node    0
P newkpt: treating     14 bands with npw=      76 for ikpt=   2 by node    0
P newkpt: treating     14 bands with npw=      79 for ikpt=   3 by node    0
P newkpt: treating     14 bands with npw=      78 for ikpt=   4 by node    0
P newkpt: treating     14 bands with npw=      80 for ikpt=   5 by node    0
P newkpt: treating     14 bands with npw=      79 for ikpt=   6 by node    0
P newkpt: treating     14 bands with npw=      80 for ikpt=   7 by node    0
P newkpt: treating     14 bands with npw=      79 for ikpt=   8 by node    0
P newkpt: treating     14 bands with npw=      79 for ikpt=   9 by node    0
P newkpt: treating     14 bands with npw=      81 for ikpt=  10 by node    0
P newkpt: treating     14 bands with npw=      76 for ikpt=  11 by node    0
P newkpt: treating     14 bands with npw=      79 for ikpt=  12 by node    0
P newkpt: treating     14 bands with npw=      80 for ikpt=  13 by node    0
P newkpt: treating     14 bands with npw=      81 for ikpt=  14 by node    0
P newkpt: treating     14 bands with npw=      80 for ikpt=  15 by node    0
P newkpt: treating     14 bands with npw=      80 for ikpt=  16 by node    0
P newkpt: treating     14 bands with npw=      83 for ikpt=  17 by node    0
P newkpt: treating     14 bands with npw=      84 for ikpt=  18 by node    0
P newkpt: treating     14 bands with npw=      75 for ikpt=  19 by node    0
P newkpt: treating     14 bands with npw=      77 for ikpt=  20 by node    0
P newkpt: treating     14 bands with npw=      83 for ikpt=  21 by node    0
P newkpt: treating     14 bands with npw=      79 for ikpt=  22 by node    0
P newkpt: treating     14 bands with npw=      84 for ikpt=  23 by node    0
P newkpt: treating     14 bands with npw=      81 for ikpt=  24 by node    0
P newkpt: treating     14 bands with npw=      80 for ikpt=  25 by node    0
P newkpt: treating     14 bands with npw=      68 for ikpt=  26 by node    0
P newkpt: treating     14 bands with npw=      74 for ikpt=  27 by node    0
P newkpt: treating     14 bands with npw=      77 for ikpt=  28 by node    0
P newkpt: treating     14 bands with npw=      73 for ikpt=   1 by node    0
P newkpt: treating     14 bands with npw=      76 for ikpt=   2 by node    0
P newkpt: treating     14 bands with npw=      79 for ikpt=   3 by node    0
P newkpt: treating     14 bands with npw=      78 for ikpt=   4 by node    0
P newkpt: treating     14 bands with npw=      80 for ikpt=   5 by node    0
P newkpt: treating     14 bands with npw=      79 for ikpt=   6 by node    0
P newkpt: treating     14 bands with npw=      80 for ikpt=   7 by node    0
P newkpt: treating     14 bands with npw=      79 for ikpt=   8 by node    0
P newkpt: treating     14 bands with npw=      79 for ikpt=   9 by node    0
P newkpt: treating     14 bands with npw=      81 for ikpt=  10 by node    0
P newkpt: treating     14 bands with npw=      76 for ikpt=  11 by node    0
P newkpt: treating     14 bands with npw=      79 for ikpt=  12 by node    0
P newkpt: treating     14 bands with npw=      80 for ikpt=  13 by node    0
P newkpt: treating     14 bands with npw=      81 for ikpt=  14 by node    0
P newkpt: treating     14 bands with npw=      80 for ikpt=  15 by node    0
P newkpt: treating     14 bands with npw=      80 for ikpt=  16 by node    0
P newkpt: treating     14 bands with npw=      83 for ikpt=  17 by node    0
P newkpt: treating     14 bands with npw=      84 for ikpt=  18 by node    0
P newkpt: treating     14 bands with npw=      75 for ikpt=  19 by node    0
P newkpt: treating     14 bands with npw=      77 for ikpt=  20 by node    0
P newkpt: treating     14 bands with npw=      83 for ikpt=  21 by node    0
P newkpt: treating     14 bands with npw=      79 for ikpt=  22 by node    0
P newkpt: treating     14 bands with npw=      84 for ikpt=  23 by node    0
P newkpt: treating     14 bands with npw=      81 for ikpt=  24 by node    0
P newkpt: treating     14 bands with npw=      80 for ikpt=  25 by node    0
P newkpt: treating     14 bands with npw=      68 for ikpt=  26 by node    0
P newkpt: treating     14 bands with npw=      74 for ikpt=  27 by node    0
P newkpt: treating     14 bands with npw=      77 for ikpt=  28 by node    0

_setup2: Arith. and geom. avg. npw (full set) are      79.611      79.563

================================================================================

     iter   Etot(hartree)     deltaE(h) residm    nres2    magn
 ETOT  1  -42.393236262296    -4.24E+01 1.27E+00 5.18E+02 1.516
 ETOT  2  -41.214586512241     1.18E+00 1.82E-02 3.87E+02 0.000
 ETOT  3  -39.553168182656     1.66E+00 8.62E-02 1.07E+02 0.069
 ETOT  4  -39.364719422979     1.88E-01 6.48E-02 1.89E+01 0.409
 ETOT  5  -39.333517350100     3.12E-02 3.23E-02 1.13E+01 0.245
 ETOT  6  -39.300526695464     3.30E-02 4.39E-03 8.94E-02 0.358
 ETOT  7  -39.301544348592    -1.02E-03 4.55E-04 4.79E-01 0.363
 ETOT  8  -39.300689333197     8.55E-04 3.28E-05 1.70E-01 0.351
 ETOT  9  -39.300299922633     3.89E-04 4.25E-05 7.65E-03 0.336
 ETOT 10  -39.300293656242     6.27E-06 1.72E-05 1.05E-03 0.334
 ETOT 11  -39.300291514952     2.14E-06 1.40E-05 1.65E-05 0.339
 ETOT 12  -39.300291557695    -4.27E-08 9.51E-06 4.45E-06 0.340
 ETOT 13  -39.300291576601    -1.89E-08 8.63E-06 9.37E-07 0.341
 ETOT 14  -39.300291581204    -4.60E-09 5.94E-06 2.38E-08 0.342
 ETOT 15  -39.300291581269    -6.46E-11 5.56E-06 2.48E-10 0.342

 At SCF step   15       nres2   =  2.48E-10 < tolvrs=  1.00E-09 =>converged.

 Cartesian components of stress tensor (hartree/bohr^3)
  sigma(1 1)=  1.26518778E-02  sigma(3 2)=  0.00000000E+00
  sigma(2 2)=  1.26518778E-02  sigma(3 1)=  0.00000000E+00
  sigma(3 3)=  1.26518778E-02  sigma(2 1)=  0.00000000E+00


 PAW TEST:
 ==== Compensation charge inside spheres ============
 The following values must be close to each other ...
 Compensation charge over spherical meshes =      5.317771433208500
 Compensation charge over fine fft grid    =      5.317776807132649

 ==== Results concerning PAW augmentation regions ====

 Total pseudopotential strength Dij (hartree):
 Atom #  1 - Spin component 1
   0.31547   0.04365   0.00000   0.00000   0.00000   0.00000   0.00000   0.00000   0.00000   0.00000   0.00000   0.00000 ...
   0.04365  10.05046   0.00000   0.00000   0.00000   0.00000   0.00000   0.00000   0.00000   0.00000   0.00000   0.00000 ...
   0.00000   0.00000   0.05124   0.00000   0.00000   0.05670   0.00000   0.00000   0.00000   0.00000   0.00000   0.00000 ...
   0.00000   0.00000   0.00000   0.05124   0.00000   0.00000   0.05670   0.00000   0.00000   0.00000   0.00000   0.00000 ...
   0.00000   0.00000   0.00000   0.00000   0.05124   0.00000   0.00000   0.05670   0.00000   0.00000   0.00000   0.00000 ...
   0.00000   0.00000   0.05670   0.00000   0.00000   6.76289   0.00000   0.00000   0.00000   0.00000   0.00000   0.00000 ...
   0.00000   0.00000   0.00000   0.05670   0.00000   0.00000   6.76289   0.00000   0.00000   0.00000   0.00000   0.00000 ...
   0.00000   0.00000   0.00000   0.00000   0.05670   0.00000   0.00000   6.76289   0.00000   0.00000   0.00000   0.00000 ...
   0.00000   0.00000   0.00000   0.00000   0.00000   0.00000   0.00000   0.00000  -0.35219   0.00000   0.00000   0.00000 ...
   0.00000   0.00000   0.00000   0.00000   0.00000   0.00000   0.00000   0.00000   0.00000  -0.35219   0.00000   0.00000 ...
   0.00000   0.00000   0.00000   0.00000   0.00000   0.00000   0.00000   0.00000   0.00000   0.00000  -0.35017   0.00000 ...
   0.00000   0.00000   0.00000   0.00000   0.00000   0.00000   0.00000   0.00000   0.00000   0.00000   0.00000  -0.35219 ...
   ...  only 12  components have been written...
 Atom #  1 - Spin component 2
   0.31508   0.04794   0.00000   0.00000   0.00000   0.00000   0.00000   0.00000   0.00000   0.00000   0.00000   0.00000 ...
   0.04794  10.07620   0.00000   0.00000   0.00000   0.00000   0.00000   0.00000   0.00000   0.00000   0.00000   0.00000 ...
   0.00000   0.00000   0.05132   0.00000   0.00000   0.05981   0.00000   0.00000   0.00000   0.00000   0.00000   0.00000 ...
   0.00000   0.00000   0.00000   0.05132   0.00000   0.00000   0.05981   0.00000   0.00000   0.00000   0.00000   0.00000 ...
   0.00000   0.00000   0.00000   0.00000   0.05132   0.00000   0.00000   0.05981   0.00000   0.00000   0.00000   0.00000 ...
   0.00000   0.00000   0.05981   0.00000   0.00000   6.80471   0.00000   0.00000   0.00000   0.00000   0.00000   0.00000 ...
   0.00000   0.00000   0.00000   0.05981   0.00000   0.00000   6.80471   0.00000   0.00000   0.00000   0.00000   0.00000 ...
   0.00000   0.00000   0.00000   0.00000   0.05981   0.00000   0.00000   6.80471   0.00000   0.00000   0.00000   0.00000 ...
   0.00000   0.00000   0.00000   0.00000   0.00000   0.00000   0.00000   0.00000  -0.34186   0.00000   0.00000   0.00000 ...
   0.00000   0.00000   0.00000   0.00000   0.00000   0.00000   0.00000   0.00000   0.00000  -0.34186   0.00000   0.00000 ...
   0.00000   0.00000   0.00000   0.00000   0.00000   0.00000   0.00000   0.00000   0.00000   0.00000  -0.34123   0.00000 ...
   0.00000   0.00000   0.00000   0.00000   0.00000   0.00000   0.00000   0.00000   0.00000   0.00000   0.00000  -0.34186 ...
   ...  only 12  components have been written...


 Augmentation waves occupancies Rhoij:
 Atom #  1 - Spin component 1
   0.45941   0.00189   0.00000   0.00000   0.00000   0.00000   0.00000   0.00000   0.00000   0.00000   0.00000   0.00000 ...
   0.00189   0.00001   0.00000   0.00000   0.00000   0.00000   0.00000   0.00000   0.00000   0.00000   0.00000   0.00000 ...
   0.00000   0.00000   0.34854   0.00000   0.00000   0.00115   0.00000   0.00000   0.00000   0.00000   0.00000   0.00000 ...
   0.00000   0.00000   0.00000   0.34854   0.00000   0.00000   0.00115   0.00000   0.00000   0.00000   0.00000   0.00000 ...
   0.00000   0.00000   0.00000   0.00000   0.34854   0.00000   0.00000   0.00115   0.00000   0.00000   0.00000   0.00000 ...
   0.00000   0.00000   0.00115   0.00000   0.00000   0.00001   0.00000   0.00000   0.00000   0.00000   0.00000   0.00000 ...
   0.00000   0.00000   0.00000   0.00115   0.00000   0.00000   0.00001   0.00000   0.00000   0.00000   0.00000   0.00000 ...
   0.00000   0.00000   0.00000   0.00000   0.00115   0.00000   0.00000   0.00001   0.00000   0.00000   0.00000   0.00000 ...
   0.00000   0.00000   0.00000   0.00000   0.00000   0.00000   0.00000   0.00000   0.76565   0.00000   0.00000   0.00000 ...
   0.00000   0.00000   0.00000   0.00000   0.00000   0.00000   0.00000   0.00000   0.00000   0.76565   0.00000   0.00000 ...
   0.00000   0.00000   0.00000   0.00000   0.00000   0.00000   0.00000   0.00000   0.00000   0.00000   0.78614   0.00000 ...
   0.00000   0.00000   0.00000   0.00000   0.00000   0.00000   0.00000   0.00000   0.00000   0.00000   0.00000   0.76565 ...
   ...  only 12  components have been written...
 Atom #  1 - Spin component 2
   0.45952   0.00197   0.00000   0.00000   0.00000   0.00000   0.00000   0.00000   0.00000   0.00000   0.00000   0.00000 ...
   0.00197   0.00001   0.00000   0.00000   0.00000   0.00000   0.00000   0.00000   0.00000   0.00000   0.00000   0.00000 ...
   0.00000   0.00000   0.36143   0.00000   0.00000   0.00121   0.00000   0.00000   0.00000   0.00000   0.00000   0.00000 ...
   0.00000   0.00000   0.00000   0.36143   0.00000   0.00000   0.00121   0.00000   0.00000   0.00000   0.00000   0.00000 ...
   0.00000   0.00000   0.00000   0.00000   0.36143   0.00000   0.00000   0.00121   0.00000   0.00000   0.00000   0.00000 ...
   0.00000   0.00000   0.00121   0.00000   0.00000   0.00001   0.00000   0.00000   0.00000   0.00000   0.00000   0.00000 ...
   0.00000   0.00000   0.00000   0.00121   0.00000   0.00000   0.00001   0.00000   0.00000   0.00000   0.00000   0.00000 ...
   0.00000   0.00000   0.00000   0.00000   0.00121   0.00000   0.00000   0.00001   0.00000   0.00000   0.00000   0.00000 ...
   0.00000   0.00000   0.00000   0.00000   0.00000   0.00000   0.00000   0.00000   0.68118   0.00000   0.00000   0.00000 ...
   0.00000   0.00000   0.00000   0.00000   0.00000   0.00000   0.00000   0.00000   0.00000   0.68118   0.00000   0.00000 ...
   0.00000   0.00000   0.00000   0.00000   0.00000   0.00000   0.00000   0.00000   0.00000   0.00000   0.73651   0.00000 ...
   0.00000   0.00000   0.00000   0.00000   0.00000   0.00000   0.00000   0.00000   0.00000   0.00000   0.00000   0.68118 ...
   ...  only 12  components have been written...


================================================================================

 ----iterations are completed or convergence reached----

 Mean square residual over all n,k,spin=   1.0340E-08; max=  5.5584E-06
  -0.0833 -0.1667  0.0000    1  1.29986E-10 kpt; spin; max resid(k); each band:
  3.73E-12 1.19E-12 8.20E-13 4.20E-13 4.99E-13 1.44E-13 3.49E-12 3.84E-12
  1.16E-12 2.48E-12 3.71E-12 1.15E-12 2.02E-12 1.30E-10
  -0.0833 -0.3333  0.0000    1  4.87190E-12 kpt; spin; max resid(k); each band:
  4.87E-12 3.14E-12 7.23E-13 1.61E-12 3.50E-13 2.17E-12 3.86E-12 1.67E-12
  4.35E-12 1.31E-12 2.50E-12 1.47E-12 2.27E-12 3.65E-12
  -0.1667 -0.2500  0.0000    1  4.65801E-12 kpt; spin; max resid(k); each band:
  2.26E-12 2.62E-12 1.58E-12 7.85E-13 1.52E-12 1.68E-13 3.10E-12 1.96E-12
  4.66E-12 2.99E-12 1.68E-12 1.02E-12 5.59E-13 4.22E-12
  -0.0833 -0.2500  0.0833    1  3.66741E-12 kpt; spin; max resid(k); each band:
  3.32E-12 2.55E-12 9.42E-13 1.53E-12 9.72E-13 1.08E-12 3.58E-12 3.30E-12
  3.67E-12 1.64E-12 1.89E-12 1.47E-12 2.00E-12 2.94E-12
  -0.0833  0.5000  0.0000    1  5.61460E-12 kpt; spin; max resid(k); each band:
  5.61E-12 1.35E-12 1.50E-12 1.63E-12 5.33E-14 4.50E-12 4.20E-12 3.34E-12
  6.91E-13 2.14E-12 3.40E-12 3.24E-12 3.15E-12 1.50E-12
  -0.1667 -0.4167  0.0000    1  4.80035E-12 kpt; spin; max resid(k); each band:
  4.80E-12 1.72E-12 3.06E-12 9.37E-13 1.81E-13 4.41E-12 4.03E-12 1.68E-12
  3.85E-12 4.48E-12 3.24E-12 1.69E-12 2.42E-12 2.33E-12
  -0.0833 -0.4167  0.0833    1  5.43464E-12 kpt; spin; max resid(k); each band:
  5.43E-12 1.07E-12 2.28E-12 1.91E-12 3.85E-13 4.43E-12 4.29E-12 2.95E-12
  3.45E-12 2.51E-12 3.28E-12 2.78E-12 2.79E-12 2.12E-12
  -0.2500 -0.3333  0.0000    1  5.25673E-12 kpt; spin; max resid(k); each band:
  2.23E-12 3.54E-12 2.51E-12 5.92E-13 1.68E-13 3.73E-12 2.90E-12 1.90E-12
  4.10E-12 4.11E-12 5.26E-12 4.48E-13 6.85E-13 3.82E-12
  -0.1667 -0.3333  0.0833    1  4.06612E-12 kpt; spin; max resid(k); each band:
  3.50E-12 3.01E-12 1.91E-12 1.18E-12 6.65E-13 3.46E-12 3.67E-12 2.97E-12
  4.07E-12 4.06E-12 3.71E-12 1.66E-12 1.75E-12 1.75E-12
  -0.0833 -0.3333  0.1667    1  4.80982E-12 kpt; spin; max resid(k); each band:
  4.81E-12 2.90E-12 1.17E-12 1.18E-12 1.03E-12 3.91E-12 4.20E-12 3.63E-12
  3.78E-12 3.13E-12 2.38E-12 2.33E-12 2.96E-12 3.74E-12
  -0.0833  0.3333  0.0000    1  5.11238E-12 kpt; spin; max resid(k); each band:
  5.11E-12 1.13E-12 1.52E-12 2.90E-12 7.42E-13 2.45E-12 4.01E-12 3.17E-12
  2.79E-12 7.22E-13 2.76E-12 2.50E-12 2.25E-12 2.19E-12
  -0.1667  0.4167  0.0000    1  5.55218E-12 kpt; spin; max resid(k); each band:
  5.08E-12 7.23E-13 1.42E-12 2.63E-12 1.83E-13 4.87E-12 4.09E-12 3.58E-12
  1.23E-12 5.04E-12 2.79E-12 3.32E-12 2.29E-12 5.55E-12
  -0.2500  0.5000  0.0000    1  6.08910E-12 kpt; spin; max resid(k); each band:
  3.62E-12 1.92E-12 2.97E-12 9.59E-13 1.35E-13 5.42E-12 3.85E-12 4.41E-12
  1.35E-12 6.09E-12 4.43E-12 1.82E-12 1.98E-12 1.66E-12
  -0.1667  0.5000  0.0833    1  1.98160E-09 kpt; spin; max resid(k); each band:
  4.41E-12 7.36E-13 2.98E-12 1.00E-12 3.22E-13 5.44E-12 4.13E-12 3.56E-12
  3.94E-12 4.87E-12 3.48E-12 3.24E-12 2.17E-12 1.98E-09
  -0.3333 -0.4167  0.0000    1  6.35819E-12 kpt; spin; max resid(k); each band:
  9.60E-13 3.81E-12 1.50E-12 5.24E-13 1.72E-13 5.43E-12 1.39E-12 4.64E-12
  1.19E-12 3.96E-12 6.36E-12 9.12E-13 7.37E-13 5.60E-13
  -0.2500 -0.4167  0.0833    1  5.49509E-12 kpt; spin; max resid(k); each band:
  1.93E-12 3.48E-12 2.55E-12 6.85E-13 3.30E-13 5.50E-12 3.11E-12 2.39E-12
  4.72E-12 5.47E-12 5.07E-12 2.05E-12 1.12E-12 2.02E-12
  -0.1667 -0.4167  0.1667    1  5.59419E-12 kpt; spin; max resid(k); each band:
  2.62E-12 2.23E-12 3.45E-12 8.44E-13 4.10E-13 5.59E-12 4.18E-12 3.24E-12
  4.93E-12 4.98E-12 3.67E-12 3.66E-12 1.33E-12 2.23E-12
  -0.0833 -0.4167  0.2500    1  5.71808E-12 kpt; spin; max resid(k); each band:
  2.28E-12 2.43E-12 3.25E-12 8.77E-13 5.30E-13 5.71E-12 4.57E-12 4.30E-12
  3.56E-12 5.72E-12 2.49E-12 4.79E-12 1.47E-12 1.92E-12
  -0.0833  0.1667  0.0000    1  4.92433E-12 kpt; spin; max resid(k); each band:
  2.41E-12 1.80E-12 6.03E-13 2.25E-12 5.81E-13 4.63E-13 3.14E-12 3.42E-12
  1.86E-12 3.45E-13 3.17E-12 1.69E-12 8.64E-13 4.92E-12
  -0.1667  0.2500  0.0000    1  4.84609E-12 kpt; spin; max resid(k); each band:
  4.85E-12 3.14E-12 3.33E-13 1.18E-12 1.41E-12 1.82E-12 3.92E-12 3.67E-12
  3.52E-12 1.28E-12 1.54E-12 1.74E-12 3.60E-12 8.46E-13
  -0.2500  0.3333  0.0000    1  5.80124E-12 kpt; spin; max resid(k); each band:
  4.17E-12 2.99E-13 3.11E-12 1.17E-12 9.81E-13 5.00E-12 4.77E-12 3.84E-12
  1.55E-12 5.80E-12 1.24E-12 3.45E-12 1.64E-12 2.62E-12
  -0.3333  0.4167  0.0000    1  5.55840E-06 kpt; spin; max resid(k); each band:
  1.85E-12 3.46E-12 2.85E-12 8.59E-13 4.53E-13 5.24E-12 3.83E-12 4.78E-12
  9.04E-13 6.58E-12 4.91E-12 1.67E-12 1.14E-12 5.56E-06
  -0.4167  0.5000  0.0000    1  6.87480E-09 kpt; spin; max resid(k); each band:
  5.45E-13 4.36E-12 2.09E-13 9.63E-13 1.27E-13 3.32E-12 4.27E-12 2.04E-12
  4.90E-13 3.71E-12 7.20E-12 5.25E-13 1.12E-12 6.87E-09
  -0.3333  0.5000  0.0833    1  5.96747E-12 kpt; spin; max resid(k); each band:
  9.32E-13 4.05E-12 2.56E-12 4.40E-13 1.61E-13 4.62E-12 1.53E-12 4.91E-12
  2.86E-12 5.97E-12 5.90E-12 1.60E-12 7.80E-13 1.47E-12
  -0.2500  0.5000  0.1667    1  5.65314E-12 kpt; spin; max resid(k); each band:
  6.80E-13 3.79E-12 3.48E-12 8.06E-13 9.29E-14 4.91E-12 3.90E-12 3.14E-12
  5.38E-12 5.65E-12 4.78E-12 3.69E-12 1.60E-12 6.17E-13
  -0.0833  0.0000  0.0000    1  7.16792E-12 kpt; spin; max resid(k); each band:
  3.64E-12 8.12E-13 2.96E-13 2.95E-13 1.18E-13 1.19E-13 1.80E-12 2.61E-12
  1.75E-13 1.74E-13 7.17E-12 9.34E-13 9.47E-13 5.00E-12
  -0.2500  0.0000  0.0000    1  4.47134E-12 kpt; spin; max resid(k); each band:
  3.37E-12 2.59E-12 6.53E-13 1.90E-12 6.52E-13 6.00E-13 3.48E-12 4.13E-12
  1.21E-12 1.25E-12 2.85E-12 1.46E-12 1.40E-12 4.47E-12
  -0.4167  0.0000  0.0000    1  5.69461E-12 kpt; spin; max resid(k); each band:
  5.69E-12 1.39E-12 1.23E-12 9.02E-14 2.17E-13 3.69E-12 4.29E-12 3.10E-12
  4.44E-13 3.48E-13 2.78E-12 2.82E-12 3.21E-12 1.23E-12
  -0.0833 -0.1667  0.0000    2  1.44742E-11 kpt; spin; max resid(k); each band:
  5.09E-12 3.96E-13 3.76E-13 2.50E-13 7.70E-13 1.39E-13 5.17E-12 4.44E-12
  1.57E-12 3.49E-12 5.47E-12 1.31E-12 2.69E-12 1.45E-11
  -0.0833 -0.3333  0.0000    2  7.74196E-12 kpt; spin; max resid(k); each band:
  5.33E-12 4.59E-12 1.71E-12 8.96E-13 4.18E-13 2.44E-12 5.01E-12 1.00E-12
  7.74E-12 1.08E-12 3.10E-12 2.32E-12 3.53E-12 1.94E-12
  -0.1667 -0.2500  0.0000    2  8.59012E-12 kpt; spin; max resid(k); each band:
  4.84E-12 8.98E-13 1.18E-12 4.39E-13 1.07E-12 1.35E-13 4.33E-12 1.74E-12
  8.59E-12 2.27E-12 2.02E-12 1.94E-12 8.93E-13 1.72E-12
  -0.0833 -0.2500  0.0833    2  5.90169E-12 kpt; spin; max resid(k); each band:
  5.24E-12 1.30E-12 1.63E-12 8.44E-13 1.22E-12 9.47E-13 4.71E-12 3.71E-12
  5.90E-12 1.57E-12 2.39E-12 3.13E-12 2.13E-12 1.62E-12
  -0.0833  0.5000  0.0000    2  8.17968E-12 kpt; spin; max resid(k); each band:
  2.00E-12 3.17E-12 2.01E-12 3.32E-12 1.87E-13 8.18E-12 4.84E-12 4.84E-12
  4.23E-13 2.59E-12 4.18E-12 4.31E-12 1.91E-12 1.40E-12
  -0.1667 -0.4167  0.0000    2  7.03742E-12 kpt; spin; max resid(k); each band:
  4.97E-12 5.94E-12 1.66E-12 1.12E-12 2.05E-13 5.60E-12 4.74E-12 1.01E-12
  5.26E-12 7.04E-12 3.87E-12 2.00E-12 3.44E-12 1.04E-12
  -0.0833 -0.4167  0.0833    2  7.34181E-12 kpt; spin; max resid(k); each band:
  2.69E-12 4.42E-12 3.02E-12 2.54E-12 4.39E-13 7.34E-12 5.04E-12 3.24E-12
  4.43E-12 3.56E-12 3.08E-12 3.45E-12 3.20E-12 1.75E-12
  -0.2500 -0.3333  0.0000    2  1.02567E-11 kpt; spin; max resid(k); each band:
  1.03E-11 1.01E-12 1.51E-12 4.51E-13 1.13E-13 2.50E-12 2.97E-12 1.37E-12
  5.62E-12 6.79E-12 3.49E-12 7.37E-13 1.28E-12 1.60E-12
  -0.1667 -0.3333  0.0833    2  8.90141E-12 kpt; spin; max resid(k); each band:
  8.90E-12 2.05E-12 1.52E-12 9.41E-13 7.56E-13 3.57E-12 4.06E-12 2.77E-12
  5.65E-12 5.95E-12 4.25E-12 2.44E-12 1.77E-12 1.25E-12
  -0.0833 -0.3333  0.1667    2  5.41002E-12 kpt; spin; max resid(k); each band:
  4.86E-12 4.80E-12 1.95E-12 1.85E-12 6.27E-13 5.41E-12 4.40E-12 3.82E-12
  4.88E-12 4.33E-12 2.25E-12 3.52E-12 1.93E-12 3.74E-12
  -0.0833  0.3333  0.0000    2  6.90315E-12 kpt; spin; max resid(k); each band:
  3.94E-12 1.31E-12 1.84E-12 6.90E-12 5.97E-13 4.40E-12 4.84E-12 4.42E-12
  3.66E-12 5.85E-13 2.76E-12 4.62E-12 2.80E-12 1.30E-12
  -0.1667  0.4167  0.0000    2  7.96029E-12 kpt; spin; max resid(k); each band:
  1.80E-12 5.30E-12 1.84E-12 3.31E-12 1.12E-13 7.96E-12 4.65E-12 3.64E-12
  1.15E-12 5.59E-12 2.75E-12 3.11E-12 2.39E-12 4.43E-12
  -0.2500  0.5000  0.0000    2  9.38529E-12 kpt; spin; max resid(k); each band:
  5.33E-12 5.47E-12 1.26E-12 1.12E-12 6.31E-14 6.01E-12 4.35E-12 4.74E-12
  1.13E-12 9.39E-12 5.21E-12 1.47E-12 2.39E-12 1.45E-12
  -0.1667  0.5000  0.0833    2  6.95899E-11 kpt; spin; max resid(k); each band:
  2.09E-12 7.31E-12 1.86E-12 1.37E-12 2.50E-13 7.35E-12 4.09E-12 3.19E-12
  4.58E-12 6.05E-12 2.69E-12 3.61E-12 2.13E-12 6.96E-11
  -0.3333 -0.4167  0.0000    2  1.09591E-11 kpt; spin; max resid(k); each band:
  1.10E-11 7.63E-13 8.32E-13 4.66E-13 1.08E-13 3.62E-12 1.37E-12 6.10E-12
  1.03E-12 7.77E-12 3.00E-12 7.61E-13 1.19E-12 5.29E-13
  -0.2500 -0.4167  0.0833    2  9.36563E-12 kpt; spin; max resid(k); each band:
  9.37E-12 1.93E-12 1.32E-12 7.08E-13 2.53E-13 4.86E-12 3.26E-12 2.13E-12
  6.35E-12 8.39E-12 5.60E-12 1.83E-12 1.19E-12 3.39E-12
  -0.1667 -0.4167  0.1667    2  7.15739E-12 kpt; spin; max resid(k); each band:
  7.16E-12 3.47E-12 1.35E-12 1.52E-12 2.43E-13 5.76E-12 4.17E-12 3.55E-12
  6.56E-12 5.97E-12 2.78E-12 4.58E-12 8.85E-13 2.33E-12
  -0.0833 -0.4167  0.2500    2  7.89156E-12 kpt; spin; max resid(k); each band:
  5.27E-12 5.08E-12 1.09E-12 1.54E-12 2.58E-13 6.89E-12 3.52E-12 5.15E-12
  4.07E-12 7.89E-12 1.63E-12 5.10E-12 9.78E-13 3.17E-12
  -0.0833  0.1667  0.0000    2  5.15919E-12 kpt; spin; max resid(k); each band:
  3.41E-12 7.46E-13 7.52E-13 9.50E-13 9.84E-13 2.90E-13 5.16E-12 4.29E-12
  2.54E-12 6.72E-13 4.34E-12 2.75E-12 1.30E-12 2.06E-12
  -0.1667  0.2500  0.0000    2  5.54310E-12 kpt; spin; max resid(k); each band:
  5.54E-12 1.93E-12 3.14E-12 1.78E-12 7.73E-13 2.64E-12 4.41E-12 3.98E-12
  4.68E-12 1.37E-12 2.02E-12 3.60E-12 1.81E-12 1.68E-12
  -0.2500  0.3333  0.0000    2  7.05453E-12 kpt; spin; max resid(k); each band:
  2.29E-12 7.05E-12 1.48E-12 2.01E-12 5.32E-13 7.04E-12 4.17E-12 4.14E-12
  1.71E-12 6.76E-12 1.21E-12 1.76E-12 2.79E-12 2.54E-12
  -0.3333  0.4167  0.0000    2  2.16561E-06 kpt; spin; max resid(k); each band:
  7.92E-12 2.80E-12 1.01E-12 6.04E-13 1.49E-13 4.20E-12 4.40E-12 6.86E-12
  1.22E-12 1.28E-11 5.73E-12 8.26E-13 1.16E-12 2.17E-06
  -0.4167  0.5000  0.0000    2  3.71546E-07 kpt; spin; max resid(k); each band:
  1.11E-11 8.45E-13 2.16E-13 3.64E-13 4.36E-14 2.37E-12 6.05E-12 1.90E-12
  6.26E-13 8.31E-12 2.61E-12 2.20E-13 1.48E-12 3.72E-07
  -0.3333  0.5000  0.0833    2  1.02370E-11 kpt; spin; max resid(k); each band:
  1.01E-11 1.25E-12 9.67E-13 7.58E-13 8.01E-14 3.47E-12 2.07E-12 7.88E-12
  3.01E-12 1.02E-11 6.56E-12 9.82E-13 7.94E-13 2.51E-12
  -0.2500  0.5000  0.1667    2  9.54831E-12 kpt; spin; max resid(k); each band:
  9.55E-12 1.17E-12 1.20E-12 1.47E-12 5.45E-14 4.02E-12 4.02E-12 3.55E-12
  7.88E-12 7.51E-12 4.92E-12 3.22E-12 2.92E-12 5.87E-13
  -0.0833  0.0000  0.0000    2  1.04935E-11 kpt; spin; max resid(k); each band:
  4.94E-12 3.27E-13 1.14E-13 1.13E-13 1.50E-13 1.50E-13 9.54E-13 3.13E-12
  4.11E-13 4.10E-13 1.05E-11 8.85E-13 8.97E-13 6.30E-12
  -0.2500  0.0000  0.0000    2  8.24219E-12 kpt; spin; max resid(k); each band:
  4.10E-12 2.62E-12 1.08E-12 4.82E-13 7.09E-13 7.26E-13 5.16E-12 6.73E-12
  9.51E-13 1.21E-12 3.89E-12 2.60E-12 2.58E-12 8.24E-12
  -0.4167  0.0000  0.0000    2  6.86287E-12 kpt; spin; max resid(k); each band:
  2.63E-12 1.99E-12 1.97E-12 2.87E-13 3.01E-13 6.86E-12 5.12E-12 4.79E-12
  1.68E-13 1.44E-13 4.63E-12 4.61E-12 2.16E-12 6.52E-13
 reduced coordinates (array xred) for    1 atoms
       0.000000000000      0.000000000000      0.000000000000
 rms dE/dt=  0.0000E+00; max dE/dt=  0.0000E+00; dE/dt below (all hartree)
    1       0.000000000000      0.000000000000      0.000000000000

 cartesian coordinates (angstrom) at end:
    1      0.00000000000000     0.00000000000000     0.00000000000000

 cartesian forces (hartree/bohr) at end:
    1     -0.00000000000000    -0.00000000000000    -0.00000000000000
 frms,max,avg= 0.0000000E+00 0.0000000E+00   0.000E+00  0.000E+00  0.000E+00 h/b

 cartesian forces (eV/Angstrom) at end:
    1     -0.00000000000000    -0.00000000000000    -0.00000000000000
 frms,max,avg= 0.0000000E+00 0.0000000E+00   0.000E+00  0.000E+00  0.000E+00 e/A
 length scales=  6.651835987757  6.651835987757  6.651835987757 bohr
              =  3.520000000000  3.520000000000  3.520000000000 angstroms
 Fermi (or HOMO) energy (hartree) =   0.28428   Average Vxc (hartree)=  -0.42909
 Magnetization (Bohr magneton)=  3.41852164E-01
 Total spin up =  5.17092608E+00   Total spin down =  4.82907392E+00
 Eigenvalues (hartree) for nkpt=  28  k points, SPIN UP:
 kpt#   1, nband= 14, wtk=  0.02778, kpt= -0.0833 -0.1667  0.0000 (reduced coord)
   0.05549   0.20221   0.21831   0.22751   0.24986   0.25936   1.17064   1.27085
   1.28399   1.37118   1.50826   1.69781   1.70333   1.86420
      occupation numbers for kpt#   1
   1.00000   1.00000   1.00000   1.00000   1.00000   1.00000   0.00000   0.00000
   0.00000   0.00000   0.00000   0.00000   0.00000   0.00000
 kpt#   2, nband= 14, wtk=  0.02778, kpt= -0.0833 -0.3333  0.0000 (reduced coord)
   0.12353   0.20558   0.22163   0.22225   0.26561   0.26764   0.84507   1.21956
   1.23031   1.31961   1.55684   1.67892   1.68666   1.89087
      occupation numbers for kpt#   2
   1.00000   1.00000   1.00000   1.00000   0.99978   0.99915   0.00000   0.00000
   0.00000   0.00000   0.00000   0.00000   0.00000   0.00000
 kpt#   3, nband= 14, wtk=  0.02778, kpt= -0.1667 -0.2500  0.0000 (reduced coord)
   0.09927   0.18731   0.21735   0.22445   0.24417   0.25518   1.06872   1.15965
   1.26392   1.32177   1.36825   1.73638   1.74108   1.94084
      occupation numbers for kpt#   3
   1.00000   1.00000   1.00000   1.00000   1.00000   1.00000   0.00000   0.00000
   0.00000   0.00000   0.00000   0.00000   0.00000   0.00000
 kpt#   4, nband= 14, wtk=  0.05556, kpt= -0.0833 -0.2500  0.0833 (reduced coord)
   0.11696   0.18559   0.21329   0.23059   0.24738   0.27530   0.96040   1.09848
   1.28905   1.36890   1.46115   1.63896   1.78451   1.86898
      occupation numbers for kpt#   4
   1.00000   1.00000   1.00000   1.00000   1.00000   0.95465   0.00000   0.00000
   0.00000   0.00000   0.00000   0.00000   0.00000   0.00000
 kpt#   5, nband= 14, wtk=  0.02778, kpt= -0.0833  0.5000  0.0000 (reduced coord)
   0.13278   0.20552   0.21003   0.24853   0.27117   0.36671   0.59968   1.16369
   1.20675   1.21137   1.66762   1.69108   1.78175   1.98292
      occupation numbers for kpt#   5
   1.00000   1.00000   1.00000   1.00000   0.99325   0.00000   0.00000   0.00000
   0.00000   0.00000   0.00000   0.00000   0.00000   0.00000
 kpt#   6, nband= 14, wtk=  0.02778, kpt= -0.1667 -0.4167  0.0000 (reduced coord)
   0.14367   0.18851   0.21338   0.22795   0.27602   0.32913   0.75560   1.11487
   1.12792   1.24740   1.61966   1.74595   1.75877   1.91385
      occupation numbers for kpt#   6
   1.00000   1.00000   1.00000   1.00000   0.94032   0.00000   0.00000   0.00000
   0.00000   0.00000   0.00000   0.00000   0.00000   0.00000
 kpt#   7, nband= 14, wtk=  0.05556, kpt= -0.0833 -0.4167  0.0833 (reduced coord)
   0.14069   0.19797   0.21736   0.22735   0.26756   0.36910   0.66318   1.08077
   1.15189   1.26873   1.64963   1.72470   1.83168   1.90971
      occupation numbers for kpt#   7
   1.00000   1.00000   1.00000   1.00000   0.99919   0.00000   0.00000   0.00000
   0.00000   0.00000   0.00000   0.00000   0.00000   0.00000
 kpt#   8, nband= 14, wtk=  0.02778, kpt= -0.2500 -0.3333  0.0000 (reduced coord)
   0.13532   0.17090   0.22584   0.24359   0.26321   0.27844   0.97379   1.04560
   1.10623   1.27682   1.37257   1.83581   1.84033   2.05536
      occupation numbers for kpt#   8
   1.00000   1.00000   1.00000   1.00000   0.99996   0.86422   0.00000   0.00000
   0.00000   0.00000   0.00000   0.00000   0.00000   0.00000
 kpt#   9, nband= 14, wtk=  0.05556, kpt= -0.1667 -0.3333  0.0833 (reduced coord)
   0.14795   0.17628   0.20349   0.24251   0.26319   0.31916   0.87215   1.00629
   1.11911   1.33369   1.47755   1.72754   1.85554   1.98999
      occupation numbers for kpt#   9
   1.00000   1.00000   1.00000   1.00000   0.99997   0.00000   0.00000   0.00000
   0.00000   0.00000   0.00000   0.00000   0.00000   0.00000
 kpt#  10, nband= 14, wtk=  0.05556, kpt= -0.0833 -0.3333  0.1667 (reduced coord)
   0.15881   0.18871   0.19331   0.23551   0.25189   0.37104   0.77805   0.92559
   1.14807   1.34218   1.55158   1.75008   1.82424   2.01446
      occupation numbers for kpt#  10
   1.00000   1.00000   1.00000   1.00000   1.00000   0.00000   0.00000   0.00000
   0.00000   0.00000   0.00000   0.00000   0.00000   0.00000
 kpt#  11, nband= 14, wtk=  0.02778, kpt= -0.0833  0.3333  0.0000 (reduced coord)
   0.13317   0.21328   0.22227   0.22986   0.25829   0.30292   0.74855   1.15071
   1.23854   1.31102   1.59726   1.65484   1.76386   1.92446
      occupation numbers for kpt#  11
   1.00000   1.00000   1.00000   1.00000   1.00000   0.00022   0.00000   0.00000
   0.00000   0.00000   0.00000   0.00000   0.00000   0.00000
 kpt#  12, nband= 14, wtk=  0.02778, kpt= -0.1667  0.4167  0.0000 (reduced coord)
   0.14827   0.19633   0.22035   0.22470   0.26692   0.42945   0.61037   1.02141
   1.17378   1.22690   1.70272   1.72156   1.93590   1.95814
      occupation numbers for kpt#  12
   1.00000   1.00000   1.00000   1.00000   0.99947   0.00000   0.00000   0.00000
   0.00000   0.00000   0.00000   0.00000   0.00000   0.00000
 kpt#  13, nband= 14, wtk=  0.02778, kpt= -0.2500  0.5000  0.0000 (reduced coord)
   0.15393   0.17337   0.21326   0.23962   0.28005   0.42855   0.69217   0.94861
   1.03970   1.26512   1.63268   1.80751   1.82827   2.04767
      occupation numbers for kpt#  13
   1.00000   1.00000   1.00000   1.00000   0.78742   0.00000   0.00000   0.00000
   0.00000   0.00000   0.00000   0.00000   0.00000   0.00000
 kpt#  14, nband= 14, wtk=  0.05556, kpt= -0.1667  0.5000  0.0833 (reduced coord)
   0.15675   0.18245   0.20712   0.23064   0.27248   0.46933   0.61598   0.97857
   1.03523   1.29448   1.66937   1.81430   1.84718   1.99286
      occupation numbers for kpt#  14
   1.00000   1.00000   1.00000   1.00000   0.98694   0.00000   0.00000   0.00000
   0.00000   0.00000   0.00000   0.00000   0.00000   0.00000
 kpt#  15, nband= 14, wtk=  0.02778, kpt= -0.3333 -0.4167  0.0000 (reduced coord)
   0.13804   0.15685   0.24884   0.26504   0.27110   0.35204   0.89100   0.92145
   0.95749   1.27968   1.39293   1.93648   1.96785   2.10497
      occupation numbers for kpt#  15
   1.00000   1.00000   1.00000   0.99986   0.99350   0.00000   0.00000   0.00000
   0.00000   0.00000   0.00000   0.00000   0.00000   0.00000
 kpt#  16, nband= 14, wtk=  0.05556, kpt= -0.2500 -0.4167  0.0833 (reduced coord)
   0.14896   0.16421   0.21802   0.26025   0.27261   0.40104   0.80240   0.92416
   0.94479   1.33615   1.48690   1.79573   1.96752   2.09934
      occupation numbers for kpt#  16
   1.00000   1.00000   1.00000   1.00000   0.98605   0.00000   0.00000   0.00000
   0.00000   0.00000   0.00000   0.00000   0.00000   0.00000
 kpt#  17, nband= 14, wtk=  0.05556, kpt= -0.1667 -0.4167  0.1667 (reduced coord)
   0.16402   0.17508   0.18978   0.24546   0.26592   0.46454   0.71342   0.86551
   0.96672   1.39512   1.57121   1.74376   1.94049   1.97810
      occupation numbers for kpt#  17
   1.00000   1.00000   1.00000   1.00000   0.99973   0.00000   0.00000   0.00000
   0.00000   0.00000   0.00000   0.00000   0.00000   0.00000
 kpt#  18, nband= 14, wtk=  0.05556, kpt= -0.0833 -0.4167  0.2500 (reduced coord)
   0.16599   0.17117   0.19497   0.23910   0.26525   0.53832   0.63195   0.81608
   1.00645   1.32622   1.67925   1.78092   1.88553   1.93961
      occupation numbers for kpt#  18
   1.00000   1.00000   1.00000   1.00000   0.99983   0.00000   0.00000   0.00000
   0.00000   0.00000   0.00000   0.00000   0.00000   0.00000
 kpt#  19, nband= 14, wtk=  0.02778, kpt= -0.0833  0.1667  0.0000 (reduced coord)
   0.07844   0.19385   0.22379   0.22663   0.24587   0.26072   1.06203   1.19234
   1.33870   1.44628   1.45142   1.60626   1.73843   1.84656
      occupation numbers for kpt#  19
   1.00000   1.00000   1.00000   1.00000   1.00000   1.00000   0.00000   0.00000
   0.00000   0.00000   0.00000   0.00000   0.00000   0.00000
 kpt#  20, nband= 14, wtk=  0.02778, kpt= -0.1667  0.2500  0.0000 (reduced coord)
   0.14259   0.18823   0.21524   0.22776   0.24605   0.31542   0.86551   1.00606
   1.28832   1.34922   1.50035   1.67300   1.81004   1.91054
      occupation numbers for kpt#  20
   1.00000   1.00000   1.00000   1.00000   1.00000   0.00000   0.00000   0.00000
   0.00000   0.00000   0.00000   0.00000   0.00000   0.00000
 kpt#  21, nband= 14, wtk=  0.02778, kpt= -0.2500  0.3333  0.0000 (reduced coord)
   0.16294   0.18548   0.19784   0.23152   0.24986   0.44113   0.69453   0.85920
   1.15729   1.25591   1.65644   1.76656   1.92964   1.94223
      occupation numbers for kpt#  21
   1.00000   1.00000   1.00000   1.00000   1.00000   0.00000   0.00000   0.00000
   0.00000   0.00000   0.00000   0.00000   0.00000   0.00000
 kpt#  22, nband= 14, wtk=  0.02778, kpt= -0.3333  0.4167  0.0000 (reduced coord)
   0.15537   0.16902   0.22512   0.25500   0.26933   0.54966   0.65713   0.79378
   1.00155   1.28835   1.64281   1.84659   1.85636   2.14612
      occupation numbers for kpt#  22
   1.00000   1.00000   1.00000   1.00000   0.99758   0.00000   0.00000   0.00000
   0.00000   0.00000   0.00000   0.00000   0.00000   0.00000
 kpt#  23, nband= 14, wtk=  0.02778, kpt= -0.4167  0.5000  0.0000 (reduced coord)
   0.13245   0.14855   0.26015   0.26467   0.26866   0.44103   0.77352   0.85129
   0.90645   1.28963   1.39985   1.96022   2.07281   2.19513
      occupation numbers for kpt#  23
   1.00000   1.00000   1.00000   0.99989   0.99839   0.00000   0.00000   0.00000
   0.00000   0.00000   0.00000   0.00000   0.00000   0.00000
 kpt#  24, nband= 14, wtk=  0.05556, kpt= -0.3333  0.5000  0.0833 (reduced coord)
   0.14601   0.15695   0.23534   0.26184   0.27596   0.50217   0.76198   0.78934
   0.89507   1.35235   1.49040   1.83512   2.03954   2.09764
      occupation numbers for kpt#  24
   1.00000   1.00000   1.00000   0.99999   0.94151   0.00000   0.00000   0.00000
   0.00000   0.00000   0.00000   0.00000   0.00000   0.00000
 kpt#  25, nband= 14, wtk=  0.05556, kpt= -0.2500  0.5000  0.1667 (reduced coord)
   0.16123   0.17572   0.20220   0.24804   0.28309   0.58842   0.68030   0.79534
   0.85165   1.45332   1.60423   1.70090   1.91431   2.06796
      occupation numbers for kpt#  25
   1.00000   1.00000   1.00000   1.00000   0.58852   0.00000   0.00000   0.00000
   0.00000   0.00000   0.00000   0.00000   0.00000   0.00000
 kpt#  26, nband= 14, wtk=  0.00926, kpt= -0.0833  0.0000  0.0000 (reduced coord)
   0.03036   0.21184   0.22542   0.22542   0.25853   0.25853   1.23721   1.28438
   1.36051   1.36051   1.58670   1.74673   1.74673   1.77059
      occupation numbers for kpt#  26
   1.00000   1.00000   1.00000   1.00000   1.00000   1.00000   0.00000   0.00000
   0.00000   0.00000   0.00000   0.00000   0.00000   0.00000
 kpt#  27, nband= 14, wtk=  0.00926, kpt= -0.2500  0.0000  0.0000 (reduced coord)
   0.09664   0.20500   0.22584   0.22584   0.25258   0.25258   0.94684   1.25836
   1.34301   1.34301   1.53329   1.62780   1.62780   1.96925
      occupation numbers for kpt#  27
   1.00000   1.00000   1.00000   1.00000   1.00000   1.00000   0.00000   0.00000
   0.00000   0.00000   0.00000   0.00000   0.00000   0.00000
 kpt#  28, nband= 14, wtk=  0.00926, kpt= -0.4167  0.0000  0.0000 (reduced coord)
   0.12708   0.21706   0.21706   0.26753   0.26753   0.29820   0.65150   1.18763
   1.25605   1.25605   1.66239   1.66239   1.70112   2.03782
      occupation numbers for kpt#  28
   1.00000   1.00000   1.00000   0.99920   0.99920   0.00433   0.00000   0.00000
   0.00000   0.00000   0.00000   0.00000   0.00000   0.00000
 Eigenvalues (hartree) for nkpt=  28  k points, SPIN DOWN:
 kpt#   1, nband= 14, wtk=  0.02778, kpt= -0.0833 -0.1667  0.0000 (reduced coord)
   0.05641   0.21420   0.23089   0.23992   0.26051   0.27039   1.17231   1.26971
   1.28645   1.37218   1.51131   1.69821   1.70435   1.86327
      occupation numbers for kpt#   1
   1.00000   1.00000   1.00000   1.00000   1.00000   0.99558   0.00000   0.00000
   0.00000   0.00000   0.00000   0.00000   0.00000   0.00000
 kpt#   2, nband= 14, wtk=  0.02778, kpt= -0.0833 -0.3333  0.0000 (reduced coord)
   0.12794   0.21467   0.23334   0.23341   0.27773   0.27835   0.84868   1.22273
   1.22896   1.32347   1.55700   1.67831   1.68630   1.89178
      occupation numbers for kpt#   2
   1.00000   1.00000   1.00000   1.00000   0.89128   0.86804   0.00000   0.00000
   0.00000   0.00000   0.00000   0.00000   0.00000   0.00000
 kpt#   3, nband= 14, wtk=  0.02778, kpt= -0.1667 -0.2500  0.0000 (reduced coord)
   0.10077   0.19887   0.22904   0.23731   0.25518   0.26648   1.07120   1.16239
   1.26310   1.32348   1.37129   1.73601   1.74077   1.94090
      occupation numbers for kpt#   3
   1.00000   1.00000   1.00000   1.00000   1.00000   0.99960   0.00000   0.00000
   0.00000   0.00000   0.00000   0.00000   0.00000   0.00000
 kpt#   4, nband= 14, wtk=  0.05556, kpt= -0.0833 -0.2500  0.0833 (reduced coord)
   0.11926   0.19685   0.22440   0.24309   0.25843   0.28671   0.96333   1.10096
   1.28919   1.37128   1.46286   1.63820   1.78434   1.86944
      occupation numbers for kpt#   4
   1.00000   1.00000   1.00000   1.00000   1.00000   0.32319   0.00000   0.00000
   0.00000   0.00000   0.00000   0.00000   0.00000   0.00000
 kpt#   5, nband= 14, wtk=  0.02778, kpt= -0.0833  0.5000  0.0000 (reduced coord)
   0.14177   0.21597   0.22112   0.25933   0.28426   0.36977   0.60605   1.16362
   1.20990   1.21322   1.66720   1.69043   1.78228   1.98469
      occupation numbers for kpt#   5
   1.00000   1.00000   1.00000   1.00000   0.50139   0.00000   0.00000   0.00000
   0.00000   0.00000   0.00000   0.00000   0.00000   0.00000
 kpt#   6, nband= 14, wtk=  0.02778, kpt= -0.1667 -0.4167  0.0000 (reduced coord)
   0.15124   0.19757   0.22423   0.23967   0.28858   0.33655   0.75949   1.11767
   1.12975   1.24833   1.62047   1.74547   1.75815   1.91483
      occupation numbers for kpt#   6
   1.00000   1.00000   1.00000   1.00000   0.20847   0.00000   0.00000   0.00000
   0.00000   0.00000   0.00000   0.00000   0.00000   0.00000
 kpt#   7, nband= 14, wtk=  0.05556, kpt= -0.0833 -0.4167  0.0833 (reduced coord)
   0.14956   0.20791   0.22771   0.23799   0.28045   0.37503   0.66804   1.08325
   1.15344   1.27004   1.64918   1.72434   1.83203   1.91112
      occupation numbers for kpt#   7
   1.00000   1.00000   1.00000   1.00000   0.76487   0.00000   0.00000   0.00000
   0.00000   0.00000   0.00000   0.00000   0.00000   0.00000
 kpt#   8, nband= 14, wtk=  0.02778, kpt= -0.2500 -0.3333  0.0000 (reduced coord)
   0.13971   0.18206   0.23637   0.25656   0.27483   0.28753   0.97647   1.04814
   1.10855   1.27882   1.37273   1.83544   1.83983   2.05552
      occupation numbers for kpt#   8
   1.00000   1.00000   1.00000   1.00000   0.96251   0.27000   0.00000   0.00000
   0.00000   0.00000   0.00000   0.00000   0.00000   0.00000
 kpt#   9, nband= 14, wtk=  0.05556, kpt= -0.1667 -0.3333  0.0833 (reduced coord)
   0.15334   0.18683   0.21426   0.25480   0.27480   0.32807   0.87526   1.00901
   1.12114   1.33520   1.47806   1.72712   1.85501   1.99071
      occupation numbers for kpt#   9
   1.00000   1.00000   1.00000   1.00000   0.96294   0.00000   0.00000   0.00000
   0.00000   0.00000   0.00000   0.00000   0.00000   0.00000
 kpt#  10, nband= 14, wtk=  0.05556, kpt= -0.0833 -0.3333  0.1667 (reduced coord)
   0.16673   0.19801   0.20399   0.24634   0.26493   0.37856   0.78175   0.92858
   1.15000   1.34355   1.55095   1.75054   1.82437   2.01552
      occupation numbers for kpt#  10
   1.00000   1.00000   1.00000   1.00000   0.99987   0.00000   0.00000   0.00000
   0.00000   0.00000   0.00000   0.00000   0.00000   0.00000
 kpt#  11, nband= 14, wtk=  0.02778, kpt= -0.0833  0.3333  0.0000 (reduced coord)
   0.14009   0.22453   0.23331   0.23748   0.27094   0.31219   0.75290   1.15240
   1.23867   1.31484   1.59674   1.65421   1.76391   1.92564
      occupation numbers for kpt#  11
   1.00000   1.00000   1.00000   1.00000   0.99404   0.00000   0.00000   0.00000
   0.00000   0.00000   0.00000   0.00000   0.00000   0.00000
 kpt#  12, nband= 14, wtk=  0.02778, kpt= -0.1667  0.4167  0.0000 (reduced coord)
   0.15752   0.20601   0.23135   0.23485   0.28012   0.43365   0.61626   1.02396
   1.17681   1.22666   1.70185   1.72136   1.93648   1.95964
      occupation numbers for kpt#  12
   1.00000   1.00000   1.00000   1.00000   0.78307   0.00000   0.00000   0.00000
   0.00000   0.00000   0.00000   0.00000   0.00000   0.00000
 kpt#  13, nband= 14, wtk=  0.02778, kpt= -0.2500  0.5000  0.0000 (reduced coord)
   0.16283   0.18261   0.22438   0.25122   0.29307   0.43362   0.69600   0.95161
   1.04222   1.26574   1.63347   1.80732   1.82753   2.04879
      occupation numbers for kpt#  13
   1.00000   1.00000   1.00000   1.00000   0.04854   0.00000   0.00000   0.00000
   0.00000   0.00000   0.00000   0.00000   0.00000   0.00000
 kpt#  14, nband= 14, wtk=  0.05556, kpt= -0.1667  0.5000  0.0833 (reduced coord)
   0.16637   0.19136   0.21805   0.24181   0.28571   0.47341   0.62126   0.98154
   1.03744   1.29510   1.66892   1.81501   1.84685   1.99452
      occupation numbers for kpt#  14
   1.00000   1.00000   1.00000   1.00000   0.39309   0.00000   0.00000   0.00000
   0.00000   0.00000   0.00000   0.00000   0.00000   0.00000
 kpt#  15, nband= 14, wtk=  0.02778, kpt= -0.3333 -0.4167  0.0000 (reduced coord)
   0.14512   0.16771   0.26101   0.27729   0.28393   0.35655   0.89379   0.92446
   0.95965   1.28151   1.39321   1.93641   1.96739   2.10558
      occupation numbers for kpt#  15
   1.00000   1.00000   0.99999   0.90627   0.52622   0.00000   0.00000   0.00000
   0.00000   0.00000   0.00000   0.00000   0.00000   0.00000
 kpt#  16, nband= 14, wtk=  0.05556, kpt= -0.2500 -0.4167  0.0833 (reduced coord)
   0.15676   0.17466   0.22896   0.27210   0.28550   0.40656   0.80541   0.92744
   0.94700   1.33747   1.48736   1.79545   1.96696   2.10052
      occupation numbers for kpt#  16
   1.00000   1.00000   1.00000   0.98915   0.40838   0.00000   0.00000   0.00000
   0.00000   0.00000   0.00000   0.00000   0.00000   0.00000
 kpt#  17, nband= 14, wtk=  0.05556, kpt= -0.1667 -0.4167  0.1667 (reduced coord)
   0.17274   0.18506   0.20065   0.25628   0.27961   0.46967   0.71708   0.86863
   0.96924   1.39616   1.57087   1.74452   1.93996   1.97997
      occupation numbers for kpt#  17
   1.00000   1.00000   1.00000   1.00000   0.81062   0.00000   0.00000   0.00000
   0.00000   0.00000   0.00000   0.00000   0.00000   0.00000
 kpt#  18, nband= 14, wtk=  0.05556, kpt= -0.0833 -0.4167  0.2500 (reduced coord)
   0.17560   0.18026   0.20620   0.24996   0.27904   0.54224   0.63628   0.81959
   1.00893   1.32689   1.67859   1.78200   1.88514   1.94148
      occupation numbers for kpt#  18
   1.00000   1.00000   1.00000   1.00000   0.83839   0.00000   0.00000   0.00000
   0.00000   0.00000   0.00000   0.00000   0.00000   0.00000
 kpt#  19, nband= 14, wtk=  0.02778, kpt= -0.0833  0.1667  0.0000 (reduced coord)
   0.07963   0.20567   0.23578   0.23928   0.25655   0.27200   1.06440   1.19384
   1.33869   1.45008   1.45168   1.60660   1.73870   1.84696
      occupation numbers for kpt#  19
   1.00000   1.00000   1.00000   1.00000   1.00000   0.98969   0.00000   0.00000
   0.00000   0.00000   0.00000   0.00000   0.00000   0.00000
 kpt#  20, nband= 14, wtk=  0.02778, kpt= -0.1667  0.2500  0.0000 (reduced coord)
   0.14720   0.19883   0.22537   0.23857   0.25887   0.32565   0.86894   1.00885
   1.28798   1.35318   1.49951   1.67312   1.81037   1.91086
      occupation numbers for kpt#  20
   1.00000   1.00000   1.00000   1.00000   1.00000   0.00000   0.00000   0.00000
   0.00000   0.00000   0.00000   0.00000   0.00000   0.00000
 kpt#  21, nband= 14, wtk=  0.02778, kpt= -0.2500  0.3333  0.0000 (reduced coord)
   0.17246   0.19437   0.20850   0.24239   0.26332   0.44668   0.69865   0.86246
   1.16033   1.25587   1.65545   1.76656   1.93120   1.94383
      occupation numbers for kpt#  21
   1.00000   1.00000   1.00000   1.00000   0.99996   0.00000   0.00000   0.00000
   0.00000   0.00000   0.00000   0.00000   0.00000   0.00000
 kpt#  22, nband= 14, wtk=  0.02778, kpt= -0.3333  0.4167  0.0000 (reduced coord)
   0.16396   0.17884   0.23624   0.26712   0.28208   0.55356   0.66065   0.79774
   1.00394   1.28918   1.64352   1.84660   1.85527   2.14815
      occupation numbers for kpt#  22
   1.00000   1.00000   1.00000   0.99939   0.66026   0.00000   0.00000   0.00000
   0.00000   0.00000   0.00000   0.00000   0.00000   0.00000
 kpt#  23, nband= 14, wtk=  0.02778, kpt= -0.4167  0.5000  0.0000 (reduced coord)
   0.14022   0.15926   0.27181   0.27785   0.28270   0.44316   0.77808   0.85327
   0.90831   1.29161   1.40030   1.96067   2.07205   2.19636
      occupation numbers for kpt#  23
   1.00000   1.00000   0.99063   0.88724   0.61714   0.00000   0.00000   0.00000
   0.00000   0.00000   0.00000   0.00000   0.00000   0.00000
 kpt#  24, nband= 14, wtk=  0.05556, kpt= -0.3333  0.5000  0.0833 (reduced coord)
   0.15401   0.16753   0.24693   0.27303   0.29000   0.50569   0.76514   0.79308
   0.89727   1.35367   1.49101   1.83474   2.03930   2.09960
      occupation numbers for kpt#  24
   1.00000   1.00000   1.00000   0.98301   0.14015   0.00000   0.00000   0.00000
   0.00000   0.00000   0.00000   0.00000   0.00000   0.00000
 kpt#  25, nband= 14, wtk=  0.05556, kpt= -0.2500  0.5000  0.1667 (reduced coord)
   0.16947   0.18633   0.21306   0.25878   0.29715   0.59224   0.68383   0.79921
   0.85414   1.45436   1.60445   1.70078   1.91627   2.06752
      occupation numbers for kpt#  25
   1.00000   1.00000   1.00000   1.00000   0.00759   0.00000   0.00000   0.00000
   0.00000   0.00000   0.00000   0.00000   0.00000   0.00000
 kpt#  26, nband= 14, wtk=  0.00926, kpt= -0.0833  0.0000  0.0000 (reduced coord)
   0.03120   0.22407   0.23766   0.23766   0.26946   0.26946   1.23608   1.28502
   1.36212   1.36212   1.58690   1.74949   1.74949   1.77102
      occupation numbers for kpt#  26
   1.00000   1.00000   1.00000   1.00000   0.99739   0.99739   0.00000   0.00000
   0.00000   0.00000   0.00000   0.00000   0.00000   0.00000
 kpt#  27, nband= 14, wtk=  0.00926, kpt= -0.2500  0.0000  0.0000 (reduced coord)
   0.09869   0.21525   0.23794   0.23794   0.26399   0.26399   0.94989   1.25681
   1.34668   1.34668   1.53350   1.62722   1.62722   1.97072
      occupation numbers for kpt#  27
   1.00000   1.00000   1.00000   1.00000   0.99993   0.99993   0.00000   0.00000
   0.00000   0.00000   0.00000   0.00000   0.00000   0.00000
 kpt#  28, nband= 14, wtk=  0.00926, kpt= -0.4167  0.0000  0.0000 (reduced coord)
   0.13546   0.22792   0.22792   0.28054   0.28054   0.30024   0.65691   1.18590
   1.25949   1.25949   1.66165   1.66165   1.70159   2.03964
      occupation numbers for kpt#  28
   1.00000   1.00000   1.00000   0.75928   0.75928   0.00131   0.00000   0.00000
   0.00000   0.00000   0.00000   0.00000   0.00000   0.00000
 Total charge density [el/Bohr^3]
,     Maximum=    6.8381E-01  at reduced coord.    0.0000    0.0000    0.0000
,Next maximum=    6.7398E-01  at reduced coord.    0.0000    0.0333    0.9667
,     Minimum=    2.2645E-02  at reduced coord.    0.5000    0.5000    0.5000
,Next minimum=    2.2733E-02  at reduced coord.    0.5000    0.5000    0.4667
,  Integrated=    1.0000E+01
 Spin up density      [el/Bohr^3]
,     Maximum=    3.5738E-01  at reduced coord.    0.0000    0.0000    0.0000
,Next maximum=    3.5224E-01  at reduced coord.    0.0000    0.0333    0.9667
,     Minimum=    1.1133E-02  at reduced coord.    0.5000    0.5000    0.5000
,Next minimum=    1.1178E-02  at reduced coord.    0.5000    0.5000    0.4667
,  Integrated=    5.1709E+00
 Spin down density    [el/Bohr^3]
,     Maximum=    3.2643E-01  at reduced coord.    0.0000    0.0000    0.0000
,Next maximum=    3.2174E-01  at reduced coord.    0.0000    0.0333    0.9667
,     Minimum=    1.1513E-02  at reduced coord.    0.5000    0.5000    0.5000
,Next minimum=    1.1556E-02  at reduced coord.    0.5000    0.5000    0.4667
,  Integrated=    4.8291E+00
 Magnetization (spin up - spin down) [el/Bohr^3]
,     Maximum=    3.0957E-02  at reduced coord.    0.0000    0.0000    0.0000
,Next maximum=    3.0507E-02  at reduced coord.    0.0000    0.0333    0.9667
,     Minimum=   -5.1047E-04  at reduced coord.    0.2667    0.2333    0.2333
,Next minimum=   -5.1047E-04  at reduced coord.    0.2333    0.2667    0.2333
,  Integrated=    3.4185E-01
 Relative magnetization (=zeta, between -1 and 1)
,     Maximum=    4.9858E-02  at reduced coord.    0.9000    0.9000    0.9000
,Next maximum=    4.9858E-02  at reduced coord.    0.3000    0.9000    0.9000
,     Minimum=   -1.6769E-02  at reduced coord.    0.5000    0.5000    0.5000
,Next minimum=   -1.6627E-02  at reduced coord.    0.5000    0.5000    0.4667

--------------------------------------------------------------------------------
 Components of total free energy (in Hartree) :

    Kinetic energy  =  7.75620025732584E+00
    Hartree energy  =  3.64876114853788E+00
    XC energy       = -1.83569113764797E+00
    Ewald energy    = -3.44631323032630E+01
    PspCore energy  =  2.80142419012676E+00
    Loc. psp. energy= -1.44552851251750E+01
    Spherical terms = -2.75102877248805E+00
    >>>>> Internal E= -3.92987517425835E+01

    -kT*entropy     = -1.53809933773175E-03
    >>>>>>>>> Etotal= -3.93002898419212E+01

 "Double-counting" decomposition of free energy:
    Band energy     =  2.12625574593567E+00
    Ewald energy    = -3.44631323032630E+01
    PspCore energy  =  2.80142419012676E+00
    Dble-C XC-energy= -3.18650259482495E+00
    Spherical terms = -6.57679851990553E+00
    >>>>> Internal E= -3.92987534819310E+01

    -kT*entropy     = -1.53809933773175E-03
    >>>> Etotal (DC)= -3.93002915812688E+01

  >Total energy in eV           = -1.06941527269778E+03
  >Total DC energy in eV        = -1.06941532002783E+03
--------------------------------------------------------------------------------

 Cartesian components of stress tensor (hartree/bohr^3)
  sigma(1 1)=  1.26518778E-02  sigma(3 2)=  0.00000000E+00
  sigma(2 2)=  1.26518778E-02  sigma(3 1)=  0.00000000E+00
  sigma(3 3)=  1.26518778E-02  sigma(2 1)=  0.00000000E+00

-Cartesian components of stress tensor (GPa)         [Pressure= -3.7223E+02 GPa]
- sigma(1 1)=  3.72231033E+02  sigma(3 2)=  0.00000000E+00
- sigma(2 2)=  3.72231033E+02  sigma(3 1)=  0.00000000E+00
- sigma(3 3)=  3.72231033E+02  sigma(2 1)=  0.00000000E+00

== END DATASET(S) ==============================================================
================================================================================
  
 -outvars: echo values of variables after computation  --------
            acell      6.6518359878E+00  6.6518359878E+00  6.6518359878E+00 Bohr
              amu      5.86900000E+01
             ecut      8.00000000E+00 Hartree
           etotal1    -3.9300291581E+01
            fcart1    -0.0000000000E+00 -0.0000000000E+00 -0.0000000000E+00
-          fftalg         112
           getwfk          -1
              ixc          11
           jdtset        1
              kpt     -8.33333333E-02 -1.66666667E-01  0.00000000E+00
                      -8.33333333E-02 -3.33333333E-01  0.00000000E+00
                      -1.66666667E-01 -2.50000000E-01  0.00000000E+00
                      -8.33333333E-02 -2.50000000E-01  8.33333333E-02
                      -8.33333333E-02  5.00000000E-01  0.00000000E+00
                      -1.66666667E-01 -4.16666667E-01  0.00000000E+00
                      -8.33333333E-02 -4.16666667E-01  8.33333333E-02
                      -2.50000000E-01 -3.33333333E-01  0.00000000E+00
                      -1.66666667E-01 -3.33333333E-01  8.33333333E-02
                      -8.33333333E-02 -3.33333333E-01  1.66666667E-01
                      -8.33333333E-02  3.33333333E-01  0.00000000E+00
                      -1.66666667E-01  4.16666667E-01  0.00000000E+00
                      -2.50000000E-01  5.00000000E-01  0.00000000E+00
                      -1.66666667E-01  5.00000000E-01  8.33333333E-02
                      -3.33333333E-01 -4.16666667E-01  0.00000000E+00
                      -2.50000000E-01 -4.16666667E-01  8.33333333E-02
                      -1.66666667E-01 -4.16666667E-01  1.66666667E-01
                      -8.33333333E-02 -4.16666667E-01  2.50000000E-01
                      -8.33333333E-02  1.66666667E-01  0.00000000E+00
                      -1.66666667E-01  2.50000000E-01  0.00000000E+00
                      -2.50000000E-01  3.33333333E-01  0.00000000E+00
                      -3.33333333E-01  4.16666667E-01  0.00000000E+00
                      -4.16666667E-01  5.00000000E-01  0.00000000E+00
                      -3.33333333E-01  5.00000000E-01  8.33333333E-02
                      -2.50000000E-01  5.00000000E-01  1.66666667E-01
                      -8.33333333E-02  0.00000000E+00  0.00000000E+00
                      -2.50000000E-01  0.00000000E+00  0.00000000E+00
                      -4.16666667E-01  0.00000000E+00  0.00000000E+00
         kptrlatt        6   -6    6     -6    6    6     -6   -6    6
          kptrlen      3.99110159E+01
P           mkmem          28
            natom           1
            nband          14
           ndtset           1
            ngfft          12      12      12
          ngfftdg          30      30      30
             nkpt          28
           nspden           2
           nsppol           2
            nstep          50
             nsym          48
           ntypat           1
              occ      1.000000  1.000000  1.000000  1.000000  1.000000  0.999999
                       0.000000  0.000000  0.000000  0.000000  0.000000  0.000000
                       0.000000  0.000000
                       1.000000  1.000000  1.000000  1.000000  0.999784  0.999145
                       0.000000  0.000000  0.000000  0.000000  0.000000  0.000000
                       0.000000  0.000000
                       1.000000  1.000000  1.000000  1.000000  1.000000  1.000000
                       0.000000  0.000000  0.000000  0.000000  0.000000  0.000000
                       0.000000  0.000000
                       1.000000  1.000000  1.000000  1.000000  1.000000  0.954653
                       0.000000  0.000000  0.000000  0.000000  0.000000  0.000000
                       0.000000  0.000000
                       1.000000  1.000000  1.000000  1.000000  0.993253  0.000000
                       0.000000  0.000000  0.000000  0.000000  0.000000  0.000000
                       0.000000  0.000000
                       1.000000  1.000000  1.000000  1.000000  0.940317  0.000000
                       0.000000  0.000000  0.000000  0.000000  0.000000  0.000000
                       0.000000  0.000000
                       1.000000  1.000000  1.000000  1.000000  0.999187  0.000000
                       0.000000  0.000000  0.000000  0.000000  0.000000  0.000000
                       0.000000  0.000000
                       1.000000  1.000000  1.000000  1.000000  0.999964  0.864216
                       0.000000  0.000000  0.000000  0.000000  0.000000  0.000000
                       0.000000  0.000000
                       1.000000  1.000000  1.000000  1.000000  0.999965  0.000000
                       0.000000  0.000000  0.000000  0.000000  0.000000  0.000000
                       0.000000  0.000000
                       1.000000  1.000000  1.000000  1.000000  1.000000  0.000000
                       0.000000  0.000000  0.000000  0.000000  0.000000  0.000000
                       0.000000  0.000000
                       1.000000  1.000000  1.000000  1.000000  1.000000  0.000220
                       0.000000  0.000000  0.000000  0.000000  0.000000  0.000000
                       0.000000  0.000000
                       1.000000  1.000000  1.000000  1.000000  0.999467  0.000000
                       0.000000  0.000000  0.000000  0.000000  0.000000  0.000000
                       0.000000  0.000000
                       1.000000  1.000000  1.000000  1.000000  0.787421  0.000000
                       0.000000  0.000000  0.000000  0.000000  0.000000  0.000000
                       0.000000  0.000000
                       1.000000  1.000000  1.000000  1.000000  0.986944  0.000000
                       0.000000  0.000000  0.000000  0.000000  0.000000  0.000000
                       0.000000  0.000000
                       1.000000  1.000000  1.000000  0.999857  0.993501  0.000000
                       0.000000  0.000000  0.000000  0.000000  0.000000  0.000000
                       0.000000  0.000000
                       1.000000  1.000000  1.000000  0.999997  0.986052  0.000000
                       0.000000  0.000000  0.000000  0.000000  0.000000  0.000000
                       0.000000  0.000000
                       1.000000  1.000000  1.000000  1.000000  0.999732  0.000000
                       0.000000  0.000000  0.000000  0.000000  0.000000  0.000000
                       0.000000  0.000000
                       1.000000  1.000000  1.000000  1.000000  0.999833  0.000000
                       0.000000  0.000000  0.000000  0.000000  0.000000  0.000000
                       0.000000  0.000000
                       1.000000  1.000000  1.000000  1.000000  1.000000  0.999996
                       0.000000  0.000000  0.000000  0.000000  0.000000  0.000000
                       0.000000  0.000000
                       1.000000  1.000000  1.000000  1.000000  1.000000  0.000000
                       0.000000  0.000000  0.000000  0.000000  0.000000  0.000000
                       0.000000  0.000000
                       1.000000  1.000000  1.000000  1.000000  1.000000  0.000000
                       0.000000  0.000000  0.000000  0.000000  0.000000  0.000000
                       0.000000  0.000000
                       1.000000  1.000000  1.000000  1.000000  0.997584  0.000000
                       0.000000  0.000000  0.000000  0.000000  0.000000  0.000000
                       0.000000  0.000000
                       1.000000  1.000000  0.999997  0.999891  0.998387  0.000000
                       0.000000  0.000000  0.000000  0.000000  0.000000  0.000000
                       0.000000  0.000000
                       1.000000  1.000000  1.000000  0.999988  0.941509  0.000000
                       0.000000  0.000000  0.000000  0.000000  0.000000  0.000000
                       0.000000  0.000000
                       1.000000  1.000000  1.000000  1.000000  0.588520  0.000000
                       0.000000  0.000000  0.000000  0.000000  0.000000  0.000000
                       0.000000  0.000000
                       1.000000  1.000000  1.000000  1.000000  0.999999  0.999999
                       0.000000  0.000000  0.000000  0.000000  0.000000  0.000000
                       0.000000  0.000000
                       1.000000  1.000000  1.000000  1.000000  1.000000  1.000000
                       0.000000  0.000000  0.000000  0.000000  0.000000  0.000000
                       0.000000  0.000000
                       1.000000  1.000000  1.000000  0.999203  0.999203  0.004331
                       0.000000  0.000000  0.000000  0.000000  0.000000  0.000000
                       0.000000  0.000000
                       1.000000  1.000000  1.000000  1.000000  0.999996  0.995577
                       0.000000  0.000000  0.000000  0.000000  0.000000  0.000000
                       0.000000  0.000000
                       1.000000  1.000000  1.000000  1.000000  0.891277  0.868039
                       0.000000  0.000000  0.000000  0.000000  0.000000  0.000000
                       0.000000  0.000000
                       1.000000  1.000000  1.000000  1.000000  1.000000  0.999604
                       0.000000  0.000000  0.000000  0.000000  0.000000  0.000000
                       0.000000  0.000000
                       1.000000  1.000000  1.000000  1.000000  0.999999  0.323193
                       0.000000  0.000000  0.000000  0.000000  0.000000  0.000000
                       0.000000  0.000000
                       1.000000  1.000000  1.000000  0.999999  0.501389  0.000000
                       0.000000  0.000000  0.000000  0.000000  0.000000  0.000000
                       0.000000  0.000000
                       1.000000  1.000000  1.000000  1.000000  0.208472  0.000000
                       0.000000  0.000000  0.000000  0.000000  0.000000  0.000000
                       0.000000  0.000000
                       1.000000  1.000000  1.000000  1.000000  0.764874  0.000000
                       0.000000  0.000000  0.000000  0.000000  0.000000  0.000000
                       0.000000  0.000000
                       1.000000  1.000000  1.000000  1.000000  0.962515  0.269999
                       0.000000  0.000000  0.000000  0.000000  0.000000  0.000000
                       0.000000  0.000000
                       1.000000  1.000000  1.000000  1.000000  0.962941  0.000000
                       0.000000  0.000000  0.000000  0.000000  0.000000  0.000000
                       0.000000  0.000000
                       1.000000  1.000000  1.000000  1.000000  0.999868  0.000000
                       0.000000  0.000000  0.000000  0.000000  0.000000  0.000000
                       0.000000  0.000000
                       1.000000  1.000000  1.000000  1.000000  0.994040  0.000000
                       0.000000  0.000000  0.000000  0.000000  0.000000  0.000000
                       0.000000  0.000000
                       1.000000  1.000000  1.000000  1.000000  0.783073  0.000000
                       0.000000  0.000000  0.000000  0.000000  0.000000  0.000000
                       0.000000  0.000000
                       1.000000  1.000000  1.000000  1.000000  0.048542  0.000000
                       0.000000  0.000000  0.000000  0.000000  0.000000  0.000000
                       0.000000  0.000000
                       1.000000  1.000000  1.000000  1.000000  0.393086  0.000000
                       0.000000  0.000000  0.000000  0.000000  0.000000  0.000000
                       0.000000  0.000000
                       1.000000  1.000000  0.999994  0.906266  0.526216  0.000000
                       0.000000  0.000000  0.000000  0.000000  0.000000  0.000000
                       0.000000  0.000000
                       1.000000  1.000000  1.000000  0.989147  0.408381  0.000000
                       0.000000  0.000000  0.000000  0.000000  0.000000  0.000000
                       0.000000  0.000000
                       1.000000  1.000000  1.000000  1.000000  0.810623  0.000000
                       0.000000  0.000000  0.000000  0.000000  0.000000  0.000000
                       0.000000  0.000000
                       1.000000  1.000000  1.000000  1.000000  0.838385  0.000000
                       0.000000  0.000000  0.000000  0.000000  0.000000  0.000000
                       0.000000  0.000000
                       1.000000  1.000000  1.000000  1.000000  1.000000  0.989693
                       0.000000  0.000000  0.000000  0.000000  0.000000  0.000000
                       0.000000  0.000000
                       1.000000  1.000000  1.000000  1.000000  0.999999  0.000000
                       0.000000  0.000000  0.000000  0.000000  0.000000  0.000000
                       0.000000  0.000000
                       1.000000  1.000000  1.000000  1.000000  0.999961  0.000000
                       0.000000  0.000000  0.000000  0.000000  0.000000  0.000000
                       0.000000  0.000000
                       1.000000  1.000000  1.000000  0.999392  0.660259  0.000000
                       0.000000  0.000000  0.000000  0.000000  0.000000  0.000000
                       0.000000  0.000000
                       1.000000  1.000000  0.990633  0.887238  0.617140  0.000000
                       0.000000  0.000000  0.000000  0.000000  0.000000  0.000000
                       0.000000  0.000000
                       1.000000  1.000000  1.000000  0.983015  0.140153  0.000000
                       0.000000  0.000000  0.000000  0.000000  0.000000  0.000000
                       0.000000  0.000000
                       1.000000  1.000000  1.000000  0.999999  0.007588  0.000000
                       0.000000  0.000000  0.000000  0.000000  0.000000  0.000000
                       0.000000  0.000000
                       1.000000  1.000000  1.000000  1.000000  0.997392  0.997392
                       0.000000  0.000000  0.000000  0.000000  0.000000  0.000000
                       0.000000  0.000000
                       1.000000  1.000000  1.000000  1.000000  0.999935  0.999935
                       0.000000  0.000000  0.000000  0.000000  0.000000  0.000000
                       0.000000  0.000000
                       1.000000  1.000000  1.000000  0.759284  0.759284  0.001309
                       0.000000  0.000000  0.000000  0.000000  0.000000  0.000000
                       0.000000  0.000000
           occopt           7
        pawecutdg      4.00000000E+01 Hartree
           prtden           0
           prteig           0
            rprim      0.0000000000E+00  5.0000000000E-01  5.0000000000E-01
                       5.0000000000E-01  0.0000000000E+00  5.0000000000E-01
                       5.0000000000E-01  5.0000000000E-01  0.0000000000E+00
           shiftk      5.00000000E-01  5.00000000E-01  5.00000000E-01
          spgroup         225
           spinat      0.0000000000E+00  0.0000000000E+00  4.0000000000E+00
           strten1     1.2651877794E-02  1.2651877794E-02  1.2651877794E-02
                       0.0000000000E+00  0.0000000000E+00  0.0000000000E+00
           symrel      1  0  0   0  1  0   0  0  1      -1  0  0   0 -1  0   0  0 -1
                       0 -1  1   0 -1  0   1 -1  0       0  1 -1   0  1  0  -1  1  0
                      -1  0  0  -1  0  1  -1  1  0       1  0  0   1  0 -1   1 -1  0
                       0  1 -1   1  0 -1   0  0 -1       0 -1  1  -1  0  1   0  0  1
                      -1  0  0  -1  1  0  -1  0  1       1  0  0   1 -1  0   1  0 -1
                       0 -1  1   1 -1  0   0 -1  0       0  1 -1  -1  1  0   0  1  0
                       1  0  0   0  0  1   0  1  0      -1  0  0   0  0 -1   0 -1  0
                       0  1 -1   0  0 -1   1  0 -1       0 -1  1   0  0  1  -1  0  1
                      -1  0  1  -1  1  0  -1  0  0       1  0 -1   1 -1  0   1  0  0
                       0 -1  0   1 -1  0   0 -1  1       0  1  0  -1  1  0   0  1 -1
                       1  0 -1   0  0 -1   0  1 -1      -1  0  1   0  0  1   0 -1  1
                       0  1  0   0  0  1   1  0  0       0 -1  0   0  0 -1  -1  0  0
                       1  0 -1   0  1 -1   0  0 -1      -1  0  1   0 -1  1   0  0  1
                       0 -1  0   0 -1  1   1 -1  0       0  1  0   0  1 -1  -1  1  0
                      -1  0  1  -1  0  0  -1  1  0       1  0 -1   1  0  0   1 -1  0
                       0  1  0   1  0  0   0  0  1       0 -1  0  -1  0  0   0  0 -1
                       0  0 -1   0  1 -1   1  0 -1       0  0  1   0 -1  1  -1  0  1
                       1 -1  0   0 -1  1   0 -1  0      -1  1  0   0  1 -1   0  1  0
                       0  0  1   1  0  0   0  1  0       0  0 -1  -1  0  0   0 -1  0
                      -1  1  0  -1  0  0  -1  0  1       1 -1  0   1  0  0   1  0 -1
                       0  0  1   0  1  0   1  0  0       0  0 -1   0 -1  0  -1  0  0
                       1 -1  0   0 -1  0   0 -1  1      -1  1  0   0  1  0   0  1 -1
                       0  0 -1   1  0 -1   0  1 -1       0  0  1  -1  0  1   0 -1  1
                      -1  1  0  -1  0  1  -1  0  0       1 -1  0   1  0 -1   1  0  0
           tolvrs      1.00000000E-09
           tsmear      7.50000000E-03 Hartree
            typat      1
           useylm           1
              wtk        0.02778    0.02778    0.02778    0.05556    0.02778    0.02778
                         0.05556    0.02778    0.05556    0.05556    0.02778    0.02778
                         0.02778    0.05556    0.02778    0.05556    0.05556    0.05556
                         0.02778    0.02778    0.02778    0.02778    0.02778    0.05556
                         0.05556    0.00926    0.00926    0.00926
            znucl       28.00000

================================================================================


- Timing analysis has been suppressed with timopt=0



================================================================================

 Suggested references for the acknowledgment of ABINIT usage.

 The users of ABINIT have little formal obligations with respect to the ABINIT group
 (those specified in the GNU General Public License, http://www.gnu.org/copyleft/gpl.txt).
 However, it is common practice in the scientific literature,
 to acknowledge the efforts of people that have made the research possible.
 In this spirit, please find below suggested citations of work written by ABINIT developers,
 corresponding to implementations inside of ABINIT that you have used in the present run.
 Note also that it will be of great value to readers of publications presenting these results,
 to read papers enabling them to understand the theoretical formalism and details
 of the ABINIT implementation.
 For information on why they are suggested, see also http://www.abinit.org/about/?text=acknowledgments.

 [1] Implementation of the Projector Augmented-Wave Method in the ABINIT code.
 M. Torrent, F. Jollet, F. Bottin, G. Zerah, and X. Gonze Comput. Mat. Science 42, 337, (2008).
 Comment : PAW calculations. Strong suggestion to cite this paper.

 [2] ABINIT : First-principles approach of materials and nanosystem properties.
 X. Gonze, B. Amadon, P.-M. Anglade, J.-M. Beuken, F. Bottin, P. Boulanger, F. Bruneval,
 D. Caliste, R. Caracas, M. Cote, T. Deutsch, L. Genovese, Ph. Ghosez, M. Giantomassi
 S. Goedecker, D.R. Hamann, P. Hermet, F. Jollet, G. Jomard, S. Leroux, M. Mancini, S. Mazevet,
 M.J.T. Oliveira, G. Onida, Y. Pouillon, T. Rangel, G.-M. Rignanese, D. Sangalli, R. Shaltaf,
 M. Torrent, M.J. Verstraete, G. Zerah, J.W. Zwanziger
 Computer Phys. Comm. 180, 2582-2615 (2009).
 Comment : the third generic paper describing the ABINIT project.
 Note that a version of this paper, that is not formatted for Computer Phys. Comm. 
 is available at http://www.abinit.org/about/ABINIT_CPC_v10.pdf .
 The licence allows the authors to put it on the Web.

 [3] A brief introduction to the ABINIT software package.
 X. Gonze, G.-M. Rignanese, M. Verstraete, J.-M. Beuken, Y. Pouillon, R. Caracas, F. Jollet,
 M. Torrent, G. Zerah, M. Mikami, Ph. Ghosez, M. Veithen, J.-Y. Raty, V. Olevano, F. Bruneval,
 L. Reining, R. Godby, G. Onida, D.R. Hamann, and D.C. Allan.
 Z. Kristallogr. 220, 558-562 (2005).
 Comment : the second generic paper describing the ABINIT project. Note that this paper
 should be cited especially if you are using the GW part of ABINIT, as several authors
 of this part are not in the list of authors of the first or third paper.
 The .pdf of the latter paper is available at http://www.abinit.org/about/zfk_0505-06_558-562.pdf.
 Note that it should not redistributed (Copyright by Oldenburg Wissenshaftverlag,
 the licence allows the authors to put it on the Web).


 And optionally :

 [4] First-principles computation of material properties : the ABINIT software project. 
 X. Gonze, J.-M. Beuken, R. Caracas, F. Detraux, M. Fuchs, G.-M. Rignanese, L. Sindic,
 M. Verstraete, G. Zerah, F. Jollet, M. Torrent, A. Roy, M. Mikami, Ph. Ghosez, J.-Y. Raty, D.C. Allan.
 Computational Materials Science 25, 478-492 (2002). http://dx.doi.org/10.1016/S0927-0256(02)00325-7
 Comment : the original paper describing the ABINIT project.

 [5] Fast radix 2, 3, 4 and 5 kernels for Fast Fourier Transformations
 on computers with overlapping multiply-add instructions.
 S. Goedecker, SIAM J. on Scientific Computing 18, 1605 (1997).
-
- Proc.   0 individual time (sec): cpu=          7.4  wall=          7.4

================================================================================

 Calculation completed.
.Delivered    4 WARNINGs and   2 COMMENTs to log file.
+Overall time at end (sec) : cpu=          7.4  wall=          7.4
