
.Version 7.10.4 of ABINIT 
.(MPI version, prepared for a x86_64_linux_gnu4.7 computer) 

.Copyright (C) 1998-2014 ABINIT group . 
 ABINIT comes with ABSOLUTELY NO WARRANTY.
 It is free software, and you are welcome to redistribute it
 under certain conditions (GNU General Public License,
 see ~abinit/COPYING or http://www.gnu.org/copyleft/gpl.txt).

 ABINIT is a project of the Universite Catholique de Louvain,
 Corning Inc. and other collaborators, see ~abinit/doc/developers/contributors.txt .
 Please read ~abinit/doc/users/acknowledgments.html for suggested
 acknowledgments of the ABINIT effort.
 For more information, see http://www.abinit.org .

.Starting date : Wed 11 Mar 2015.
- ( at 10h23 )
  
- input  file    -> tspin_6.in
- output file    -> tspin_6.out
- root for input  files -> tspin_6i
- root for output files -> tspin_6o


 DATASET    1 : space group P1 (#  1); Bravais aP (primitive triclinic)
================================================================================
 Values of the parameters that define the memory need for DATASET  1.
   intxc =         0  ionmov =         0    iscf =        17 xclevel =         1
  lmnmax =        18   lnmax =         6   mband =        12  mffmem =         1
P  mgfft =        27   mkmem =         1 mpssoang=         3     mpw =       523
  mqgrid =      3001   natom =         1    nfft =     19683    nkpt =         1
  nloalg =         4  nspden =         1 nspinor =         1  nsppol =         1
    nsym =         1  n1xccc =         1  ntypat =         1  occopt =         7
 PAW method is used; the additional fine FFT grid is defined by:
   mgfftf=        36    nfftf =     46656
================================================================================
P This job should need less than                      12.095 Mbytes of memory.
  Rough estimation (10% accuracy) of disk space for files :
_ WF disk file :      0.098 Mbytes ; DEN or POT disk file :      0.358 Mbytes.
================================================================================


 DATASET    2 : space group P1 (#  1); Bravais aP (primitive triclinic)
================================================================================
 Values of the parameters that define the memory need for DATASET  2.
   intxc =         0  ionmov =         0    iscf =        17 xclevel =         1
  lmnmax =        18   lnmax =         6   mband =        24  mffmem =         1
P  mgfft =        27   mkmem =         1 mpssoang=         3     mpw =      1045
  mqgrid =      3001   natom =         1    nfft =     19683    nkpt =         1
  nloalg =         4  nspden =         1 nspinor =         2  nsppol =         1
    nsym =         1  n1xccc =         1  ntypat =         1  occopt =         7
 PAW method is used; the additional fine FFT grid is defined by:
   mgfftf=        36    nfftf =     46656
================================================================================
P This job should need less than                      14.830 Mbytes of memory.
  Rough estimation (10% accuracy) of disk space for files :
_ WF disk file :      0.385 Mbytes ; DEN or POT disk file :      0.358 Mbytes.
================================================================================

--------------------------------------------------------------------------------
------------- Echo of variables that govern the present computation ------------
--------------------------------------------------------------------------------
-
- outvars: echo of selected default values                                      
-   accesswff0 =  0 , fftalg0 =112 , wfoptalg0 = 10
-
- outvars: echo of global parameters not present in the input file              
-  max_nthreads =    0
-
 -outvars: echo values of preprocessed input variables --------
            acell      1.0000000000E+01  1.0000000000E+01  1.0000000000E+01 Bohr
              amu      2.08980370E+02
             ecut      8.00000000E+00 Hartree
-          fftalg         112
           istwfk1       2
           istwfk2       1
              ixc           7
           jdtset        1    2
           kptopt           4
         kptrlatt        1    0    0      0    1    0      0    0    1
          kptrlen      1.00000000E+04
P           mkmem           1
            natom           1
            nband1         12
            nband2         24
           ndtset           2
            ngfft          27      27      27
          ngfftdg          36      36      36
             nkpt           1
          nspinor1          1
          nspinor2          2
            nstep          20
             nsym           1
           ntypat           1
              occ1     2.000000  2.000000  2.000000  2.000000  2.000000  2.000000
                       2.000000  1.000000  0.000000  0.000000  0.000000  0.000000
              occ2     1.000000  1.000000  1.000000  1.000000  1.000000  1.000000
                       1.000000  1.000000  1.000000  1.000000  1.000000  1.000000
                       1.000000  1.000000  1.000000  0.000000  0.000000  0.000000
                       0.000000  0.000000  0.000000  0.000000  0.000000  0.000000
           occopt           7
        pawcpxocc1          1
        pawcpxocc2          2
        pawecutdg      1.50000000E+01 Hartree
        pawspnorb1          0
        pawspnorb2          1
          spgroup           1
           toldfe      1.00000000E-07 Hartree
           tsmear      2.00000000E-02 Hartree
            typat      1
           useylm           1
            znucl       83.00000

================================================================================

 chkinp: Checking input parameters for consistency, jdtset=   1.

 chkinp: Checking input parameters for consistency, jdtset=   2.

================================================================================
== DATASET  1 ==================================================================
-   nproc =    1

 Exchange-correlation functional for the present dataset will be:
  LDA: Perdew-Wang 92 LSD fit to Ceperley-Alder data - ixc=7
 Citation for XC functional:
  J.P.Perdew and Y.Wang, PRB 45, 13244 (1992)

 Real(R)+Recip(G) space primitive vectors, cartesian coordinates (Bohr,Bohr^-1):
 R(1)= 10.0000000  0.0000000  0.0000000  G(1)=  0.1000000  0.0000000  0.0000000
 R(2)=  0.0000000 10.0000000  0.0000000  G(2)=  0.0000000  0.1000000  0.0000000
 R(3)=  0.0000000  0.0000000 10.0000000  G(3)=  0.0000000  0.0000000  0.1000000
 Unit cell volume ucvol=  1.0000000E+03 bohr^3
 Angles (23,13,12)=  9.00000000E+01  9.00000000E+01  9.00000000E+01 degrees

 Coarse grid specifications (used for wave-functions):

 getcut: wavevector=  0.0000  0.0000  0.0000  ngfft=  27  27  27
         ecut(hartree)=      8.000   => boxcut(ratio)=   2.04204

 Fine grid specifications (used for densities):

 getcut: wavevector=  0.0000  0.0000  0.0000  ngfft=  36  36  36
         ecut(hartree)=     15.000   => boxcut(ratio)=   2.06487

--- Pseudopotential description ------------------------------------------------
- pspini: atom type   1  psp file is /home/gonze/ABINIT/ABINITv7.10.4/trunk/7.10.4-private/tests/Psps_for_tests/83bi.paw
- pspatm: opening atomic psp file    /home/gonze/ABINIT/ABINITv7.10.4/trunk/7.10.4-private/tests/Psps_for_tests/83bi.paw
- Paw atomic data for element Bi - Generated by AtomPAW + AtomPAW2Abinit v3.2.1
- 83.00000  15.00000  20080829                znucl, zion, pspdat
    7    7    2    0      1509   0.00000      pspcod,pspxc,lmax,lloc,mmax,r2well
 Pseudopotential format is: paw4
 basis_size (lnmax)=  6 (lmn_size= 18), orbitals=   0   0   1   1   2   2
 Spheres core radius: rc_sph= 2.60648143
 4 radial meshes are used:
  - mesh 1: r(i)=AA*[exp(BB*(i-1))-1], size=1509 , AA= 0.83004E-04 BB= 0.68893E-02
  - mesh 2: r(i)=AA*[exp(BB*(i-1))-1], size=1504 , AA= 0.83004E-04 BB= 0.68893E-02
  - mesh 3: r(i)=AA*[exp(BB*(i-1))-1], size=1583 , AA= 0.83004E-04 BB= 0.68893E-02
  - mesh 4: r(i)=AA*[exp(BB*(i-1))-1], size=1699 , AA= 0.83004E-04 BB= 0.68893E-02
 Shapefunction is SIN type: shapef(r)=[sin(pi*r/rshp)/(pi*r/rshp)]**2
 Radius for shape functions = sphere core radius
 Radial grid used for partial waves is grid 1
 Radial grid used for projectors is grid  2
 Radial grid used for (t)core density is grid 3
 Radial grid used for Vloc is grid 4
 Radial grid used for pseudo valence density is grid 4
 Compensation charge density is taken into account in XC energy/potential
 pspatm: atomic psp has been read  and splines computed

   7.73482506E+02                                ecore*ucvol(ha*bohr**3)
--------------------------------------------------------------------------------

P newkpt: treating     12 bands with npw=     523 for ikpt=   1 by node    0

_setup2: Arith. and geom. avg. npw (full set) are    1045.000    1045.000

================================================================================

     iter   Etot(hartree)      deltaE(h)  residm     nres2
 ETOT  1  -72.102865545435    -7.210E+01 1.587E-01 1.512E-01
 ETOT  2  -72.193092966494    -9.023E-02 1.979E-03 1.282E-01
 ETOT  3  -72.191614830044     1.478E-03 3.333E-05 3.318E-02
 ETOT  4  -72.191295409501     3.194E-04 2.768E-05 6.761E-03
 ETOT  5  -72.191264643539     3.077E-05 7.998E-06 2.174E-04
 ETOT  6  -72.191288729815    -2.409E-05 6.443E-07 1.268E-04
 ETOT  7  -72.191295672434    -6.943E-06 4.342E-08 6.009E-05
 ETOT  8  -72.191310984092    -1.531E-05 6.511E-08 1.091E-05
 ETOT  9  -72.191313138227    -2.154E-06 6.693E-09 5.705E-06
 ETOT 10  -72.191317764953    -4.627E-06 1.781E-08 1.157E-06
 ETOT 11  -72.191318183616    -4.187E-07 1.447E-09 7.073E-07
 ETOT 12  -72.191318312701    -1.291E-07 2.560E-10 9.450E-08
 ETOT 13  -72.191318377651    -6.495E-08 2.635E-10 1.545E-08
 ETOT 14  -72.191318397534    -1.988E-08 5.584E-11 8.094E-10

 At SCF step   14, etot is converged : 
  for the second time, diff in etot=  1.988E-08 < toldfe=  1.000E-07

 Cartesian components of stress tensor (hartree/bohr^3)
  sigma(1 1)= -6.54215614E-05  sigma(3 2)= -7.83669633E-11
  sigma(2 2)= -6.54220643E-05  sigma(3 1)=  1.46878795E-09
  sigma(3 3)= -6.54212562E-05  sigma(2 1)= -2.91209128E-09


 PAW TEST:
 ==== Compensation charge inside spheres ============
 The following values must be close to each other ...
 Compensation charge over spherical meshes =      6.865243892162724
 Compensation charge over fine fft grid    =      6.865207250063545

 ==== Results concerning PAW augmentation regions ====

 Total pseudopotential strength Dij (hartree):
   1.39264  -3.19724   0.00000  -0.00000  -0.00000  -0.00000   0.00000   0.00000   0.00000  -0.00000  -0.00000   0.00000 ...
  -3.19724   7.27495  -0.00000   0.00000   0.00000   0.00000  -0.00000  -0.00000  -0.00000   0.00000   0.00000  -0.00000 ...
   0.00000  -0.00000   0.27373  -0.00000  -0.00000  -1.26739   0.00000   0.00000  -0.00000  -0.00000  -0.00000   0.00000 ...
  -0.00000   0.00000  -0.00000   0.27373   0.00000   0.00000  -1.26739  -0.00000   0.00000   0.00000  -0.00000  -0.00000 ...
  -0.00000   0.00000  -0.00000   0.00000   0.27373   0.00000  -0.00000  -1.26739   0.00000   0.00000   0.00000  -0.00000 ...
  -0.00000   0.00000  -1.26739   0.00000   0.00000   5.79777  -0.00000   0.00000   0.00000   0.00000   0.00000  -0.00000 ...
   0.00000  -0.00000   0.00000  -1.26739  -0.00000  -0.00000   5.79777   0.00000  -0.00000  -0.00000   0.00000   0.00000 ...
   0.00000  -0.00000   0.00000  -0.00000  -1.26739   0.00000   0.00000   5.79777  -0.00000  -0.00000  -0.00000   0.00000 ...
   0.00000  -0.00000  -0.00000   0.00000   0.00000   0.00000  -0.00000  -0.00000  -0.93288  -0.00000   0.00000  -0.00000 ...
  -0.00000   0.00000  -0.00000   0.00000   0.00000   0.00000  -0.00000  -0.00000  -0.00000  -0.93288  -0.00000   0.00000 ...
  -0.00000   0.00000  -0.00000  -0.00000   0.00000   0.00000   0.00000  -0.00000   0.00000  -0.00000  -0.93294   0.00000 ...
   0.00000  -0.00000   0.00000  -0.00000  -0.00000  -0.00000   0.00000   0.00000  -0.00000   0.00000   0.00000  -0.93288 ...
   ...  only 12  components have been written...


 Augmentation waves occupancies Rhoij:
   1.95891   0.00624   0.00000   0.00000   0.00000  -0.00000   0.00000  -0.00000   0.00000   0.00000  -0.00000   0.00000 ...
   0.00624   0.00002  -0.00000   0.00000   0.00000  -0.00000   0.00000  -0.00000   0.00000   0.00000  -0.00000  -0.00000 ...
   0.00000  -0.00000   1.09215  -0.00000  -0.00000   0.00033  -0.00000   0.00000   0.00000   0.00000   0.00000   0.00000 ...
   0.00000   0.00000  -0.00000   1.09215   0.00000  -0.00000   0.00033   0.00000  -0.00000  -0.00000   0.00000   0.00000 ...
   0.00000   0.00000  -0.00000   0.00000   1.09215   0.00000   0.00000   0.00033  -0.00000  -0.00000  -0.00000  -0.00000 ...
  -0.00000  -0.00000   0.00033  -0.00000   0.00000   0.00000   0.00000   0.00000   0.00000  -0.00000   0.00000  -0.00000 ...
   0.00000   0.00000  -0.00000   0.00033   0.00000   0.00000   0.00000   0.00000  -0.00000  -0.00000   0.00000   0.00000 ...
  -0.00000  -0.00000   0.00000   0.00000   0.00033   0.00000   0.00000   0.00000  -0.00000  -0.00000  -0.00000   0.00000 ...
   0.00000   0.00000   0.00000  -0.00000  -0.00000   0.00000  -0.00000  -0.00000   1.99240  -0.00000   0.00000  -0.00000 ...
   0.00000   0.00000   0.00000  -0.00000  -0.00000  -0.00000  -0.00000  -0.00000  -0.00000   1.99240  -0.00000  -0.00000 ...
  -0.00000  -0.00000   0.00000   0.00000  -0.00000   0.00000   0.00000  -0.00000   0.00000  -0.00000   1.99239   0.00000 ...
   0.00000  -0.00000   0.00000   0.00000  -0.00000  -0.00000   0.00000   0.00000  -0.00000  -0.00000   0.00000   1.99240 ...
   ...  only 12  components have been written...


================================================================================

 ----iterations are completed or convergence reached----

 Mean square residual over all n,k,spin=   8.0581E-12; max=  5.5845E-11
   0.0000  0.0000  0.0000    1  5.58450E-11 kpt; spin; max resid(k); each band:
  8.24E-13 6.60E-13 7.20E-14 4.80E-13 3.28E-13 6.14E-12 9.20E-13 9.93E-13
  1.13E-12 5.58E-11 9.13E-12 2.02E-11
 reduced coordinates (array xred) for    1 atoms
       0.000000000000      0.000000000000      0.000000000000
 rms dE/dt=  3.9332E-06; max dE/dt=  6.3976E-06; dE/dt below (all hartree)
    1      -0.000002277529      0.000006397614     -0.000000542875

 cartesian coordinates (angstrom) at end:
    1      0.00000000000000     0.00000000000000     0.00000000000000

 cartesian forces (hartree/bohr) at end:
    1      0.00000000000000     0.00000000000000     0.00000000000000
 frms,max,avg= 0.0000000E+00 0.0000000E+00   2.278E-07 -6.398E-07  5.429E-08 h/b

 cartesian forces (eV/Angstrom) at end:
    1      0.00000000000000     0.00000000000000     0.00000000000000
 frms,max,avg= 0.0000000E+00 0.0000000E+00   1.171E-05 -3.290E-05  2.792E-06 e/A
 length scales= 10.000000000000 10.000000000000 10.000000000000 bohr
              =  5.291772085900  5.291772085900  5.291772085900 angstroms
 prteigrs : about to open file tspin_6o_DS1_EIG
 Fermi (or HOMO) energy (hartree) =  -0.06747   Average Vxc (hartree)=  -0.16118
 Eigenvalues (hartree) for nkpt=   1  k points:
 kpt#   1, nband= 12, wtk=  1.00000, kpt=  0.0000  0.0000  0.0000 (reduced coord)
  -0.89218  -0.89218  -0.89198  -0.89198  -0.89198  -0.44515  -0.06747  -0.06747
  -0.06747   0.01845   0.12622   0.12622
      occupation numbers for kpt#   1
   2.00000   2.00000   2.00000   2.00000   2.00000   2.00000   1.00000   1.00000
   1.00000   0.00000   0.00000   0.00000
 Total charge density [el/Bohr^3]
,     Maximum=    7.0201E-01  at reduced coord.    0.0000    0.0000    0.0000
,Next maximum=    6.7956E-01  at reduced coord.    0.0000    0.0000    0.9722
,     Minimum=    1.1949E-06  at reduced coord.    0.5000    0.5000    0.5000
,Next minimum=    1.8459E-06  at reduced coord.    0.4722    0.5000    0.5000
,  Integrated=    1.5000E+01

--------------------------------------------------------------------------------
 Components of total free energy (in Hartree) :

    Kinetic energy  =  6.09957144002564E+00
    Hartree energy  =  2.72677943932030E+01
    XC energy       = -7.30536621347866E+00
    Ewald energy    = -3.19195966441566E+01
    PspCore energy  =  7.73482506437258E-01
    Loc. psp. energy= -7.25214073404185E+01
    Spherical terms =  5.44807580375164E+00
    >>>>> Internal E= -7.21574460546362E+01

    -kT*entropy     = -3.38513751218332E-02
    >>>>>>>>> Etotal= -7.21912974297580E+01

 "Double-counting" decomposition of free energy:
    Band energy     = -1.00133099122780E+01
    Ewald energy    = -3.19195966441566E+01
    PspCore energy  =  7.73482506437258E-01
    Dble-C XC-energy= -2.50591871085994E+01
    Spherical terms = -5.93885586381504E+00
    >>>>> Internal E= -7.21574670224118E+01

    -kT*entropy     = -3.38513751218332E-02
    >>>> Etotal (DC)= -7.21913183975337E+01

  >Total energy in eV           = -1.96442510571258E+03
  >Total DC energy in eV        = -1.96442567627477E+03
--------------------------------------------------------------------------------

 Cartesian components of stress tensor (hartree/bohr^3)
  sigma(1 1)= -6.54215614E-05  sigma(3 2)= -7.83669633E-11
  sigma(2 2)= -6.54220643E-05  sigma(3 1)=  1.46878795E-09
  sigma(3 3)= -6.54212562E-05  sigma(2 1)= -2.91209128E-09

-Cartesian components of stress tensor (GPa)         [Pressure=  1.9248E+00 GPa]
- sigma(1 1)= -1.92476846E+00  sigma(3 2)= -2.30563527E-06
- sigma(2 2)= -1.92478326E+00  sigma(3 1)=  4.32132263E-05
- sigma(3 3)= -1.92475949E+00  sigma(2 1)= -8.56766689E-05

================================================================================
== DATASET  2 ==================================================================
-   nproc =    1

 Exchange-correlation functional for the present dataset will be:
  LDA: Perdew-Wang 92 LSD fit to Ceperley-Alder data - ixc=7
 Citation for XC functional:
  J.P.Perdew and Y.Wang, PRB 45, 13244 (1992)

 Real(R)+Recip(G) space primitive vectors, cartesian coordinates (Bohr,Bohr^-1):
 R(1)= 10.0000000  0.0000000  0.0000000  G(1)=  0.1000000  0.0000000  0.0000000
 R(2)=  0.0000000 10.0000000  0.0000000  G(2)=  0.0000000  0.1000000  0.0000000
 R(3)=  0.0000000  0.0000000 10.0000000  G(3)=  0.0000000  0.0000000  0.1000000
 Unit cell volume ucvol=  1.0000000E+03 bohr^3
 Angles (23,13,12)=  9.00000000E+01  9.00000000E+01  9.00000000E+01 degrees

 Coarse grid specifications (used for wave-functions):

 getcut: wavevector=  0.0000  0.0000  0.0000  ngfft=  27  27  27
         ecut(hartree)=      8.000   => boxcut(ratio)=   2.04204

 Fine grid specifications (used for densities):

 getcut: wavevector=  0.0000  0.0000  0.0000  ngfft=  36  36  36
         ecut(hartree)=     15.000   => boxcut(ratio)=   2.06487
--------------------------------------------------------------------------------

P newkpt: treating     24 bands with npw=    1045 for ikpt=   1 by node    0

_setup2: Arith. and geom. avg. npw (full set) are    1045.000    1045.000

================================================================================

     iter   Etot(hartree)      deltaE(h)  residm     nres2
 ETOT  1  -72.209401226265    -7.221E+01 8.888E-02 1.080E-01
 ETOT  2  -72.274053915787    -6.465E-02 7.747E-05 1.780E-02
 ETOT  3  -72.273583549259     4.704E-04 1.656E-05 9.489E-03
 ETOT  4  -72.273326053754     2.575E-04 4.194E-06 2.007E-03
 ETOT  5  -72.273264649479     6.140E-05 2.035E-06 4.146E-04
 ETOT  6  -72.273328968281    -6.432E-05 1.874E-06 1.000E-04
 ETOT  7  -72.273359283122    -3.031E-05 4.335E-08 2.911E-05
 ETOT  8  -72.273371265090    -1.198E-05 1.520E-08 7.579E-06
 ETOT  9  -72.273378173012    -6.908E-06 1.604E-08 1.596E-06
 ETOT 10  -72.273379642838    -1.470E-06 1.511E-08 1.705E-07
 ETOT 11  -72.273379942649    -2.998E-07 3.241E-09 9.401E-08
 ETOT 12  -72.273379964490    -2.184E-08 5.728E-10 1.859E-08
 ETOT 13  -72.273379972174    -7.684E-09 3.660E-11 1.840E-09

 At SCF step   13, etot is converged : 
  for the second time, diff in etot=  7.684E-09 < toldfe=  1.000E-07

 Cartesian components of stress tensor (hartree/bohr^3)
  sigma(1 1)= -5.34138536E-05  sigma(3 2)=  2.50791603E-10
  sigma(2 2)= -5.34139848E-05  sigma(3 1)= -5.03411350E-11
  sigma(3 3)= -5.34135697E-05  sigma(2 1)= -3.35973727E-10


 PAW TEST:
 ==== Compensation charge inside spheres ============
 The following values must be close to each other ...
 Compensation charge over spherical meshes =      6.779881129054062
 Compensation charge over fine fft grid    =      6.779783985010045

 ==== Results concerning PAW augmentation regions ====

 Total pseudopotential strength Dij (hartree):
 Atom #  1 - Component up-up
   === REAL PART:
   1.38309  -3.17083   0.00000  -0.00000  -0.00000  -0.00000   0.00000   0.00000  -0.00000   0.00000  -0.00000  -0.00000 ...
  -3.17083   7.19822  -0.00000   0.00000   0.00000   0.00000  -0.00000  -0.00000   0.00000  -0.00000   0.00000   0.00000 ...
   0.00000  -0.00000   0.27252   0.00000  -0.00000  -1.25925  -0.00000   0.00000  -0.00000   0.00000  -0.00000   0.00000 ...
  -0.00000   0.00000   0.00000   0.27252  -0.00000  -0.00000  -1.25925   0.00000   0.00000   0.00000   0.00000  -0.00000 ...
  -0.00000   0.00000  -0.00000  -0.00000   0.27252   0.00000   0.00000  -1.25925   0.00000   0.00000   0.00000   0.00000 ...
  -0.00000   0.00000  -1.25925  -0.00000   0.00000   5.74419   0.00000  -0.00000   0.00000   0.00000   0.00000  -0.00000 ...
   0.00000  -0.00000  -0.00000  -1.25925   0.00000   0.00000   5.74419  -0.00000  -0.00000  -0.00000   0.00000   0.00000 ...
   0.00000  -0.00000   0.00000   0.00000  -1.25925  -0.00000  -0.00000   5.74419  -0.00000  -0.00000  -0.00000   0.00000 ...
  -0.00000   0.00000  -0.00000   0.00000   0.00000   0.00000  -0.00000  -0.00000  -0.91206  -0.00000   0.00000  -0.00000 ...
   0.00000  -0.00000   0.00000   0.00000   0.00000   0.00000  -0.00000  -0.00000  -0.00000  -0.91206  -0.00000  -0.00000 ...
  -0.00000   0.00000  -0.00000   0.00000   0.00000   0.00000   0.00000  -0.00000   0.00000  -0.00000  -0.91212  -0.00000 ...
  -0.00000   0.00000   0.00000  -0.00000   0.00000  -0.00000   0.00000   0.00000  -0.00000  -0.00000  -0.00000  -0.91206 ...
   ...  only 12  components have been written...
   === IMAGINARY PART:
  -0.00000  -0.00000  -0.00000  -0.00000  -0.00000  -0.00000  -0.00000  -0.00000  -0.00000  -0.00000  -0.00000  -0.00000 ...
   0.00000  -0.00000  -0.00000  -0.00000  -0.00000  -0.00000  -0.00000  -0.00000  -0.00000  -0.00000  -0.00000  -0.00000 ...
   0.00000   0.00000  -0.00000  -0.00000  -0.02030  -0.00000  -0.00000   0.08387  -0.00000  -0.00000  -0.00000  -0.00000 ...
   0.00000   0.00000   0.00000  -0.00000  -0.00000  -0.00000  -0.00000  -0.00000  -0.00000  -0.00000  -0.00000  -0.00000 ...
   0.00000   0.00000   0.02030   0.00000  -0.00000  -0.08387  -0.00000  -0.00000  -0.00000  -0.00000  -0.00000  -0.00000 ...
   0.00000   0.00000   0.00000   0.00000   0.08387  -0.00000  -0.00000  -0.34652  -0.00000  -0.00000  -0.00000  -0.00000 ...
   0.00000   0.00000   0.00000   0.00000   0.00000   0.00000  -0.00000  -0.00000  -0.00000  -0.00000  -0.00000  -0.00000 ...
   0.00000   0.00000  -0.08387   0.00000   0.00000   0.34652   0.00000  -0.00000  -0.00000  -0.00000  -0.00000  -0.00000 ...
   0.00000   0.00000   0.00000   0.00000   0.00000   0.00000   0.00000   0.00000  -0.00000  -0.00000  -0.00000  -0.00000 ...
   0.00000   0.00000   0.00000   0.00000   0.00000   0.00000   0.00000   0.00000   0.00000  -0.00000  -0.00000  -0.02199 ...
   0.00000   0.00000   0.00000   0.00000   0.00000   0.00000   0.00000   0.00000   0.00000   0.00000  -0.00000  -0.00000 ...
   0.00000   0.00000   0.00000   0.00000   0.00000   0.00000   0.00000   0.00000   0.00000   0.02199   0.00000  -0.00000 ...
   ...  only 12  components have been written...
 Atom #  1 - Component dwn-dwn
   === REAL PART:
   1.38309  -3.17083   0.00000  -0.00000  -0.00000  -0.00000   0.00000   0.00000  -0.00000   0.00000  -0.00000  -0.00000 ...
  -3.17083   7.19822  -0.00000   0.00000   0.00000   0.00000  -0.00000  -0.00000   0.00000  -0.00000   0.00000   0.00000 ...
   0.00000  -0.00000   0.27252   0.00000  -0.00000  -1.25925  -0.00000   0.00000  -0.00000   0.00000  -0.00000   0.00000 ...
  -0.00000   0.00000   0.00000   0.27252  -0.00000  -0.00000  -1.25925   0.00000   0.00000   0.00000   0.00000  -0.00000 ...
  -0.00000   0.00000  -0.00000  -0.00000   0.27252   0.00000   0.00000  -1.25925   0.00000   0.00000   0.00000   0.00000 ...
  -0.00000   0.00000  -1.25925  -0.00000   0.00000   5.74419   0.00000  -0.00000   0.00000   0.00000   0.00000  -0.00000 ...
   0.00000  -0.00000  -0.00000  -1.25925   0.00000   0.00000   5.74419  -0.00000  -0.00000  -0.00000   0.00000   0.00000 ...
   0.00000  -0.00000   0.00000   0.00000  -1.25925  -0.00000  -0.00000   5.74419  -0.00000  -0.00000  -0.00000   0.00000 ...
  -0.00000   0.00000  -0.00000   0.00000   0.00000   0.00000  -0.00000  -0.00000  -0.91206  -0.00000   0.00000  -0.00000 ...
   0.00000  -0.00000   0.00000   0.00000   0.00000   0.00000  -0.00000  -0.00000  -0.00000  -0.91206  -0.00000  -0.00000 ...
  -0.00000   0.00000  -0.00000   0.00000   0.00000   0.00000   0.00000  -0.00000   0.00000  -0.00000  -0.91212  -0.00000 ...
  -0.00000   0.00000   0.00000  -0.00000   0.00000  -0.00000   0.00000   0.00000  -0.00000  -0.00000  -0.00000  -0.91206 ...
   ...  only 12  components have been written...
   === IMAGINARY PART:
  -0.00000  -0.00000  -0.00000  -0.00000  -0.00000  -0.00000  -0.00000  -0.00000  -0.00000  -0.00000  -0.00000  -0.00000 ...
   0.00000  -0.00000  -0.00000  -0.00000  -0.00000  -0.00000  -0.00000  -0.00000  -0.00000  -0.00000  -0.00000  -0.00000 ...
   0.00000   0.00000  -0.00000  -0.00000   0.02030  -0.00000  -0.00000  -0.08387  -0.00000  -0.00000  -0.00000  -0.00000 ...
   0.00000   0.00000   0.00000  -0.00000  -0.00000  -0.00000  -0.00000  -0.00000  -0.00000  -0.00000  -0.00000  -0.00000 ...
   0.00000   0.00000  -0.02030   0.00000  -0.00000   0.08387  -0.00000  -0.00000  -0.00000  -0.00000  -0.00000  -0.00000 ...
   0.00000   0.00000   0.00000   0.00000  -0.08387  -0.00000  -0.00000   0.34652  -0.00000  -0.00000  -0.00000  -0.00000 ...
   0.00000   0.00000   0.00000   0.00000   0.00000   0.00000  -0.00000  -0.00000  -0.00000  -0.00000  -0.00000  -0.00000 ...
   0.00000   0.00000   0.08387   0.00000   0.00000  -0.34652   0.00000  -0.00000  -0.00000  -0.00000  -0.00000  -0.00000 ...
   0.00000   0.00000   0.00000   0.00000   0.00000   0.00000   0.00000   0.00000  -0.00000  -0.00000  -0.00000  -0.00000 ...
   0.00000   0.00000   0.00000   0.00000   0.00000   0.00000   0.00000   0.00000   0.00000  -0.00000  -0.00000   0.02199 ...
   0.00000   0.00000   0.00000   0.00000   0.00000   0.00000   0.00000   0.00000   0.00000   0.00000  -0.00000  -0.00000 ...
   0.00000   0.00000   0.00000   0.00000   0.00000   0.00000   0.00000   0.00000   0.00000  -0.02199   0.00000  -0.00000 ...
   ...  only 12  components have been written...
 Atom #  1 - Component up-dwn
   === REAL PART:
   0.00000   0.00000   0.00000   0.00000   0.00000   0.00000   0.00000   0.00000   0.00000   0.00000   0.00000   0.00000 ...
   0.00000   0.00000   0.00000   0.00000   0.00000   0.00000   0.00000   0.00000   0.00000   0.00000   0.00000   0.00000 ...
   0.00000   0.00000   0.00000   0.00000   0.00000   0.00000   0.00000   0.00000   0.00000   0.00000   0.00000   0.00000 ...
   0.00000   0.00000   0.00000   0.00000   0.02030   0.00000   0.00000  -0.08387   0.00000   0.00000   0.00000   0.00000 ...
   0.00000   0.00000   0.00000  -0.02030   0.00000   0.00000   0.08387   0.00000   0.00000   0.00000   0.00000   0.00000 ...
   0.00000   0.00000   0.00000   0.00000   0.00000   0.00000   0.00000   0.00000   0.00000   0.00000   0.00000   0.00000 ...
   0.00000   0.00000   0.00000   0.00000  -0.08387   0.00000   0.00000   0.34652   0.00000   0.00000   0.00000   0.00000 ...
   0.00000   0.00000   0.00000   0.08387   0.00000   0.00000  -0.34652   0.00000   0.00000   0.00000   0.00000   0.00000 ...
   0.00000   0.00000   0.00000   0.00000   0.00000   0.00000   0.00000   0.00000   0.00000  -0.02199   0.00000   0.00000 ...
   0.00000   0.00000   0.00000   0.00000   0.00000   0.00000   0.00000   0.00000   0.02199   0.00000   0.00000   0.00000 ...
   0.00000   0.00000   0.00000   0.00000   0.00000   0.00000   0.00000   0.00000   0.00000   0.00000   0.00000   0.03809 ...
   0.00000   0.00000   0.00000   0.00000   0.00000   0.00000   0.00000   0.00000   0.00000   0.00000  -0.03809   0.00000 ...
   ...  only 12  components have been written...
   === IMAGINARY PART:
  -0.00000  -0.00000  -0.00000  -0.00000  -0.00000  -0.00000  -0.00000  -0.00000  -0.00000  -0.00000  -0.00000  -0.00000 ...
   0.00000  -0.00000  -0.00000  -0.00000  -0.00000  -0.00000  -0.00000  -0.00000  -0.00000  -0.00000  -0.00000  -0.00000 ...
   0.00000   0.00000  -0.00000   0.02030  -0.00000  -0.00000  -0.08387  -0.00000  -0.00000  -0.00000  -0.00000  -0.00000 ...
   0.00000   0.00000  -0.02030  -0.00000  -0.00000   0.08387  -0.00000  -0.00000  -0.00000  -0.00000  -0.00000  -0.00000 ...
   0.00000   0.00000   0.00000   0.00000  -0.00000  -0.00000  -0.00000  -0.00000  -0.00000  -0.00000  -0.00000  -0.00000 ...
   0.00000   0.00000   0.00000  -0.08387   0.00000  -0.00000   0.34652  -0.00000  -0.00000  -0.00000  -0.00000  -0.00000 ...
   0.00000   0.00000   0.08387   0.00000   0.00000  -0.34652  -0.00000  -0.00000  -0.00000  -0.00000  -0.00000  -0.00000 ...
   0.00000   0.00000   0.00000   0.00000   0.00000   0.00000   0.00000  -0.00000  -0.00000  -0.00000  -0.00000  -0.00000 ...
   0.00000   0.00000   0.00000   0.00000   0.00000   0.00000   0.00000   0.00000  -0.00000  -0.00000  -0.00000   0.02199 ...
   0.00000   0.00000   0.00000   0.00000   0.00000   0.00000   0.00000   0.00000   0.00000  -0.00000   0.03809  -0.00000 ...
   0.00000   0.00000   0.00000   0.00000   0.00000   0.00000   0.00000   0.00000   0.00000  -0.03809  -0.00000  -0.00000 ...
   0.00000   0.00000   0.00000   0.00000   0.00000   0.00000   0.00000   0.00000  -0.02199   0.00000   0.00000  -0.00000 ...
   ...  only 12  components have been written...
 Atom #  1 - Component dwn-up
   === REAL PART:
   0.00000   0.00000   0.00000   0.00000   0.00000   0.00000   0.00000   0.00000   0.00000   0.00000   0.00000   0.00000 ...
   0.00000   0.00000   0.00000   0.00000   0.00000   0.00000   0.00000   0.00000   0.00000   0.00000   0.00000   0.00000 ...
   0.00000   0.00000   0.00000   0.00000   0.00000   0.00000   0.00000   0.00000   0.00000   0.00000   0.00000   0.00000 ...
   0.00000   0.00000   0.00000   0.00000  -0.02030   0.00000   0.00000   0.08387   0.00000   0.00000   0.00000   0.00000 ...
   0.00000   0.00000   0.00000   0.02030   0.00000   0.00000  -0.08387   0.00000   0.00000   0.00000   0.00000   0.00000 ...
   0.00000   0.00000   0.00000   0.00000   0.00000   0.00000   0.00000   0.00000   0.00000   0.00000   0.00000   0.00000 ...
   0.00000   0.00000   0.00000   0.00000   0.08387   0.00000   0.00000  -0.34652   0.00000   0.00000   0.00000   0.00000 ...
   0.00000   0.00000   0.00000  -0.08387   0.00000   0.00000   0.34652   0.00000   0.00000   0.00000   0.00000   0.00000 ...
   0.00000   0.00000   0.00000   0.00000   0.00000   0.00000   0.00000   0.00000   0.00000   0.02199   0.00000   0.00000 ...
   0.00000   0.00000   0.00000   0.00000   0.00000   0.00000   0.00000   0.00000  -0.02199   0.00000   0.00000   0.00000 ...
   0.00000   0.00000   0.00000   0.00000   0.00000   0.00000   0.00000   0.00000   0.00000   0.00000   0.00000  -0.03809 ...
   0.00000   0.00000   0.00000   0.00000   0.00000   0.00000   0.00000   0.00000   0.00000   0.00000   0.03809   0.00000 ...
   ...  only 12  components have been written...
   === IMAGINARY PART:
  -0.00000  -0.00000  -0.00000  -0.00000  -0.00000  -0.00000  -0.00000  -0.00000  -0.00000  -0.00000  -0.00000  -0.00000 ...
   0.00000  -0.00000  -0.00000  -0.00000  -0.00000  -0.00000  -0.00000  -0.00000  -0.00000  -0.00000  -0.00000  -0.00000 ...
   0.00000   0.00000  -0.00000   0.02030  -0.00000  -0.00000  -0.08387  -0.00000  -0.00000  -0.00000  -0.00000  -0.00000 ...
   0.00000   0.00000  -0.02030  -0.00000  -0.00000   0.08387  -0.00000  -0.00000  -0.00000  -0.00000  -0.00000  -0.00000 ...
   0.00000   0.00000   0.00000   0.00000  -0.00000  -0.00000  -0.00000  -0.00000  -0.00000  -0.00000  -0.00000  -0.00000 ...
   0.00000   0.00000   0.00000  -0.08387   0.00000  -0.00000   0.34652  -0.00000  -0.00000  -0.00000  -0.00000  -0.00000 ...
   0.00000   0.00000   0.08387   0.00000   0.00000  -0.34652  -0.00000  -0.00000  -0.00000  -0.00000  -0.00000  -0.00000 ...
   0.00000   0.00000   0.00000   0.00000   0.00000   0.00000   0.00000  -0.00000  -0.00000  -0.00000  -0.00000  -0.00000 ...
   0.00000   0.00000   0.00000   0.00000   0.00000   0.00000   0.00000   0.00000  -0.00000  -0.00000  -0.00000   0.02199 ...
   0.00000   0.00000   0.00000   0.00000   0.00000   0.00000   0.00000   0.00000   0.00000  -0.00000   0.03809  -0.00000 ...
   0.00000   0.00000   0.00000   0.00000   0.00000   0.00000   0.00000   0.00000   0.00000  -0.03809  -0.00000  -0.00000 ...
   0.00000   0.00000   0.00000   0.00000   0.00000   0.00000   0.00000   0.00000  -0.02199   0.00000   0.00000  -0.00000 ...
   ...  only 12  components have been written...


 Augmentation waves occupancies Rhoij:
 Atom #  1 - Component dens (n)
   === REAL PART:
   1.93910   0.01245  -0.00000  -0.00000  -0.00000   0.00000   0.00000   0.00000   0.00000   0.00000  -0.00000  -0.00000 ...
   0.01245   0.00008  -0.00000  -0.00000   0.00000  -0.00000   0.00000  -0.00000   0.00000   0.00000  -0.00000  -0.00000 ...
  -0.00000  -0.00000   1.00464   0.00000  -0.00000  -0.03618   0.00000   0.00000   0.00000   0.00000  -0.00000   0.00000 ...
  -0.00000  -0.00000   0.00000   1.00464  -0.00000   0.00000  -0.03618  -0.00000   0.00000  -0.00000   0.00000   0.00000 ...
  -0.00000   0.00000  -0.00000  -0.00000   1.00464   0.00000  -0.00000  -0.03618   0.00000   0.00000  -0.00000   0.00000 ...
   0.00000  -0.00000  -0.03618   0.00000   0.00000   0.00371   0.00000   0.00000   0.00000   0.00000  -0.00000   0.00000 ...
   0.00000   0.00000   0.00000  -0.03618  -0.00000   0.00000   0.00371   0.00000   0.00000   0.00000   0.00000   0.00000 ...
   0.00000  -0.00000   0.00000  -0.00000  -0.03618   0.00000   0.00000   0.00371   0.00000   0.00000  -0.00000   0.00000 ...
   0.00000   0.00000   0.00000   0.00000   0.00000   0.00000   0.00000   0.00000   1.99061   0.00000   0.00000  -0.00000 ...
   0.00000   0.00000   0.00000  -0.00000   0.00000   0.00000   0.00000   0.00000   0.00000   1.99061  -0.00000  -0.00000 ...
  -0.00000  -0.00000  -0.00000   0.00000  -0.00000  -0.00000   0.00000  -0.00000   0.00000  -0.00000   1.99057   0.00000 ...
  -0.00000  -0.00000   0.00000   0.00000   0.00000   0.00000   0.00000   0.00000  -0.00000  -0.00000   0.00000   1.99061 ...
   ...  only 12  components have been written...
   === IMAGINARY PART:
  -0.00000   0.00000   0.00000   0.00000  -0.00000   0.00000  -0.00000   0.00000   0.00000   0.00000   0.00000   0.00000 ...
  -0.00000  -0.00000   0.00000   0.00000  -0.00000   0.00000  -0.00000   0.00000   0.00000   0.00000   0.00000   0.00000 ...
  -0.00000  -0.00000  -0.00000  -0.00000   0.00000  -0.00000   0.00000   0.00000  -0.00000   0.00000   0.00000   0.00000 ...
  -0.00000  -0.00000   0.00000  -0.00000   0.00000   0.00000   0.00000  -0.00000  -0.00000  -0.00000   0.00000  -0.00000 ...
   0.00000   0.00000  -0.00000  -0.00000  -0.00000  -0.00000   0.00000   0.00000   0.00000  -0.00000  -0.00000   0.00000 ...
  -0.00000  -0.00000   0.00000  -0.00000   0.00000  -0.00000   0.00000  -0.00000  -0.00000   0.00000   0.00000   0.00000 ...
   0.00000   0.00000  -0.00000  -0.00000  -0.00000  -0.00000  -0.00000   0.00000  -0.00000  -0.00000   0.00000  -0.00000 ...
  -0.00000  -0.00000  -0.00000   0.00000  -0.00000   0.00000  -0.00000  -0.00000   0.00000   0.00000  -0.00000   0.00000 ...
  -0.00000  -0.00000   0.00000   0.00000  -0.00000   0.00000   0.00000  -0.00000  -0.00000   0.00000   0.00000   0.00000 ...
  -0.00000  -0.00000  -0.00000   0.00000   0.00000  -0.00000   0.00000  -0.00000  -0.00000  -0.00000  -0.00000   0.00000 ...
  -0.00000  -0.00000  -0.00000  -0.00000   0.00000  -0.00000  -0.00000   0.00000  -0.00000   0.00000  -0.00000  -0.00000 ...
  -0.00000  -0.00000  -0.00000   0.00000  -0.00000  -0.00000   0.00000  -0.00000  -0.00000  -0.00000   0.00000  -0.00000 ...
   ...  only 12  components have been written...
 Atom #  1 - Component magn (x)
   === REAL PART:
  -0.00000  -0.00000  -0.00000   0.00000   0.00000  -0.00000  -0.00000   0.00000   0.00000   0.00000   0.00000   0.00000 ...
  -0.00000  -0.00000  -0.00000   0.00000  -0.00000  -0.00000  -0.00000  -0.00000   0.00000   0.00000   0.00000   0.00000 ...
  -0.00000  -0.00000  -0.00000  -0.00000  -0.00000  -0.00000  -0.00000   0.00000  -0.00000  -0.00000  -0.00000  -0.00000 ...
   0.00000   0.00000  -0.00000  -0.00000  -0.00000  -0.00000  -0.00000   0.00000  -0.00000   0.00000   0.00000  -0.00000 ...
   0.00000  -0.00000  -0.00000  -0.00000   0.00000   0.00000  -0.00000   0.00000  -0.00000   0.00000  -0.00000  -0.00000 ...
  -0.00000  -0.00000  -0.00000  -0.00000   0.00000   0.00000  -0.00000  -0.00000  -0.00000  -0.00000  -0.00000   0.00000 ...
  -0.00000  -0.00000  -0.00000  -0.00000  -0.00000  -0.00000   0.00000  -0.00000  -0.00000   0.00000   0.00000  -0.00000 ...
   0.00000  -0.00000   0.00000   0.00000   0.00000  -0.00000  -0.00000  -0.00000  -0.00000   0.00000  -0.00000  -0.00000 ...
   0.00000   0.00000  -0.00000  -0.00000  -0.00000  -0.00000  -0.00000  -0.00000  -0.00000  -0.00000  -0.00000   0.00000 ...
   0.00000   0.00000  -0.00000   0.00000   0.00000  -0.00000   0.00000   0.00000  -0.00000   0.00000  -0.00000   0.00000 ...
   0.00000   0.00000  -0.00000   0.00000  -0.00000  -0.00000   0.00000  -0.00000  -0.00000  -0.00000   0.00000  -0.00000 ...
   0.00000   0.00000  -0.00000  -0.00000  -0.00000   0.00000  -0.00000  -0.00000   0.00000   0.00000  -0.00000  -0.00000 ...
   ...  only 12  components have been written...
   === IMAGINARY PART:
  -0.00000   0.00000   0.00000   0.00000  -0.00000  -0.00000   0.00000   0.00000  -0.00000  -0.00000  -0.00000  -0.00000 ...
  -0.00000  -0.00000   0.00000   0.00000  -0.00000  -0.00000   0.00000   0.00000  -0.00000  -0.00000  -0.00000  -0.00000 ...
  -0.00000  -0.00000  -0.00000   0.45546  -0.00000  -0.00000  -0.05191  -0.00000   0.00000  -0.00000   0.00000   0.00000 ...
  -0.00000  -0.00000  -0.45546  -0.00000   0.00000   0.05191   0.00000   0.00000  -0.00000  -0.00000   0.00000  -0.00000 ...
   0.00000   0.00000   0.00000  -0.00000  -0.00000   0.00000   0.00000   0.00000   0.00000   0.00000  -0.00000  -0.00000 ...
   0.00000   0.00000   0.00000  -0.05191  -0.00000  -0.00000   0.00326   0.00000   0.00000   0.00000   0.00000   0.00000 ...
  -0.00000  -0.00000   0.05191  -0.00000  -0.00000  -0.00326  -0.00000  -0.00000  -0.00000  -0.00000   0.00000  -0.00000 ...
  -0.00000  -0.00000   0.00000  -0.00000  -0.00000  -0.00000   0.00000  -0.00000   0.00000  -0.00000  -0.00000  -0.00000 ...
   0.00000   0.00000  -0.00000   0.00000  -0.00000  -0.00000   0.00000  -0.00000  -0.00000  -0.00000  -0.00000  -0.00010 ...
   0.00000   0.00000   0.00000   0.00000  -0.00000  -0.00000   0.00000   0.00000   0.00000  -0.00000  -0.00019  -0.00000 ...
   0.00000   0.00000  -0.00000  -0.00000   0.00000  -0.00000  -0.00000   0.00000   0.00000   0.00019  -0.00000   0.00000 ...
   0.00000   0.00000  -0.00000   0.00000   0.00000  -0.00000   0.00000   0.00000   0.00010   0.00000  -0.00000  -0.00000 ...
   ...  only 12  components have been written...
 Atom #  1 - Component magn (y)
   === REAL PART:
  -0.00000  -0.00000   0.00000  -0.00000  -0.00000   0.00000   0.00000  -0.00000   0.00000  -0.00000   0.00000  -0.00000 ...
  -0.00000  -0.00000   0.00000  -0.00000  -0.00000   0.00000   0.00000   0.00000   0.00000  -0.00000   0.00000  -0.00000 ...
   0.00000   0.00000   0.00000   0.00000   0.00000   0.00000   0.00000   0.00000   0.00000   0.00000   0.00000  -0.00000 ...
  -0.00000  -0.00000   0.00000  -0.00000  -0.00000   0.00000  -0.00000  -0.00000  -0.00000   0.00000   0.00000  -0.00000 ...
  -0.00000  -0.00000   0.00000  -0.00000  -0.00000   0.00000  -0.00000  -0.00000   0.00000   0.00000   0.00000  -0.00000 ...
   0.00000   0.00000   0.00000   0.00000   0.00000  -0.00000  -0.00000  -0.00000   0.00000   0.00000  -0.00000  -0.00000 ...
   0.00000   0.00000   0.00000  -0.00000  -0.00000  -0.00000   0.00000  -0.00000  -0.00000   0.00000  -0.00000  -0.00000 ...
  -0.00000   0.00000   0.00000  -0.00000  -0.00000  -0.00000  -0.00000   0.00000   0.00000   0.00000   0.00000  -0.00000 ...
   0.00000   0.00000   0.00000  -0.00000   0.00000   0.00000  -0.00000   0.00000   0.00000   0.00000  -0.00000  -0.00000 ...
  -0.00000  -0.00000   0.00000   0.00000   0.00000   0.00000   0.00000   0.00000   0.00000  -0.00000   0.00000   0.00000 ...
   0.00000   0.00000   0.00000   0.00000   0.00000  -0.00000  -0.00000   0.00000  -0.00000   0.00000  -0.00000  -0.00000 ...
  -0.00000  -0.00000  -0.00000  -0.00000  -0.00000  -0.00000  -0.00000  -0.00000  -0.00000   0.00000  -0.00000  -0.00000 ...
   ...  only 12  components have been written...
   === IMAGINARY PART:
  -0.00000  -0.00000  -0.00000   0.00000  -0.00000   0.00000  -0.00000   0.00000  -0.00000   0.00000  -0.00000  -0.00000 ...
   0.00000  -0.00000  -0.00000  -0.00000  -0.00000   0.00000   0.00000   0.00000  -0.00000   0.00000  -0.00000  -0.00000 ...
   0.00000   0.00000  -0.00000   0.00000  -0.00000   0.00000  -0.00000  -0.00000   0.00000   0.00000   0.00000   0.00000 ...
  -0.00000   0.00000  -0.00000  -0.00000   0.45546  -0.00000  -0.00000  -0.05191   0.00000   0.00000  -0.00000  -0.00000 ...
   0.00000   0.00000   0.00000  -0.45546  -0.00000   0.00000   0.05191   0.00000  -0.00000  -0.00000  -0.00000  -0.00000 ...
  -0.00000  -0.00000  -0.00000   0.00000  -0.00000  -0.00000  -0.00000  -0.00000   0.00000   0.00000  -0.00000   0.00000 ...
   0.00000  -0.00000   0.00000   0.00000  -0.05191   0.00000  -0.00000   0.00326   0.00000   0.00000  -0.00000   0.00000 ...
  -0.00000  -0.00000   0.00000   0.05191  -0.00000   0.00000  -0.00326  -0.00000  -0.00000  -0.00000  -0.00000  -0.00000 ...
   0.00000   0.00000  -0.00000  -0.00000   0.00000  -0.00000  -0.00000   0.00000  -0.00000   0.00010   0.00000   0.00000 ...
  -0.00000  -0.00000  -0.00000  -0.00000   0.00000  -0.00000  -0.00000   0.00000  -0.00010  -0.00000   0.00000  -0.00000 ...
   0.00000   0.00000  -0.00000   0.00000   0.00000   0.00000   0.00000   0.00000  -0.00000  -0.00000  -0.00000  -0.00019 ...
   0.00000   0.00000  -0.00000   0.00000   0.00000  -0.00000  -0.00000   0.00000  -0.00000   0.00000   0.00019  -0.00000 ...
   ...  only 12  components have been written...
 Atom #  1 - Component magn (z)
   === REAL PART:
  -0.00000  -0.00000  -0.00000  -0.00000  -0.00000  -0.00000  -0.00000   0.00000   0.00000  -0.00000  -0.00000  -0.00000 ...
  -0.00000  -0.00000   0.00000  -0.00000  -0.00000  -0.00000  -0.00000   0.00000   0.00000  -0.00000  -0.00000  -0.00000 ...
  -0.00000   0.00000   0.00000  -0.00000  -0.00000   0.00000   0.00000  -0.00000   0.00000   0.00000   0.00000   0.00000 ...
  -0.00000  -0.00000  -0.00000   0.00000   0.00000   0.00000   0.00000   0.00000  -0.00000   0.00000  -0.00000   0.00000 ...
  -0.00000  -0.00000  -0.00000   0.00000   0.00000  -0.00000   0.00000  -0.00000   0.00000   0.00000  -0.00000  -0.00000 ...
  -0.00000  -0.00000   0.00000   0.00000  -0.00000   0.00000  -0.00000  -0.00000   0.00000   0.00000   0.00000   0.00000 ...
  -0.00000  -0.00000   0.00000   0.00000   0.00000  -0.00000  -0.00000  -0.00000   0.00000   0.00000  -0.00000   0.00000 ...
   0.00000   0.00000  -0.00000   0.00000  -0.00000  -0.00000  -0.00000   0.00000   0.00000   0.00000  -0.00000   0.00000 ...
   0.00000   0.00000   0.00000  -0.00000   0.00000   0.00000   0.00000   0.00000  -0.00000   0.00000   0.00000   0.00000 ...
  -0.00000  -0.00000   0.00000   0.00000   0.00000   0.00000   0.00000   0.00000   0.00000   0.00000  -0.00000   0.00000 ...
  -0.00000  -0.00000   0.00000  -0.00000  -0.00000   0.00000  -0.00000  -0.00000   0.00000  -0.00000   0.00000  -0.00000 ...
  -0.00000  -0.00000   0.00000   0.00000  -0.00000   0.00000   0.00000   0.00000   0.00000   0.00000  -0.00000   0.00000 ...
   ...  only 12  components have been written...
   === IMAGINARY PART:
  -0.00000   0.00000  -0.00000  -0.00000  -0.00000   0.00000   0.00000  -0.00000   0.00000  -0.00000  -0.00000  -0.00000 ...
  -0.00000  -0.00000   0.00000  -0.00000  -0.00000  -0.00000   0.00000   0.00000   0.00000  -0.00000  -0.00000  -0.00000 ...
   0.00000  -0.00000  -0.00000   0.00000  -0.45546   0.00000   0.00000   0.05191  -0.00000  -0.00000   0.00000   0.00000 ...
   0.00000   0.00000  -0.00000  -0.00000   0.00000  -0.00000  -0.00000   0.00000   0.00000   0.00000  -0.00000  -0.00000 ...
   0.00000   0.00000   0.45546  -0.00000  -0.00000  -0.05191  -0.00000  -0.00000   0.00000   0.00000  -0.00000   0.00000 ...
  -0.00000   0.00000  -0.00000   0.00000   0.05191  -0.00000   0.00000  -0.00326  -0.00000  -0.00000   0.00000  -0.00000 ...
  -0.00000  -0.00000  -0.00000   0.00000   0.00000  -0.00000  -0.00000  -0.00000   0.00000  -0.00000  -0.00000  -0.00000 ...
   0.00000  -0.00000  -0.05191  -0.00000   0.00000   0.00326   0.00000  -0.00000   0.00000   0.00000  -0.00000   0.00000 ...
  -0.00000  -0.00000   0.00000  -0.00000  -0.00000   0.00000  -0.00000  -0.00000  -0.00000  -0.00000  -0.00000   0.00000 ...
   0.00000   0.00000   0.00000  -0.00000  -0.00000   0.00000   0.00000  -0.00000   0.00000  -0.00000  -0.00000   0.00010 ...
   0.00000   0.00000  -0.00000   0.00000   0.00000  -0.00000   0.00000   0.00000   0.00000   0.00000  -0.00000  -0.00000 ...
   0.00000   0.00000  -0.00000   0.00000  -0.00000   0.00000   0.00000  -0.00000  -0.00000  -0.00010   0.00000  -0.00000 ...
   ...  only 12  components have been written...


================================================================================

 ----iterations are completed or convergence reached----

 Mean square residual over all n,k,spin=   5.2190E-12; max=  3.6600E-11
   0.0000  0.0000  0.0000    1  3.66001E-11 kpt; spin; max resid(k); each band:
  3.02E-13 3.56E-13 3.09E-13 3.43E-13 4.97E-13 5.08E-13 4.93E-13 5.30E-13
  5.96E-14 4.58E-14 1.36E-12 1.39E-12 4.65E-13 6.77E-13 6.76E-13 1.16E-12
  6.00E-13 6.05E-13 8.82E-12 5.01E-12 5.73E-12 3.66E-11 3.00E-11 2.87E-11
 reduced coordinates (array xred) for    1 atoms
       0.000000000000      0.000000000000      0.000000000000
 rms dE/dt=  2.0020E-06; max dE/dt=  0.0000E+00; dE/dt below (all hartree)
    1      -0.000003120428     -0.000000989294     -0.000001143763

 cartesian coordinates (angstrom) at end:
    1      0.00000000000000     0.00000000000000     0.00000000000000

 cartesian forces (hartree/bohr) at end:
    1      0.00000000000000     0.00000000000000     0.00000000000000
 frms,max,avg= 0.0000000E+00 0.0000000E+00   3.120E-07  9.893E-08  1.144E-07 h/b

 cartesian forces (eV/Angstrom) at end:
    1      0.00000000000000     0.00000000000000     0.00000000000000
 frms,max,avg= 0.0000000E+00 0.0000000E+00   1.605E-05  5.087E-06  5.881E-06 e/A
 length scales= 10.000000000000 10.000000000000 10.000000000000 bohr
              =  5.291772085900  5.291772085900  5.291772085900 angstroms
 prteigrs : about to open file tspin_6o_DS2_EIG
 Fermi (or HOMO) energy (hartree) =  -0.04763   Average Vxc (hartree)=  -0.15847
 Eigenvalues (hartree) for nkpt=   1  k points:
 kpt#   1, nband= 24, wtk=  1.00000, kpt=  0.0000  0.0000  0.0000 (reduced coord)
  -0.93353  -0.93353  -0.93353  -0.93353  -0.82304  -0.82304  -0.82304  -0.82304
  -0.82291  -0.82291  -0.42972  -0.42972  -0.11089  -0.11089  -0.03810  -0.03810
  -0.03810  -0.03810   0.02071   0.02071   0.12883   0.12883   0.12883   0.12883
      occupation numbers for kpt#   1
   1.00000   1.00000   1.00000   1.00000   1.00000   1.00000   1.00000   1.00000
   1.00000   1.00000   1.00000   1.00000   1.00000   1.00000   0.25000   0.25000
   0.25000   0.25000   0.00000   0.00000   0.00000   0.00000   0.00000   0.00000
 Total charge density [el/Bohr^3]
,     Maximum=    6.9104E-01  at reduced coord.    0.0000    0.0000    0.0000
,Next maximum=    6.7045E-01  at reduced coord.    0.9722    0.0000    0.0000
,     Minimum=    1.4257E-06  at reduced coord.    0.5000    0.5000    0.5000
,Next minimum=    1.8964E-06  at reduced coord.    0.5000    0.5278    0.5000
,  Integrated=    1.5000E+01

--------------------------------------------------------------------------------
 Components of total free energy (in Hartree) :

    Kinetic energy  =  6.26556451828933E+00
    Hartree energy  =  2.75858469381354E+01
    XC energy       = -7.34886503313940E+00
    Ewald energy    = -3.19195966441566E+01
    PspCore energy  =  7.73482506437258E-01
    Loc. psp. energy= -7.29295583845017E+01
    Spherical terms =  5.31773211547267E+00
    >>>>> Internal E= -7.22553939834630E+01

    -kT*entropy     = -1.79768240517125E-02
    >>>>>>>>> Etotal= -7.22733708075147E+01

 "Double-counting" decomposition of free energy:
    Band energy     = -9.79144039391442E+00
    Ewald energy    = -3.19195966441566E+01
    PspCore energy  =  7.73482506437258E-01
    Dble-C XC-energy= -2.53636147458564E+01
    Spherical terms = -5.95423387063206E+00
    >>>>> Internal E= -7.22554031481223E+01

    -kT*entropy     = -1.79768240517125E-02
    >>>> Etotal (DC)= -7.22733799721740E+01

  >Total energy in eV           = -1.96665843589940E+03
  >Total DC energy in eV        = -1.96665868528246E+03
--------------------------------------------------------------------------------

 Cartesian components of stress tensor (hartree/bohr^3)
  sigma(1 1)= -5.34138536E-05  sigma(3 2)=  2.50791603E-10
  sigma(2 2)= -5.34139848E-05  sigma(3 1)= -5.03411350E-11
  sigma(3 3)= -5.34135697E-05  sigma(2 1)= -3.35973727E-10

-Cartesian components of stress tensor (GPa)         [Pressure=  1.5715E+00 GPa]
- sigma(1 1)= -1.57148956E+00  sigma(3 2)=  7.37854245E-06
- sigma(2 2)= -1.57149342E+00  sigma(3 1)= -1.48108708E-06
- sigma(3 3)= -1.57148121E+00  sigma(2 1)= -9.88468666E-06

== END DATASET(S) ==============================================================
================================================================================
  
 -outvars: echo values of variables after computation  --------
            acell      1.0000000000E+01  1.0000000000E+01  1.0000000000E+01 Bohr
              amu      2.08980370E+02
             ecut      8.00000000E+00 Hartree
           etotal1    -7.2191318398E+01
           etotal2    -7.2273379972E+01
            fcart1     0.0000000000E+00  0.0000000000E+00  0.0000000000E+00
            fcart2     0.0000000000E+00  0.0000000000E+00  0.0000000000E+00
-          fftalg         112
           istwfk1       2
           istwfk2       1
              ixc           7
           jdtset        1    2
           kptopt           4
         kptrlatt        1    0    0      0    1    0      0    0    1
          kptrlen      1.00000000E+04
P           mkmem           1
            natom           1
            nband1         12
            nband2         24
           ndtset           2
            ngfft          27      27      27
          ngfftdg          36      36      36
             nkpt           1
          nspinor1          1
          nspinor2          2
            nstep          20
             nsym           1
           ntypat           1
              occ1     2.000000  2.000000  2.000000  2.000000  2.000000  2.000000
                       1.000002  1.000001  0.999998  0.000000  0.000000  0.000000
              occ2     1.000000  1.000000  1.000000  1.000000  1.000000  1.000000
                       1.000000  1.000000  1.000000  1.000000  1.000000  1.000000
                       0.999996  0.999996  0.250002  0.250002  0.250001  0.250001
                       0.000001  0.000001  0.000000  0.000000  0.000000  0.000000
           occopt           7
        pawcpxocc1          1
        pawcpxocc2          2
        pawecutdg      1.50000000E+01 Hartree
        pawspnorb1          0
        pawspnorb2          1
          spgroup           1
           strten1    -6.5421561404E-05 -6.5422064345E-05 -6.5421256197E-05
                      -7.8366963269E-11  1.4687879538E-09 -2.9120912762E-09
           strten2    -5.3413853639E-05 -5.3413984826E-05 -5.3413569656E-05
                       2.5079160267E-10 -5.0341134958E-11 -3.3597372727E-10
           toldfe      1.00000000E-07 Hartree
           tsmear      2.00000000E-02 Hartree
            typat      1
           useylm           1
            znucl       83.00000

================================================================================


- Timing analysis has been suppressed with timopt=0



================================================================================

 Suggested references for the acknowledgment of ABINIT usage.

 The users of ABINIT have little formal obligations with respect to the ABINIT group
 (those specified in the GNU General Public License, http://www.gnu.org/copyleft/gpl.txt).
 However, it is common practice in the scientific literature,
 to acknowledge the efforts of people that have made the research possible.
 In this spirit, please find below suggested citations of work written by ABINIT developers,
 corresponding to implementations inside of ABINIT that you have used in the present run.
 Note also that it will be of great value to readers of publications presenting these results,
 to read papers enabling them to understand the theoretical formalism and details
 of the ABINIT implementation.
 For information on why they are suggested, see also http://www.abinit.org/about/?text=acknowledgments.

 [1] Implementation of the Projector Augmented-Wave Method in the ABINIT code.
 M. Torrent, F. Jollet, F. Bottin, G. Zerah, and X. Gonze Comput. Mat. Science 42, 337, (2008).
 Comment : PAW calculations. Strong suggestion to cite this paper.

 [2] ABINIT : First-principles approach of materials and nanosystem properties.
 X. Gonze, B. Amadon, P.-M. Anglade, J.-M. Beuken, F. Bottin, P. Boulanger, F. Bruneval,
 D. Caliste, R. Caracas, M. Cote, T. Deutsch, L. Genovese, Ph. Ghosez, M. Giantomassi
 S. Goedecker, D.R. Hamann, P. Hermet, F. Jollet, G. Jomard, S. Leroux, M. Mancini, S. Mazevet,
 M.J.T. Oliveira, G. Onida, Y. Pouillon, T. Rangel, G.-M. Rignanese, D. Sangalli, R. Shaltaf,
 M. Torrent, M.J. Verstraete, G. Zerah, J.W. Zwanziger
 Computer Phys. Comm. 180, 2582-2615 (2009).
 Comment : the third generic paper describing the ABINIT project.
 Note that a version of this paper, that is not formatted for Computer Phys. Comm. 
 is available at http://www.abinit.org/about/ABINIT_CPC_v10.pdf .
 The licence allows the authors to put it on the Web.

 [3] A brief introduction to the ABINIT software package.
 X. Gonze, G.-M. Rignanese, M. Verstraete, J.-M. Beuken, Y. Pouillon, R. Caracas, F. Jollet,
 M. Torrent, G. Zerah, M. Mikami, Ph. Ghosez, M. Veithen, J.-Y. Raty, V. Olevano, F. Bruneval,
 L. Reining, R. Godby, G. Onida, D.R. Hamann, and D.C. Allan.
 Z. Kristallogr. 220, 558-562 (2005).
 Comment : the second generic paper describing the ABINIT project. Note that this paper
 should be cited especially if you are using the GW part of ABINIT, as several authors
 of this part are not in the list of authors of the first or third paper.
 The .pdf of the latter paper is available at http://www.abinit.org/about/zfk_0505-06_558-562.pdf.
 Note that it should not redistributed (Copyright by Oldenburg Wissenshaftverlag,
 the licence allows the authors to put it on the Web).


 And optionally :

 [4] First-principles computation of material properties : the ABINIT software project. 
 X. Gonze, J.-M. Beuken, R. Caracas, F. Detraux, M. Fuchs, G.-M. Rignanese, L. Sindic,
 M. Verstraete, G. Zerah, F. Jollet, M. Torrent, A. Roy, M. Mikami, Ph. Ghosez, J.-Y. Raty, D.C. Allan.
 Computational Materials Science 25, 478-492 (2002). http://dx.doi.org/10.1016/S0927-0256(02)00325-7
 Comment : the original paper describing the ABINIT project.

 [5] Fast radix 2, 3, 4 and 5 kernels for Fast Fourier Transformations
 on computers with overlapping multiply-add instructions.
 S. Goedecker, SIAM J. on Scientific Computing 18, 1605 (1997).
-
- Proc.   0 individual time (sec): cpu=          7.6  wall=          7.6

================================================================================

 Calculation completed.
.Delivered    0 WARNINGs and   6 COMMENTs to log file.
+Overall time at end (sec) : cpu=          7.6  wall=          7.6
