
.Version 7.9.3 of ABINIT 
.(MPI version, prepared for a x86_64_linux_gnu4.7 computer) 

.Copyright (C) 1998-2014 ABINIT group . 
 ABINIT comes with ABSOLUTELY NO WARRANTY.
 It is free software, and you are welcome to redistribute it
 under certain conditions (GNU General Public License,
 see ~abinit/COPYING or http://www.gnu.org/copyleft/gpl.txt).

 ABINIT is a project of the Universite Catholique de Louvain,
 Corning Inc. and other collaborators, see ~abinit/doc/developers/contributors.txt .
 Please read ~abinit/doc/users/acknowledgments.html for suggested
 acknowledgments of the ABINIT effort.
 For more information, see http://www.abinit.org .

.Starting date : Sat 30 Aug 2014.
- ( at 22h29 )
  
- input  file    -> tspin_3.in
- output file    -> tspin_3.out
- root for input  files -> tspin_3i
- root for output files -> tspin_3o


 DATASET    1 : magnetic group, Shubnikov type IV
 Fedorov space group Pm m m (# 47)
 Magnetic Bravais lattice tP_C (primitive tetrag., C-magnetic, #24)
================================================================================
 Values of the parameters that define the memory need for DATASET  1.
   intxc =         0  ionmov =         0    iscf =         7 xclevel =         1
  lmnmax =         2   lnmax =         2   mband =        16  mffmem =         1
P  mgfft =        27   mkmem =        18 mpssoang=         3     mpw =       530
  mqgrid =      3001   natom =         2    nfft =      8748    nkpt =        18
  nloalg =         4  nspden =         2 nspinor =         1  nsppol =         2
    nsym =        16  n1xccc =      2501  ntypat =         1  occopt =         3
================================================================================
P This job should need less than                      10.068 Mbytes of memory.
  Rough estimation (10% accuracy) of disk space for files :
_ WF disk file :      4.660 Mbytes ; DEN or POT disk file :      0.135 Mbytes.
================================================================================


 DATASET    2 : magnetic group, Shubnikov type IV
 Fedorov space group Pm m m (# 47)
 Magnetic Bravais lattice tP_C (primitive tetrag., C-magnetic, #24)
================================================================================
 Values of the parameters that define the memory need for DATASET  2.
   intxc =         0  ionmov =         0    iscf =        -3 xclevel =         1
  lmnmax =         2   lnmax =         2   mband =        16  mffmem =         1
P  mgfft =        27   mkmem =         4 mpssoang=         3     mpw =       530
  mqgrid =      3001   natom =         2    nfft =      8748    nkpt =         4
  nloalg =         4  nspden =         2 nspinor =         1  nsppol =         2
    nsym =        16  n1xccc =      2501  ntypat =         1  occopt =         3
================================================================================
P This job should need less than                       4.156 Mbytes of memory.
  Rough estimation (10% accuracy) of disk space for files :
_ WF disk file :      1.037 Mbytes ; DEN or POT disk file :      0.135 Mbytes.
================================================================================


 DATASET    3 : magnetic group, Shubnikov type IV
 Fedorov space group Pm m m (# 47)
 Magnetic Bravais lattice tP_C (primitive tetrag., C-magnetic, #24)
================================================================================
 Values of the parameters that define the memory need for DATASET  3.
   intxc =         0  ionmov =         0    iscf =        -3 xclevel =         1
  lmnmax =         2   lnmax =         2   mband =        16  mffmem =         1
P  mgfft =        27   mkmem =         4 mpssoang=         3     mpw =       530
  mqgrid =      3001   natom =         2    nfft =      8748    nkpt =         4
  nloalg =         4  nspden =         2 nspinor =         1  nsppol =         2
    nsym =        16  n1xccc =      2501  ntypat =         1  occopt =         3
================================================================================
P This job should need less than                       4.156 Mbytes of memory.
  Rough estimation (10% accuracy) of disk space for files :
_ WF disk file :      1.037 Mbytes ; DEN or POT disk file :      0.135 Mbytes.
================================================================================

--------------------------------------------------------------------------------
------------- Echo of variables that govern the present computation ------------
--------------------------------------------------------------------------------
-
- outvars: echo of selected default values                                      
-   accesswff0 =  0 , fftalg0 =112 , wfoptalg0 =  0
-
- outvars: echo of global parameters not present in the input file              
-  max_nthreads =    0
-
 -outvars: echo values of preprocessed input variables --------
            acell      6.6000000000E+00  6.6000000000E+00  6.6000000000E+00 Bohr
              amu      5.58470000E+01
             ecut      1.80000000E+01 Hartree
-          fftalg         112
           getden1          0
           getden2          1
           getden3          1
           iatsph2       1
           iatsph3       2
             iscf1          7
             iscf2         -3
             iscf3         -3
           jdtset        1    2    3
              kpt1     8.33333333E-02  8.33333333E-02  1.25000000E-01
                       2.50000000E-01  8.33333333E-02  1.25000000E-01
                       4.16666667E-01  8.33333333E-02  1.25000000E-01
                       8.33333333E-02  2.50000000E-01  1.25000000E-01
                       2.50000000E-01  2.50000000E-01  1.25000000E-01
                       4.16666667E-01  2.50000000E-01  1.25000000E-01
                       8.33333333E-02  4.16666667E-01  1.25000000E-01
                       2.50000000E-01  4.16666667E-01  1.25000000E-01
                       4.16666667E-01  4.16666667E-01  1.25000000E-01
                       8.33333333E-02  8.33333333E-02  3.75000000E-01
                       2.50000000E-01  8.33333333E-02  3.75000000E-01
                       4.16666667E-01  8.33333333E-02  3.75000000E-01
                       8.33333333E-02  2.50000000E-01  3.75000000E-01
                       2.50000000E-01  2.50000000E-01  3.75000000E-01
                       4.16666667E-01  2.50000000E-01  3.75000000E-01
                       8.33333333E-02  4.16666667E-01  3.75000000E-01
                       2.50000000E-01  4.16666667E-01  3.75000000E-01
                       4.16666667E-01  4.16666667E-01  3.75000000E-01
              kpt2     1.66666667E-01  1.66666667E-01  2.50000000E-01
                       5.00000000E-01  1.66666667E-01  2.50000000E-01
                       1.66666667E-01  5.00000000E-01  2.50000000E-01
                       5.00000000E-01  5.00000000E-01  2.50000000E-01
              kpt3     1.66666667E-01  1.66666667E-01  2.50000000E-01
                       5.00000000E-01  1.66666667E-01  2.50000000E-01
                       1.66666667E-01  5.00000000E-01  2.50000000E-01
                       5.00000000E-01  5.00000000E-01  2.50000000E-01
         kptrlatt1       6    0    0      0    6    0      0    0    4
         kptrlatt2       3    0    0      0    3    0      0    0    2
         kptrlatt3       3    0    0      0    3    0      0    0    2
          kptrlen1     2.64000000E+01
          kptrlen2     1.32000000E+01
          kptrlen3     1.32000000E+01
P           mkmem1         18
P           mkmem2          4
P           mkmem3          4
            natom           2
           natsph2       1
           natsph3       1
            nband1         16
            nband2         16
            nband3         16
           nbdbuf1          0
           nbdbuf2          2
           nbdbuf3          2
           ndtset           3
            ngfft          18      18      27
             nkpt1         18
             nkpt2          4
             nkpt3          4
           nspden           2
           nsppol           2
            nstep          70
             nsym          16
           ntypat           1
              occ1     1.000000  1.000000  1.000000  1.000000  1.000000  1.000000
                       1.000000  1.000000  0.000000  0.000000  0.000000  0.000000
                       0.000000  0.000000  0.000000  0.000000
                       1.000000  1.000000  1.000000  1.000000  1.000000  1.000000
                       1.000000  1.000000  0.000000  0.000000  0.000000  0.000000
                       0.000000  0.000000  0.000000  0.000000
                       1.000000  1.000000  1.000000  1.000000  1.000000  1.000000
                       1.000000  1.000000  0.000000  0.000000  0.000000  0.000000
                       0.000000  0.000000  0.000000  0.000000
                       1.000000  1.000000  1.000000  1.000000  1.000000  1.000000
                       1.000000  1.000000  0.000000  0.000000  0.000000  0.000000
                       0.000000  0.000000  0.000000  0.000000
                       1.000000  1.000000  1.000000  1.000000  1.000000  1.000000
                       1.000000  1.000000  0.000000  0.000000  0.000000  0.000000
                       0.000000  0.000000  0.000000  0.000000
                       1.000000  1.000000  1.000000  1.000000  1.000000  1.000000
                       1.000000  1.000000  0.000000  0.000000  0.000000  0.000000
                       0.000000  0.000000  0.000000  0.000000
                       1.000000  1.000000  1.000000  1.000000  1.000000  1.000000
                       1.000000  1.000000  0.000000  0.000000  0.000000  0.000000
                       0.000000  0.000000  0.000000  0.000000
                       1.000000  1.000000  1.000000  1.000000  1.000000  1.000000
                       1.000000  1.000000  0.000000  0.000000  0.000000  0.000000
                       0.000000  0.000000  0.000000  0.000000
                       1.000000  1.000000  1.000000  1.000000  1.000000  1.000000
                       1.000000  1.000000  0.000000  0.000000  0.000000  0.000000
                       0.000000  0.000000  0.000000  0.000000
                       1.000000  1.000000  1.000000  1.000000  1.000000  1.000000
                       1.000000  1.000000  0.000000  0.000000  0.000000  0.000000
                       0.000000  0.000000  0.000000  0.000000
                       1.000000  1.000000  1.000000  1.000000  1.000000  1.000000
                       1.000000  1.000000  0.000000  0.000000  0.000000  0.000000
                       0.000000  0.000000  0.000000  0.000000
                       1.000000  1.000000  1.000000  1.000000  1.000000  1.000000
                       1.000000  1.000000  0.000000  0.000000  0.000000  0.000000
                       0.000000  0.000000  0.000000  0.000000
                       1.000000  1.000000  1.000000  1.000000  1.000000  1.000000
                       1.000000  1.000000  0.000000  0.000000  0.000000  0.000000
                       0.000000  0.000000  0.000000  0.000000
                       1.000000  1.000000  1.000000  1.000000  1.000000  1.000000
                       1.000000  1.000000  0.000000  0.000000  0.000000  0.000000
                       0.000000  0.000000  0.000000  0.000000
                       1.000000  1.000000  1.000000  1.000000  1.000000  1.000000
                       1.000000  1.000000  0.000000  0.000000  0.000000  0.000000
                       0.000000  0.000000  0.000000  0.000000
                       1.000000  1.000000  1.000000  1.000000  1.000000  1.000000
                       1.000000  1.000000  0.000000  0.000000  0.000000  0.000000
                       0.000000  0.000000  0.000000  0.000000
                       1.000000  1.000000  1.000000  1.000000  1.000000  1.000000
                       1.000000  1.000000  0.000000  0.000000  0.000000  0.000000
                       0.000000  0.000000  0.000000  0.000000
                       1.000000  1.000000  1.000000  1.000000  1.000000  1.000000
                       1.000000  1.000000  0.000000  0.000000  0.000000  0.000000
                       0.000000  0.000000  0.000000  0.000000
                       1.000000  1.000000  1.000000  1.000000  1.000000  1.000000
                       1.000000  1.000000  0.000000  0.000000  0.000000  0.000000
                       0.000000  0.000000  0.000000  0.000000
                       1.000000  1.000000  1.000000  1.000000  1.000000  1.000000
                       1.000000  1.000000  0.000000  0.000000  0.000000  0.000000
                       0.000000  0.000000  0.000000  0.000000
                       1.000000  1.000000  1.000000  1.000000  1.000000  1.000000
                       1.000000  1.000000  0.000000  0.000000  0.000000  0.000000
                       0.000000  0.000000  0.000000  0.000000
                       1.000000  1.000000  1.000000  1.000000  1.000000  1.000000
                       1.000000  1.000000  0.000000  0.000000  0.000000  0.000000
                       0.000000  0.000000  0.000000  0.000000
                       1.000000  1.000000  1.000000  1.000000  1.000000  1.000000
                       1.000000  1.000000  0.000000  0.000000  0.000000  0.000000
                       0.000000  0.000000  0.000000  0.000000
                       1.000000  1.000000  1.000000  1.000000  1.000000  1.000000
                       1.000000  1.000000  0.000000  0.000000  0.000000  0.000000
                       0.000000  0.000000  0.000000  0.000000
                       1.000000  1.000000  1.000000  1.000000  1.000000  1.000000
                       1.000000  1.000000  0.000000  0.000000  0.000000  0.000000
                       0.000000  0.000000  0.000000  0.000000
                       1.000000  1.000000  1.000000  1.000000  1.000000  1.000000
                       1.000000  1.000000  0.000000  0.000000  0.000000  0.000000
                       0.000000  0.000000  0.000000  0.000000
                       1.000000  1.000000  1.000000  1.000000  1.000000  1.000000
                       1.000000  1.000000  0.000000  0.000000  0.000000  0.000000
                       0.000000  0.000000  0.000000  0.000000
                       1.000000  1.000000  1.000000  1.000000  1.000000  1.000000
                       1.000000  1.000000  0.000000  0.000000  0.000000  0.000000
                       0.000000  0.000000  0.000000  0.000000
                       1.000000  1.000000  1.000000  1.000000  1.000000  1.000000
                       1.000000  1.000000  0.000000  0.000000  0.000000  0.000000
                       0.000000  0.000000  0.000000  0.000000
                       1.000000  1.000000  1.000000  1.000000  1.000000  1.000000
                       1.000000  1.000000  0.000000  0.000000  0.000000  0.000000
                       0.000000  0.000000  0.000000  0.000000
                       1.000000  1.000000  1.000000  1.000000  1.000000  1.000000
                       1.000000  1.000000  0.000000  0.000000  0.000000  0.000000
                       0.000000  0.000000  0.000000  0.000000
                       1.000000  1.000000  1.000000  1.000000  1.000000  1.000000
                       1.000000  1.000000  0.000000  0.000000  0.000000  0.000000
                       0.000000  0.000000  0.000000  0.000000
                       1.000000  1.000000  1.000000  1.000000  1.000000  1.000000
                       1.000000  1.000000  0.000000  0.000000  0.000000  0.000000
                       0.000000  0.000000  0.000000  0.000000
                       1.000000  1.000000  1.000000  1.000000  1.000000  1.000000
                       1.000000  1.000000  0.000000  0.000000  0.000000  0.000000
                       0.000000  0.000000  0.000000  0.000000
                       1.000000  1.000000  1.000000  1.000000  1.000000  1.000000
                       1.000000  1.000000  0.000000  0.000000  0.000000  0.000000
                       0.000000  0.000000  0.000000  0.000000
                       1.000000  1.000000  1.000000  1.000000  1.000000  1.000000
                       1.000000  1.000000  0.000000  0.000000  0.000000  0.000000
                       0.000000  0.000000  0.000000  0.000000
              occ2     1.000000  1.000000  1.000000  1.000000  1.000000  1.000000
                       1.000000  1.000000  0.000000  0.000000  0.000000  0.000000
                       0.000000  0.000000  0.000000  0.000000
                       1.000000  1.000000  1.000000  1.000000  1.000000  1.000000
                       1.000000  1.000000  0.000000  0.000000  0.000000  0.000000
                       0.000000  0.000000  0.000000  0.000000
                       1.000000  1.000000  1.000000  1.000000  1.000000  1.000000
                       1.000000  1.000000  0.000000  0.000000  0.000000  0.000000
                       0.000000  0.000000  0.000000  0.000000
                       1.000000  1.000000  1.000000  1.000000  1.000000  1.000000
                       1.000000  1.000000  0.000000  0.000000  0.000000  0.000000
                       0.000000  0.000000  0.000000  0.000000
                       1.000000  1.000000  1.000000  1.000000  1.000000  1.000000
                       1.000000  1.000000  0.000000  0.000000  0.000000  0.000000
                       0.000000  0.000000  0.000000  0.000000
                       1.000000  1.000000  1.000000  1.000000  1.000000  1.000000
                       1.000000  1.000000  0.000000  0.000000  0.000000  0.000000
                       0.000000  0.000000  0.000000  0.000000
                       1.000000  1.000000  1.000000  1.000000  1.000000  1.000000
                       1.000000  1.000000  0.000000  0.000000  0.000000  0.000000
                       0.000000  0.000000  0.000000  0.000000
                       1.000000  1.000000  1.000000  1.000000  1.000000  1.000000
                       1.000000  1.000000  0.000000  0.000000  0.000000  0.000000
                       0.000000  0.000000  0.000000  0.000000
              occ3     1.000000  1.000000  1.000000  1.000000  1.000000  1.000000
                       1.000000  1.000000  0.000000  0.000000  0.000000  0.000000
                       0.000000  0.000000  0.000000  0.000000
                       1.000000  1.000000  1.000000  1.000000  1.000000  1.000000
                       1.000000  1.000000  0.000000  0.000000  0.000000  0.000000
                       0.000000  0.000000  0.000000  0.000000
                       1.000000  1.000000  1.000000  1.000000  1.000000  1.000000
                       1.000000  1.000000  0.000000  0.000000  0.000000  0.000000
                       0.000000  0.000000  0.000000  0.000000
                       1.000000  1.000000  1.000000  1.000000  1.000000  1.000000
                       1.000000  1.000000  0.000000  0.000000  0.000000  0.000000
                       0.000000  0.000000  0.000000  0.000000
                       1.000000  1.000000  1.000000  1.000000  1.000000  1.000000
                       1.000000  1.000000  0.000000  0.000000  0.000000  0.000000
                       0.000000  0.000000  0.000000  0.000000
                       1.000000  1.000000  1.000000  1.000000  1.000000  1.000000
                       1.000000  1.000000  0.000000  0.000000  0.000000  0.000000
                       0.000000  0.000000  0.000000  0.000000
                       1.000000  1.000000  1.000000  1.000000  1.000000  1.000000
                       1.000000  1.000000  0.000000  0.000000  0.000000  0.000000
                       0.000000  0.000000  0.000000  0.000000
                       1.000000  1.000000  1.000000  1.000000  1.000000  1.000000
                       1.000000  1.000000  0.000000  0.000000  0.000000  0.000000
                       0.000000  0.000000  0.000000  0.000000
           occopt           3
           prtdos1          1
           prtdos2          3
           prtdos3          3
           ratsph1     2.00000000E+00 Bohr
           ratsph2     2.40000000E+00 Bohr
           ratsph3     2.40000000E+00 Bohr
            rprim      5.0000000000E-01 -5.0000000000E-01  0.0000000000E+00
                       5.0000000000E-01  5.0000000000E-01  0.0000000000E+00
                       0.0000000000E+00  0.0000000000E+00  1.0000000000E+00
           shiftk      5.00000000E-01  5.00000000E-01  5.00000000E-01
          spgroup          47
           spinat      0.0000000000E+00  0.0000000000E+00  4.0000000000E+00
                       0.0000000000E+00  0.0000000000E+00 -4.0000000000E+00
           symafm        1   -1    1   -1    1   -1    1   -1    1   -1
                         1   -1    1   -1    1   -1
           symrel      1  0  0   0  1  0   0  0  1       1  0  0   0  1  0   0  0  1
                      -1  0  0   0 -1  0   0  0 -1      -1  0  0   0 -1  0   0  0 -1
                      -1  0  0   0  1  0   0  0 -1      -1  0  0   0  1  0   0  0 -1
                       1  0  0   0 -1  0   0  0  1       1  0  0   0 -1  0   0  0  1
                      -1  0  0   0 -1  0   0  0  1      -1  0  0   0 -1  0   0  0  1
                       1  0  0   0  1  0   0  0 -1       1  0  0   0  1  0   0  0 -1
                       1  0  0   0 -1  0   0  0 -1       1  0  0   0 -1  0   0  0 -1
                      -1  0  0   0  1  0   0  0  1      -1  0  0   0  1  0   0  0  1
            tnons      0.0000000  0.0000000  0.0000000     0.5000000  0.0000000  0.5000000
                       0.0000000  0.0000000  0.0000000     0.5000000  0.0000000  0.5000000
                       0.0000000  0.0000000  0.0000000     0.5000000  0.0000000  0.5000000
                       0.0000000  0.0000000  0.0000000     0.5000000  0.0000000  0.5000000
                       0.0000000  0.0000000  0.0000000     0.5000000  0.0000000  0.5000000
                       0.0000000  0.0000000  0.0000000     0.5000000  0.0000000  0.5000000
                       0.0000000  0.0000000  0.0000000     0.5000000  0.0000000  0.5000000
                       0.0000000  0.0000000  0.0000000     0.5000000  0.0000000  0.5000000
           tolwfr      1.00000000E-07
           tsmear      1.00000000E-02 Hartree
            typat      1  1
              wtk1       0.05556    0.05556    0.05556    0.05556    0.05556    0.05556
                         0.05556    0.05556    0.05556    0.05556    0.05556    0.05556
                         0.05556    0.05556    0.05556    0.05556    0.05556    0.05556
              wtk2       0.44444    0.22222    0.22222    0.11111
              wtk3       0.44444    0.22222    0.22222    0.11111
           xangst      0.0000000000E+00  0.0000000000E+00  0.0000000000E+00
                       8.7314239417E-01 -8.7314239417E-01  1.7462847883E+00
            xcart      0.0000000000E+00  0.0000000000E+00  0.0000000000E+00
                       1.6500000000E+00 -1.6500000000E+00  3.3000000000E+00
             xred      0.0000000000E+00  0.0000000000E+00  0.0000000000E+00
                       5.0000000000E-01  0.0000000000E+00  5.0000000000E-01
            znucl       26.00000

================================================================================

 chkinp: Checking input parameters for consistency, jdtset=   1.

 chkinp: Checking input parameters for consistency, jdtset=   2.

 chkinp: Checking input parameters for consistency, jdtset=   3.

================================================================================
== DATASET  1 ==================================================================
-   nproc =    1

 Exchange-correlation functional for the present dataset will be:
  LDA: new Teter (4/93) with spin-polarized option - ixc=1
 Citation for XC functional:
  S. Goedecker, M. Teter, J. Huetter, PRB 54, 1703 (1996)

 Real(R)+Recip(G) space primitive vectors, cartesian coordinates (Bohr,Bohr^-1):
 R(1)=  3.3000000 -3.3000000  0.0000000  G(1)=  0.1515152 -0.1515152  0.0000000
 R(2)=  3.3000000  3.3000000  0.0000000  G(2)=  0.1515152  0.1515152  0.0000000
 R(3)=  0.0000000  0.0000000  6.6000000  G(3)=  0.0000000  0.0000000  0.1515152
 Unit cell volume ucvol=  1.4374800E+02 bohr^3
 Angles (23,13,12)=  9.00000000E+01  9.00000000E+01  9.00000000E+01 degrees

 getcut: wavevector=  0.0000  0.0000  0.0000  ngfft=  18  18  27
         ecut(hartree)=     18.000   => boxcut(ratio)=   2.01949

--- Pseudopotential description ------------------------------------------------
- pspini: atom type   1  psp file is /home/gonze/ABINIT/ABINITv7.9.3/trunk/7.9.3-private/tests/Psps_for_tests/26fe.pspnc
- pspatm: opening atomic psp file    /home/gonze/ABINIT/ABINITv7.9.3/trunk/7.9.3-private/tests/Psps_for_tests/26fe.pspnc
-  Troullier-Martins psp for element  Fe        Thu Oct 27 17:35:05 EDT 1994
- 26.00000   8.00000    940714                znucl, zion, pspdat
    1    1    2    0      2001   0.00000      pspcod,pspxc,lmax,lloc,mmax,r2well
    0   4.333  10.868    0   2.2918558        l,e99.0,e99.9,nproj,rcpsp
   0.00000000   0.00000000   0.00000000   0.00000000     rms, ekb1, ekb2, epsatm
    1   1.213   4.197    1   2.8345121        l,e99.0,e99.9,nproj,rcpsp
   0.00000000   0.00000000   0.00000000   0.00000000     rms, ekb1, ekb2, epsatm
    2  18.664  23.972    1   2.2918558        l,e99.0,e99.9,nproj,rcpsp
   0.00000000   0.00000000   0.00000000   0.00000000     rms, ekb1, ekb2, epsatm
    1.56404770202776    2.06158206779471    6.88331421535388   rchrg,fchrg,qchrg
 pspatm: epsatm=   62.03296659
         --- l  ekb(1:nproj) -->
             1    1.561134
             2   -8.115829
 pspatm: atomic psp has been read  and splines computed

   1.98505493E+03                                ecore*ucvol(ha*bohr**3)
--------------------------------------------------------------------------------

P newkpt: treating     16 bands with npw=     530 for ikpt=   1 by node    0
P newkpt: treating     16 bands with npw=     529 for ikpt=   2 by node    0
P newkpt: treating     16 bands with npw=     525 for ikpt=   3 by node    0
P newkpt: treating     16 bands with npw=     529 for ikpt=   4 by node    0
P newkpt: treating     16 bands with npw=     528 for ikpt=   5 by node    0
P newkpt: treating     16 bands with npw=     519 for ikpt=   6 by node    0
P newkpt: treating     16 bands with npw=     525 for ikpt=   7 by node    0
P newkpt: treating     16 bands with npw=     519 for ikpt=   8 by node    0
P newkpt: treating     16 bands with npw=     517 for ikpt=   9 by node    0
P newkpt: treating     16 bands with npw=     529 for ikpt=  10 by node    0
P newkpt: treating     16 bands with npw=     528 for ikpt=  11 by node    0
P newkpt: treating     16 bands with npw=     522 for ikpt=  12 by node    0
P newkpt: treating     16 bands with npw=     528 for ikpt=  13 by node    0
P newkpt: treating     16 bands with npw=     527 for ikpt=  14 by node    0
P newkpt: treating     16 bands with npw=     519 for ikpt=  15 by node    0
P newkpt: treating     16 bands with npw=     522 for ikpt=  16 by node    0
P newkpt: treating     16 bands with npw=     519 for ikpt=  17 by node    0
P newkpt: treating     16 bands with npw=     520 for ikpt=  18 by node    0
P newkpt: treating     16 bands with npw=     530 for ikpt=   1 by node    0
P newkpt: treating     16 bands with npw=     529 for ikpt=   2 by node    0
P newkpt: treating     16 bands with npw=     525 for ikpt=   3 by node    0
P newkpt: treating     16 bands with npw=     529 for ikpt=   4 by node    0
P newkpt: treating     16 bands with npw=     528 for ikpt=   5 by node    0
P newkpt: treating     16 bands with npw=     519 for ikpt=   6 by node    0
P newkpt: treating     16 bands with npw=     525 for ikpt=   7 by node    0
P newkpt: treating     16 bands with npw=     519 for ikpt=   8 by node    0
P newkpt: treating     16 bands with npw=     517 for ikpt=   9 by node    0
P newkpt: treating     16 bands with npw=     529 for ikpt=  10 by node    0
P newkpt: treating     16 bands with npw=     528 for ikpt=  11 by node    0
P newkpt: treating     16 bands with npw=     522 for ikpt=  12 by node    0
P newkpt: treating     16 bands with npw=     528 for ikpt=  13 by node    0
P newkpt: treating     16 bands with npw=     527 for ikpt=  14 by node    0
P newkpt: treating     16 bands with npw=     519 for ikpt=  15 by node    0
P newkpt: treating     16 bands with npw=     522 for ikpt=  16 by node    0
P newkpt: treating     16 bands with npw=     519 for ikpt=  17 by node    0
P newkpt: treating     16 bands with npw=     520 for ikpt=  18 by node    0

_setup2: Arith. and geom. avg. npw (full set) are     524.167     524.148

================================================================================

     iter   Etot(hartree)     deltaE(h) residm    vres2    magn
 ETOT  1  -47.094197806661    -4.71E+01 3.80E-01 3.59E+03 0.027
 ETOT  2  -48.099858628536    -1.01E+00 1.13E-02 1.78E+03 0.019
 ETOT  3  -49.155028631509    -1.06E+00 2.89E-02 2.18E+02 0.338
 ETOT  4  -49.234199981342    -7.92E-02 8.69E-03 2.47E+01 0.029
 ETOT  5  -49.244228156025    -1.00E-02 1.40E-03 3.06E+00 0.023
 ETOT  6  -49.246351863045    -2.12E-03 8.75E-04 9.03E-01 0.019
 ETOT  7  -49.246928413538    -5.77E-04 3.17E-04 3.51E-01 0.013
 ETOT  8  -49.247839402621    -9.11E-04 3.20E-04 9.02E-02 0.007
 ETOT  9  -49.248615291358    -7.76E-04 4.28E-04 2.00E-02 0.002
 ETOT 10  -49.248827432942    -2.12E-04 4.59E-04 1.88E-03 0.003
 ETOT 11  -49.248904445808    -7.70E-05 9.61E-04 6.49E-04 0.005
 ETOT 12  -49.248935769027    -3.13E-05 6.85E-04 5.86E-04 0.005
 ETOT 13  -49.248948915037    -1.31E-05 1.02E-03 1.45E-04 0.006
 ETOT 14  -49.248957066642    -8.15E-06 4.81E-04 2.01E-04 0.007
 ETOT 15  -49.248957850369    -7.84E-07 5.41E-04 9.77E-06 0.007
 ETOT 16  -49.248958496018    -6.46E-07 2.04E-04 2.95E-06 0.007
 ETOT 17  -49.248958727944    -2.32E-07 1.97E-04 1.42E-06 0.006
 ETOT 18  -49.248958751130    -2.32E-08 6.78E-05 5.55E-07 0.006
 ETOT 19  -49.248958758445    -7.31E-09 6.23E-05 1.07E-07 0.006
 ETOT 20  -49.248958758717    -2.71E-10 2.11E-05 2.26E-07 0.006
 ETOT 21  -49.248958759174    -4.58E-10 1.89E-05 7.66E-08 0.006
 ETOT 22  -49.248958763117    -3.94E-09 7.53E-06 1.62E-08 0.005
 ETOT 23  -49.248958775964    -1.28E-08 7.34E-06 1.43E-08 0.004
 ETOT 24  -49.248958778276    -2.31E-09 4.02E-06 9.39E-08 0.003
 ETOT 25  -49.248958778325    -4.92E-11 4.05E-06 2.32E-08 0.003
 ETOT 26  -49.248958778325     3.91E-13 2.14E-06 4.60E-09 0.003
 ETOT 27  -49.248958778613    -2.88E-10 2.23E-06 1.94E-09 0.003
 ETOT 28  -49.248958778893    -2.81E-10 1.13E-06 1.23E-09 0.002
 ETOT 29  -49.248958778906    -1.23E-11 1.23E-06 5.05E-11 0.002
 ETOT 30  -49.248958778906    -7.82E-14 6.24E-07 1.82E-12 0.002
 ETOT 31  -49.248958778906     9.95E-14 6.74E-07 5.83E-12 0.002
 ETOT 32  -49.248958778906    -2.27E-13 3.43E-07 8.82E-14 0.002
 ETOT 33  -49.248958778906     4.97E-14 3.70E-07 9.10E-14 0.002
 ETOT 34  -49.248958778906    -4.19E-13 1.88E-07 1.12E-14 0.002
 ETOT 35  -49.248958778906     1.85E-13 2.03E-07 3.25E-15 0.002
 ETOT 36  -49.248958778906     8.53E-14 1.04E-07 2.29E-14 0.002
 ETOT 37  -49.248958778906     1.49E-13 9.94E-08 3.18E-15 0.002

 At SCF step   37   max residual=  9.94E-08 < tolwfr=  1.00E-07 =>converged.

 Cartesian components of stress tensor (hartree/bohr^3)
  sigma(1 1)=  2.01026968E-02  sigma(3 2)=  0.00000000E+00
  sigma(2 2)=  2.01026968E-02  sigma(3 1)=  0.00000000E+00
  sigma(3 3)=  1.83439842E-02  sigma(2 1)=  7.06585414E-04

================================================================================

 ----iterations are completed or convergence reached----

 Mean square residual over all n,k,spin=   4.9927E-08; max=  9.9365E-08
   0.0833  0.0833  0.1250    1  9.76123E-08 kpt; spin; max resid(k); each band:
  5.80E-08 7.26E-08 5.60E-08 6.61E-08 7.90E-08 8.94E-08 2.30E-08 3.31E-08
  2.33E-08 1.81E-08 2.79E-08 2.48E-08 9.50E-08 1.73E-08 7.96E-08 9.76E-08
   0.2500  0.0833  0.1250    1  9.55591E-08 kpt; spin; max resid(k); each band:
  5.36E-08 6.92E-08 6.06E-08 7.73E-08 9.21E-08 9.56E-08 1.83E-08 2.08E-08
  3.01E-08 2.87E-08 2.72E-08 2.23E-08 4.89E-08 9.48E-08 2.22E-08 2.56E-08
   0.4167  0.0833  0.1250    1  9.30110E-08 kpt; spin; max resid(k); each band:
  5.28E-08 5.95E-08 7.64E-08 9.23E-08 9.01E-08 3.03E-08 2.34E-08 2.19E-08
  2.63E-08 2.44E-08 2.19E-08 1.56E-08 2.07E-08 2.28E-08 9.14E-08 9.30E-08
   0.0833  0.2500  0.1250    1  9.52860E-08 kpt; spin; max resid(k); each band:
  5.72E-08 7.52E-08 5.13E-08 4.65E-08 6.32E-08 1.87E-08 2.59E-08 3.95E-08
  2.51E-08 1.64E-08 3.65E-08 2.62E-08 6.27E-08 9.53E-08 2.13E-08 2.14E-08
   0.2500  0.2500  0.1250    1  9.40657E-08 kpt; spin; max resid(k); each band:
  6.23E-08 6.82E-08 6.65E-08 6.37E-08 6.95E-08 1.94E-08 8.97E-08 2.46E-08
  2.26E-08 2.99E-08 3.73E-08 2.65E-08 5.81E-08 3.45E-08 2.10E-08 9.41E-08
   0.4167  0.2500  0.1250    1  9.17614E-08 kpt; spin; max resid(k); each band:
  7.11E-08 6.31E-08 9.18E-08 8.96E-08 8.93E-08 2.39E-08 3.32E-08 2.27E-08
  7.13E-08 3.65E-08 4.53E-08 4.23E-08 3.14E-08 8.88E-08 6.53E-08 3.01E-08
   0.0833  0.4167  0.1250    1  7.71833E-08 kpt; spin; max resid(k); each band:
  6.10E-08 7.37E-08 4.27E-08 5.24E-08 5.99E-08 1.92E-08 3.52E-08 2.64E-08
  1.66E-08 2.39E-08 2.72E-08 5.13E-08 3.14E-08 2.81E-08 4.45E-08 7.72E-08
   0.2500  0.4167  0.1250    1  8.81387E-08 kpt; spin; max resid(k); each band:
  5.13E-08 6.27E-08 6.73E-08 7.15E-08 6.65E-08 1.86E-08 5.95E-08 3.46E-08
  2.25E-08 3.48E-08 8.81E-08 4.92E-08 3.22E-08 6.06E-08 8.30E-08 8.02E-08
   0.4167  0.4167  0.1250    1  9.11659E-08 kpt; spin; max resid(k); each band:
  5.71E-08 1.64E-08 6.52E-08 4.56E-08 2.68E-08 9.12E-08 4.99E-08 2.23E-08
  6.91E-08 6.22E-08 2.98E-08 8.55E-08 4.58E-08 7.78E-08 8.39E-08 8.95E-08
   0.0833  0.0833  0.3750    1  9.41285E-08 kpt; spin; max resid(k); each band:
  7.17E-08 9.41E-08 7.22E-08 7.82E-08 3.22E-08 3.46E-08 8.06E-08 2.16E-08
  2.93E-08 2.23E-08 2.33E-08 2.44E-08 5.01E-08 4.44E-08 3.28E-08 8.76E-08
   0.2500  0.0833  0.3750    1  9.38165E-08 kpt; spin; max resid(k); each band:
  5.80E-08 9.38E-08 7.44E-08 7.32E-08 8.51E-08 7.60E-08 1.23E-08 1.78E-08
  1.91E-08 2.05E-08 3.01E-08 3.82E-08 3.38E-08 3.07E-08 7.14E-08 9.20E-08
   0.4167  0.0833  0.3750    1  9.27125E-08 kpt; spin; max resid(k); each band:
  4.70E-08 5.79E-08 7.96E-08 7.99E-08 8.26E-08 8.34E-08 2.49E-08 7.79E-08
  2.38E-08 3.14E-08 2.57E-08 2.64E-08 2.74E-08 2.59E-08 7.40E-08 9.27E-08
   0.0833  0.2500  0.3750    1  9.52747E-08 kpt; spin; max resid(k); each band:
  6.53E-08 8.41E-08 7.19E-08 6.11E-08 9.53E-08 3.07E-08 2.61E-08 2.54E-08
  2.14E-08 3.59E-08 1.55E-08 4.07E-08 4.68E-08 3.74E-08 9.11E-08 7.66E-08
   0.2500  0.2500  0.3750    1  8.29567E-08 kpt; spin; max resid(k); each band:
  6.15E-08 5.88E-08 7.46E-08 8.30E-08 7.33E-08 6.95E-08 2.82E-08 2.64E-08
  1.54E-08 2.03E-08 3.18E-08 3.99E-08 4.35E-08 4.45E-08 2.86E-08 2.33E-08
   0.4167  0.2500  0.3750    1  9.41386E-08 kpt; spin; max resid(k); each band:
  4.79E-08 6.48E-08 6.21E-08 6.75E-08 9.41E-08 7.83E-08 2.95E-08 1.95E-08
  1.96E-08 3.94E-08 3.74E-08 3.52E-08 3.45E-08 4.31E-08 6.21E-08 3.29E-08
   0.0833  0.4167  0.3750    1  9.93651E-08 kpt; spin; max resid(k); each band:
  5.79E-08 5.50E-08 8.95E-08 5.82E-08 3.30E-08 2.53E-08 3.96E-08 6.09E-08
  2.18E-08 3.06E-08 8.48E-08 2.96E-08 3.59E-08 3.44E-08 2.40E-08 9.94E-08
   0.2500  0.4167  0.3750    1  9.02522E-08 kpt; spin; max resid(k); each band:
  4.90E-08 4.80E-08 7.64E-08 9.03E-08 3.40E-08 8.38E-08 1.49E-08 2.11E-08
  3.47E-08 3.06E-08 4.05E-08 3.92E-08 3.86E-08 3.38E-08 2.55E-08 2.75E-08
   0.4167  0.4167  0.3750    1  8.68063E-08 kpt; spin; max resid(k); each band:
  4.98E-08 4.96E-08 8.68E-08 8.29E-08 1.58E-08 1.33E-08 4.48E-08 8.19E-08
  5.58E-08 3.60E-08 3.78E-08 4.84E-08 4.75E-08 3.74E-08 7.39E-08 6.39E-08
   0.0833  0.0833  0.1250    2  9.15731E-08 kpt; spin; max resid(k); each band:
  5.65E-08 7.00E-08 5.25E-08 6.30E-08 7.54E-08 8.56E-08 1.93E-08 3.05E-08
  2.76E-08 2.13E-08 2.83E-08 2.32E-08 8.97E-08 1.57E-08 6.96E-08 9.16E-08
   0.2500  0.0833  0.1250    2  9.23178E-08 kpt; spin; max resid(k); each band:
  5.26E-08 6.60E-08 5.65E-08 7.15E-08 8.91E-08 9.23E-08 1.63E-08 1.40E-08
  3.47E-08 2.87E-08 2.77E-08 2.29E-08 4.45E-08 8.97E-08 2.05E-08 2.41E-08
   0.4167  0.0833  0.1250    2  9.37601E-08 kpt; spin; max resid(k); each band:
  5.17E-08 5.64E-08 7.07E-08 7.45E-08 9.38E-08 2.89E-08 1.78E-08 2.00E-08
  3.08E-08 2.58E-08 2.17E-08 1.53E-08 1.92E-08 2.22E-08 8.67E-08 8.79E-08
   0.0833  0.2500  0.1250    2  9.36875E-08 kpt; spin; max resid(k); each band:
  5.59E-08 7.22E-08 4.91E-08 4.37E-08 6.02E-08 1.53E-08 9.37E-08 3.90E-08
  2.83E-08 1.81E-08 4.36E-08 2.66E-08 5.79E-08 9.04E-08 1.97E-08 2.15E-08
   0.2500  0.2500  0.1250    2  9.26674E-08 kpt; spin; max resid(k); each band:
  5.93E-08 6.47E-08 6.29E-08 6.02E-08 6.45E-08 1.46E-08 8.80E-08 2.71E-08
  2.20E-08 3.04E-08 3.76E-08 2.45E-08 5.19E-08 3.19E-08 9.27E-08 7.00E-08
   0.4167  0.2500  0.1250    2  8.79754E-08 kpt; spin; max resid(k); each band:
  6.83E-08 6.07E-08 8.33E-08 8.80E-08 8.08E-08 2.16E-08 4.70E-08 2.82E-08
  7.15E-08 3.66E-08 4.40E-08 3.86E-08 3.12E-08 8.10E-08 6.21E-08 3.03E-08
   0.0833  0.4167  0.1250    2  7.09555E-08 kpt; spin; max resid(k); each band:
  5.86E-08 7.07E-08 4.03E-08 5.07E-08 5.70E-08 1.66E-08 3.48E-08 2.89E-08
  1.72E-08 2.27E-08 2.93E-08 4.70E-08 2.98E-08 2.76E-08 4.30E-08 7.10E-08
   0.2500  0.4167  0.1250    2  8.80806E-08 kpt; spin; max resid(k); each band:
  4.94E-08 5.93E-08 6.23E-08 6.92E-08 6.20E-08 1.90E-08 5.64E-08 3.43E-08
  2.63E-08 3.38E-08 8.81E-08 4.49E-08 3.22E-08 5.56E-08 7.64E-08 7.34E-08
   0.4167  0.4167  0.1250    2  9.08289E-08 kpt; spin; max resid(k); each band:
  5.02E-08 1.84E-08 6.05E-08 4.64E-08 2.52E-08 8.59E-08 7.14E-08 2.45E-08
  6.04E-08 6.63E-08 2.90E-08 4.61E-08 4.48E-08 7.12E-08 7.83E-08 9.08E-08
   0.0833  0.0833  0.3750    2  9.40521E-08 kpt; spin; max resid(k); each band:
  7.04E-08 9.03E-08 6.19E-08 8.13E-08 9.41E-08 9.19E-08 6.94E-08 2.14E-08
  2.53E-08 2.58E-08 2.63E-08 2.58E-08 4.62E-08 4.13E-08 3.30E-08 7.17E-08
   0.2500  0.0833  0.3750    2  9.46195E-08 kpt; spin; max resid(k); each band:
  5.66E-08 8.67E-08 7.00E-08 7.22E-08 6.92E-08 8.59E-08 1.05E-08 1.51E-08
  2.16E-08 2.37E-08 3.18E-08 3.58E-08 3.51E-08 3.08E-08 9.46E-08 8.76E-08
   0.4167  0.0833  0.3750    2  9.37066E-08 kpt; spin; max resid(k); each band:
  4.49E-08 5.58E-08 7.21E-08 7.99E-08 6.86E-08 8.99E-08 9.37E-08 7.50E-08
  2.53E-08 3.15E-08 3.77E-08 2.47E-08 2.48E-08 2.36E-08 7.90E-08 8.85E-08
   0.0833  0.2500  0.3750    2  9.15793E-08 kpt; spin; max resid(k); each band:
  6.32E-08 8.05E-08 6.53E-08 6.05E-08 9.04E-08 9.16E-08 2.61E-08 2.00E-08
  1.90E-08 3.63E-08 1.71E-08 3.82E-08 4.33E-08 3.47E-08 9.08E-08 6.77E-08
   0.2500  0.2500  0.3750    2  7.81259E-08 kpt; spin; max resid(k); each band:
  5.88E-08 5.58E-08 7.13E-08 7.81E-08 6.12E-08 7.58E-08 2.56E-08 3.05E-08
  1.95E-08 2.11E-08 3.14E-08 3.72E-08 4.08E-08 4.01E-08 2.67E-08 2.17E-08
   0.4167  0.2500  0.3750    2  9.29987E-08 kpt; spin; max resid(k); each band:
  4.52E-08 6.20E-08 5.61E-08 6.81E-08 7.39E-08 9.30E-08 2.78E-08 1.82E-08
  2.00E-08 3.71E-08 3.70E-08 3.26E-08 3.58E-08 4.29E-08 5.87E-08 3.04E-08
   0.0833  0.4167  0.3750    2  9.46204E-08 kpt; spin; max resid(k); each band:
  5.58E-08 5.19E-08 8.41E-08 5.79E-08 9.46E-08 1.97E-08 3.84E-08 5.63E-08
  2.85E-08 3.89E-08 8.37E-08 2.74E-08 3.33E-08 3.18E-08 9.38E-08 9.18E-08
   0.2500  0.4167  0.3750    2  9.03856E-08 kpt; spin; max resid(k); each band:
  4.71E-08 4.58E-08 7.25E-08 8.51E-08 8.72E-08 9.04E-08 1.43E-08 2.19E-08
  3.37E-08 2.93E-08 3.69E-08 3.63E-08 3.57E-08 3.42E-08 2.36E-08 2.37E-08
   0.4167  0.4167  0.3750    2  9.49381E-08 kpt; spin; max resid(k); each band:
  4.48E-08 5.06E-08 8.11E-08 8.11E-08 1.55E-08 1.40E-08 4.39E-08 7.97E-08
  5.36E-08 3.51E-08 3.56E-08 4.48E-08 4.94E-08 9.49E-08 6.43E-08 6.10E-08
 reduced coordinates (array xred) for    2 atoms
       0.000000000000      0.000000000000      0.000000000000
       0.500000000000      0.000000000000      0.500000000000
 rms dE/dt=  0.0000E+00; max dE/dt=  0.0000E+00; dE/dt below (all hartree)
    1       0.000000000000      0.000000000000      0.000000000000
    2       0.000000000000      0.000000000000      0.000000000000

 cartesian coordinates (angstrom) at end:
    1      0.00000000000000     0.00000000000000     0.00000000000000
    2      0.87314239417350    -0.87314239417350     1.74628478834700

 cartesian forces (hartree/bohr) at end:
    1     -0.00000000000000    -0.00000000000000    -0.00000000000000
    2     -0.00000000000000    -0.00000000000000    -0.00000000000000
 frms,max,avg= 0.0000000E+00 0.0000000E+00   0.000E+00  0.000E+00  0.000E+00 h/b

 cartesian forces (eV/Angstrom) at end:
    1     -0.00000000000000    -0.00000000000000    -0.00000000000000
    2     -0.00000000000000    -0.00000000000000    -0.00000000000000
 frms,max,avg= 0.0000000E+00 0.0000000E+00   0.000E+00  0.000E+00  0.000E+00 e/A
 length scales=  6.600000000000  6.600000000000  6.600000000000 bohr
              =  3.492569576694  3.492569576694  3.492569576694 angstroms
 prteigrs : about to open file tspin_3o_DS1_EIG
 Fermi (or HOMO) energy (hartree) =  -0.27775   Average Vxc (hartree)=  -0.53587
 Magnetization (Bohr magneton)=  2.26391735E-03
 Total spin up =  8.00113196E+00   Total spin down =  7.99886804E+00
 Eigenvalues (hartree) for nkpt=  18  k points, SPIN UP:
 kpt#   1, nband= 16, wtk=  0.05556, kpt=  0.0833  0.0833  0.1250 (reduced coord)
  -0.60539  -0.47493  -0.42616  -0.39024  -0.35976  -0.34379  -0.28908  -0.28835
  -0.25300  -0.24043  -0.22939  -0.14218   0.20263   0.26202   0.26640   0.62158
      occupation numbers for kpt#   1
   1.00000   1.00000   1.00000   0.99999   0.99973   0.99865   0.75625   0.74255
   0.07758   0.02337   0.00787   0.00000   0.00000   0.00000   0.00000   0.00000
 kpt#   2, nband= 16, wtk=  0.05556, kpt=  0.2500  0.0833  0.1250 (reduced coord)
  -0.55300  -0.44239  -0.41104  -0.38522  -0.35900  -0.34507  -0.31654  -0.30476
  -0.27823  -0.25837  -0.23364  -0.04566   0.06859   0.22468   0.34119   0.41756
      occupation numbers for kpt#   2
   1.00000   1.00000   1.00000   0.99998   0.99970   0.99881   0.97975   0.93708
   0.51199   0.12576   0.01199   0.00000   0.00000   0.00000   0.00000   0.00000
 kpt#   3, nband= 16, wtk=  0.05556, kpt=  0.4167  0.0833  0.1250 (reduced coord)
  -0.47310  -0.41943  -0.40188  -0.37457  -0.36689  -0.36021  -0.32606  -0.31528
  -0.28603  -0.25967  -0.21437  -0.12035   0.09605   0.22839   0.29104   0.42486
      occupation numbers for kpt#   3
   1.00000   1.00000   1.00000   0.99994   0.99987   0.99974   0.99208   0.97707
   0.69591   0.14081   0.00176   0.00000   0.00000   0.00000   0.00000   0.00000
 kpt#   4, nband= 16, wtk=  0.05556, kpt=  0.0833  0.2500  0.1250 (reduced coord)
  -0.55707  -0.46133  -0.41058  -0.40479  -0.38666  -0.31634  -0.29621  -0.28430
  -0.25989  -0.24843  -0.21363  -0.08794   0.06494   0.18038   0.33727   0.47046
      occupation numbers for kpt#   4
   1.00000   1.00000   1.00000   1.00000   0.99998   0.97934   0.86361   0.65794
   0.14347   0.05057   0.00164   0.00000   0.00000   0.00000   0.00000   0.00000
 kpt#   5, nband= 16, wtk=  0.05556, kpt=  0.2500  0.2500  0.1250 (reduced coord)
  -0.51142  -0.43070  -0.40149  -0.39454  -0.37291  -0.32802  -0.30979  -0.28620
  -0.28473  -0.25978  -0.25195   0.01126   0.11690   0.12346   0.23710   0.47292
      occupation numbers for kpt#   5
   1.00000   1.00000   1.00000   0.99999   0.99993   0.99348   0.96095   0.69932
   0.66756   0.14211   0.07038   0.00000   0.00000   0.00000   0.00000   0.00000
 kpt#   6, nband= 16, wtk=  0.05556, kpt=  0.4167  0.2500  0.1250 (reduced coord)
  -0.45276  -0.41752  -0.39485  -0.38284  -0.33941  -0.33140  -0.32213  -0.30117
  -0.28891  -0.27762  -0.19893  -0.07675   0.12432   0.19011   0.33198   0.33457
      occupation numbers for kpt#   6
   1.00000   1.00000   0.99999   0.99997   0.99790   0.99534   0.98831   0.91224
   0.75312   0.49662   0.00038   0.00000   0.00000   0.00000   0.00000   0.00000
 kpt#   7, nband= 16, wtk=  0.05556, kpt=  0.0833  0.4167  0.1250 (reduced coord)
  -0.48810  -0.45151  -0.43373  -0.40361  -0.38454  -0.33456  -0.28394  -0.26873
  -0.25478  -0.21973  -0.19897  -0.09476  -0.00773   0.09780   0.39821   0.44829
      occupation numbers for kpt#   7
   1.00000   1.00000   1.00000   1.00000   0.99998   0.99660   0.64993   0.28855
   0.09134   0.00301   0.00038   0.00000   0.00000   0.00000   0.00000   0.00000
 kpt#   8, nband= 16, wtk=  0.05556, kpt=  0.2500  0.4167  0.1250 (reduced coord)
  -0.45389  -0.42140  -0.41036  -0.40670  -0.37470  -0.35452  -0.29051  -0.27642
  -0.24823  -0.22383  -0.21281  -0.06390   0.08082   0.14852   0.27097   0.38420
      occupation numbers for kpt#   8
   1.00000   1.00000   1.00000   1.00000   0.99994   0.99954   0.78163   0.46676
   0.04960   0.00453   0.00151   0.00000   0.00000   0.00000   0.00000   0.00000
 kpt#   9, nband= 16, wtk=  0.05556, kpt=  0.4167  0.4167  0.1250 (reduced coord)
  -0.44065  -0.42349  -0.39852  -0.37964  -0.34656  -0.32635  -0.31977  -0.30827
  -0.23815  -0.22492  -0.14614  -0.00312   0.00593   0.10273   0.30704   0.38827
      occupation numbers for kpt#   9
   1.00000   1.00000   0.99999   0.99996   0.99897   0.99231   0.98524   0.95484
   0.01869   0.00505   0.00000   0.00000   0.00000   0.00000   0.00000   0.00000
 kpt#  10, nband= 16, wtk=  0.05556, kpt=  0.0833  0.0833  0.3750 (reduced coord)
  -0.54631  -0.47173  -0.40252  -0.38569  -0.35578  -0.33536  -0.31638  -0.30772
  -0.28466  -0.26961  -0.24978  -0.24324   0.35650   0.36169   0.43459   0.49099
      occupation numbers for kpt#  10
   1.00000   1.00000   1.00000   0.99998   0.99959   0.99686   0.97942   0.95240
   0.66603   0.30696   0.05747   0.03073   0.00000   0.00000   0.00000   0.00000
 kpt#  11, nband= 16, wtk=  0.05556, kpt=  0.2500  0.0833  0.3750 (reduced coord)
  -0.50344  -0.42384  -0.40703  -0.40536  -0.36951  -0.36144  -0.33368  -0.31803
  -0.26259  -0.26052  -0.23481  -0.17808   0.15254   0.26278   0.41981   0.46783
      occupation numbers for kpt#  11
   1.00000   1.00000   1.00000   1.00000   0.99990   0.99977   0.99629   0.98249
   0.17996   0.15145   0.01346   0.00005   0.00000   0.00000   0.00000   0.00000
 kpt#  12, nband= 16, wtk=  0.05556, kpt=  0.4167  0.0833  0.3750 (reduced coord)
  -0.46665  -0.44564  -0.39699  -0.37366  -0.36672  -0.35888  -0.31292  -0.30101
  -0.24198  -0.23828  -0.22822  -0.17326   0.03814   0.09675   0.50680   0.52955
      occupation numbers for kpt#  12
   1.00000   1.00000   0.99999   0.99993   0.99986   0.99970   0.97115   0.91098
   0.02717   0.01893   0.00701   0.00003   0.00000   0.00000   0.00000   0.00000
 kpt#  13, nband= 16, wtk=  0.05556, kpt=  0.0833  0.2500  0.3750 (reduced coord)
  -0.50559  -0.45652  -0.39641  -0.38994  -0.35410  -0.32655  -0.30664  -0.30030
  -0.28259  -0.27411  -0.26137  -0.21967   0.13636   0.23522   0.42329   0.51238
      occupation numbers for kpt#  13
   1.00000   1.00000   0.99999   0.99999   0.99952   0.99246   0.94726   0.90503
   0.61847   0.40989   0.16270   0.00299   0.00000   0.00000   0.00000   0.00000
 kpt#  14, nband= 16, wtk=  0.05556, kpt=  0.2500  0.2500  0.3750 (reduced coord)
  -0.47605  -0.43216  -0.40539  -0.39859  -0.35240  -0.34212  -0.31311  -0.30028
  -0.27917  -0.25843  -0.24680  -0.14542   0.15860   0.16568   0.32873   0.34504
      occupation numbers for kpt#  14
   1.00000   1.00000   1.00000   0.99999   0.99943   0.99840   0.97169   0.90489
   0.53536   0.12650   0.04330   0.00000   0.00000   0.00000   0.00000   0.00000
 kpt#  15, nband= 16, wtk=  0.05556, kpt=  0.4167  0.2500  0.3750 (reduced coord)
  -0.45305  -0.43424  -0.42291  -0.41885  -0.32224  -0.31170  -0.27724  -0.26910
  -0.25408  -0.23437  -0.22537  -0.12173   0.02534   0.08376   0.33724   0.41328
      occupation numbers for kpt#  15
   1.00000   1.00000   1.00000   1.00000   0.98843   0.96752   0.48715   0.29627
   0.08566   0.01288   0.00528   0.00000   0.00000   0.00000   0.00000   0.00000
 kpt#  16, nband= 16, wtk=  0.05556, kpt=  0.0833  0.4167  0.3750 (reduced coord)
  -0.45049  -0.44208  -0.41104  -0.40156  -0.35216  -0.31436  -0.30800  -0.29872
  -0.28322  -0.23399  -0.21298  -0.14099  -0.05417   0.02971   0.48529   0.60167
      occupation numbers for kpt#  16
   1.00000   1.00000   1.00000   1.00000   0.99941   0.97494   0.95367   0.89057
   0.63331   0.01241   0.00154   0.00000   0.00000   0.00000   0.00000   0.00000
 kpt#  17, nband= 16, wtk=  0.05556, kpt=  0.2500  0.4167  0.3750 (reduced coord)
  -0.44948  -0.44308  -0.41350  -0.38678  -0.34191  -0.32842  -0.30678  -0.27474
  -0.25341  -0.21351  -0.20009  -0.08745  -0.03534   0.04736   0.33082   0.42351
      occupation numbers for kpt#  17
   1.00000   1.00000   1.00000   0.99998   0.99837   0.99374   0.94795   0.42516
   0.08059   0.00162   0.00042   0.00000   0.00000   0.00000   0.00000   0.00000
 kpt#  18, nband= 16, wtk=  0.05556, kpt=  0.4167  0.4167  0.3750 (reduced coord)
  -0.45723  -0.45246  -0.43348  -0.41894  -0.29806  -0.28110  -0.26548  -0.24948
  -0.22697  -0.21553  -0.15488  -0.05232  -0.01956  -0.01238   0.29103   0.30487
      occupation numbers for kpt#  18
   1.00000   1.00000   1.00000   1.00000   0.88395   0.58282   0.22657   0.05587
   0.00619   0.00198   0.00000   0.00000   0.00000   0.00000   0.00000   0.00000
 Eigenvalues (hartree) for nkpt=  18  k points, SPIN DOWN:
 kpt#   1, nband= 16, wtk=  0.05556, kpt=  0.0833  0.0833  0.1250 (reduced coord)
  -0.60538  -0.47489  -0.42613  -0.39020  -0.35972  -0.34375  -0.28902  -0.28830
  -0.25294  -0.24040  -0.22933  -0.14215   0.20265   0.26204   0.26641   0.62159
      occupation numbers for kpt#   1
   1.00000   1.00000   1.00000   0.99999   0.99972   0.99864   0.75521   0.74159
   0.07717   0.02331   0.00783   0.00000   0.00000   0.00000   0.00000   0.00000
 kpt#   2, nband= 16, wtk=  0.05556, kpt=  0.2500  0.0833  0.1250 (reduced coord)
  -0.55299  -0.44236  -0.41101  -0.38518  -0.35897  -0.34504  -0.31651  -0.30471
  -0.27818  -0.25832  -0.23359  -0.04564   0.06861   0.22470   0.34121   0.41757
      occupation numbers for kpt#   2
   1.00000   1.00000   1.00000   0.99998   0.99970   0.99880   0.97967   0.93673
   0.51065   0.12526   0.01193   0.00000   0.00000   0.00000   0.00000   0.00000
 kpt#   3, nband= 16, wtk=  0.05556, kpt=  0.4167  0.0833  0.1250 (reduced coord)
  -0.47309  -0.41940  -0.40185  -0.37454  -0.36686  -0.36018  -0.32601  -0.31522
  -0.28598  -0.25961  -0.21433  -0.12032   0.09607   0.22841   0.29105   0.42487
      occupation numbers for kpt#   3
   1.00000   1.00000   1.00000   0.99994   0.99987   0.99974   0.99204   0.97695
   0.69480   0.14015   0.00176   0.00000   0.00000   0.00000   0.00000   0.00000
 kpt#   4, nband= 16, wtk=  0.05556, kpt=  0.0833  0.2500  0.1250 (reduced coord)
  -0.55707  -0.46130  -0.41056  -0.40475  -0.38663  -0.31628  -0.29617  -0.28425
  -0.25983  -0.24838  -0.21360  -0.08792   0.06496   0.18039   0.33728   0.47047
      occupation numbers for kpt#   4
   1.00000   1.00000   1.00000   1.00000   0.99998   0.97922   0.86317   0.65692
   0.14278   0.05031   0.00163   0.00000   0.00000   0.00000   0.00000   0.00000
 kpt#   5, nband= 16, wtk=  0.05556, kpt=  0.2500  0.2500  0.1250 (reduced coord)
  -0.51141  -0.43066  -0.40145  -0.39450  -0.37288  -0.32796  -0.30975  -0.28615
  -0.28469  -0.25972  -0.25190   0.01128   0.11692   0.12348   0.23712   0.47293
      occupation numbers for kpt#   5
   1.00000   1.00000   1.00000   0.99999   0.99993   0.99344   0.96082   0.69836
   0.66667   0.14148   0.07006   0.00000   0.00000   0.00000   0.00000   0.00000
 kpt#   6, nband= 16, wtk=  0.05556, kpt=  0.4167  0.2500  0.1250 (reduced coord)
  -0.45274  -0.41749  -0.39481  -0.38281  -0.33937  -0.33135  -0.32209  -0.30113
  -0.28886  -0.27757  -0.19889  -0.07672   0.12434   0.19013   0.33200   0.33459
      occupation numbers for kpt#   6
   1.00000   1.00000   0.99999   0.99997   0.99790   0.99532   0.98826   0.91190
   0.75231   0.49536   0.00038   0.00000   0.00000   0.00000   0.00000   0.00000
 kpt#   7, nband= 16, wtk=  0.05556, kpt=  0.0833  0.4167  0.1250 (reduced coord)
  -0.48808  -0.45148  -0.43369  -0.40360  -0.38450  -0.33451  -0.28390  -0.26867
  -0.25473  -0.21969  -0.19893  -0.09473  -0.00772   0.09781   0.39822   0.44831
      occupation numbers for kpt#   7
   1.00000   1.00000   1.00000   1.00000   0.99998   0.99658   0.64891   0.28737
   0.09093   0.00300   0.00038   0.00000   0.00000   0.00000   0.00000   0.00000
 kpt#   8, nband= 16, wtk=  0.05556, kpt=  0.2500  0.4167  0.1250 (reduced coord)
  -0.45387  -0.42136  -0.41033  -0.40667  -0.37467  -0.35447  -0.29047  -0.27637
  -0.24818  -0.22379  -0.21277  -0.06387   0.08084   0.14854   0.27099   0.38422
      occupation numbers for kpt#   8
   1.00000   1.00000   1.00000   1.00000   0.99994   0.99953   0.78108   0.46545
   0.04939   0.00451   0.00150   0.00000   0.00000   0.00000   0.00000   0.00000
 kpt#   9, nband= 16, wtk=  0.05556, kpt=  0.4167  0.4167  0.1250 (reduced coord)
  -0.44061  -0.42346  -0.39849  -0.37961  -0.34652  -0.32632  -0.31973  -0.30822
  -0.23810  -0.22488  -0.14611  -0.00310   0.00596   0.10275   0.30706   0.38829
      occupation numbers for kpt#   9
   1.00000   1.00000   0.99999   0.99996   0.99897   0.99228   0.98519   0.95463
   0.01861   0.00503   0.00000   0.00000   0.00000   0.00000   0.00000   0.00000
 kpt#  10, nband= 16, wtk=  0.05556, kpt=  0.0833  0.0833  0.3750 (reduced coord)
  -0.54630  -0.47171  -0.40248  -0.38566  -0.35575  -0.33532  -0.31633  -0.30768
  -0.28460  -0.26956  -0.24973  -0.24320   0.35652   0.36170   0.43461   0.49100
      occupation numbers for kpt#  10
   1.00000   1.00000   1.00000   0.99998   0.99959   0.99685   0.97932   0.95223
   0.66472   0.30580   0.05718   0.03062   0.00000   0.00000   0.00000   0.00000
 kpt#  11, nband= 16, wtk=  0.05556, kpt=  0.2500  0.0833  0.3750 (reduced coord)
  -0.50343  -0.42382  -0.40700  -0.40533  -0.36947  -0.36141  -0.33363  -0.31797
  -0.26253  -0.26048  -0.23475  -0.17805   0.15256   0.26279   0.41983   0.46784
      occupation numbers for kpt#  11
   1.00000   1.00000   1.00000   1.00000   0.99990   0.99977   0.99627   0.98240
   0.17913   0.15092   0.01338   0.00005   0.00000   0.00000   0.00000   0.00000
 kpt#  12, nband= 16, wtk=  0.05556, kpt=  0.4167  0.0833  0.3750 (reduced coord)
  -0.46662  -0.44562  -0.39696  -0.37363  -0.36667  -0.35884  -0.31288  -0.30098
  -0.24192  -0.23822  -0.22817  -0.17323   0.03816   0.09677   0.50681   0.52956
      occupation numbers for kpt#  12
   1.00000   1.00000   0.99999   0.99993   0.99986   0.99970   0.97106   0.91076
   0.02702   0.01883   0.00697   0.00003   0.00000   0.00000   0.00000   0.00000
 kpt#  13, nband= 16, wtk=  0.05556, kpt=  0.0833  0.2500  0.3750 (reduced coord)
  -0.50558  -0.45650  -0.39638  -0.38991  -0.35406  -0.32652  -0.30660  -0.30024
  -0.28254  -0.27406  -0.26132  -0.21964   0.13638   0.23524   0.42330   0.51239
      occupation numbers for kpt#  13
   1.00000   1.00000   0.99999   0.99999   0.99952   0.99243   0.94706   0.90456
   0.61742   0.40875   0.16197   0.00298   0.00000   0.00000   0.00000   0.00000
 kpt#  14, nband= 16, wtk=  0.05556, kpt=  0.2500  0.2500  0.3750 (reduced coord)
  -0.47604  -0.43213  -0.40536  -0.39855  -0.35236  -0.34209  -0.31306  -0.30024
  -0.27912  -0.25838  -0.24675  -0.14539   0.15862   0.16570   0.32875   0.34506
      occupation numbers for kpt#  14
   1.00000   1.00000   1.00000   0.99999   0.99942   0.99840   0.97156   0.90456
   0.53411   0.12597   0.04310   0.00000   0.00000   0.00000   0.00000   0.00000
 kpt#  15, nband= 16, wtk=  0.05556, kpt=  0.4167  0.2500  0.3750 (reduced coord)
  -0.45302  -0.43421  -0.42287  -0.41881  -0.32220  -0.31167  -0.27720  -0.26905
  -0.25402  -0.23434  -0.22533  -0.12170   0.02536   0.08377   0.33725   0.41329
      occupation numbers for kpt#  15
   1.00000   1.00000   1.00000   1.00000   0.98839   0.96742   0.48624   0.29513
   0.08525   0.01285   0.00526   0.00000   0.00000   0.00000   0.00000   0.00000
 kpt#  16, nband= 16, wtk=  0.05556, kpt=  0.0833  0.4167  0.3750 (reduced coord)
  -0.45047  -0.44205  -0.41101  -0.40153  -0.35213  -0.31431  -0.30796  -0.29869
  -0.28316  -0.23395  -0.21294  -0.14097  -0.05414   0.02973   0.48530   0.60168
      occupation numbers for kpt#  16
   1.00000   1.00000   1.00000   1.00000   0.99941   0.97480   0.95350   0.89022
   0.63203   0.01236   0.00153   0.00000   0.00000   0.00000   0.00000   0.00000
 kpt#  17, nband= 16, wtk=  0.05556, kpt=  0.2500  0.4167  0.3750 (reduced coord)
  -0.44945  -0.44304  -0.41347  -0.38675  -0.34188  -0.32839  -0.30672  -0.27468
  -0.25337  -0.21346  -0.20006  -0.08743  -0.03532   0.04738   0.33084   0.42352
      occupation numbers for kpt#  17
   1.00000   1.00000   1.00000   0.99998   0.99836   0.99372   0.94769   0.42379
   0.08029   0.00161   0.00042   0.00000   0.00000   0.00000   0.00000   0.00000
 kpt#  18, nband= 16, wtk=  0.05556, kpt=  0.4167  0.4167  0.3750 (reduced coord)
  -0.45720  -0.45243  -0.43345  -0.41891  -0.29801  -0.28104  -0.26544  -0.24945
  -0.22693  -0.21549  -0.15486  -0.05230  -0.01954  -0.01237   0.29106   0.30489
      occupation numbers for kpt#  18
   1.00000   1.00000   1.00000   1.00000   0.88342   0.58149   0.22587   0.05568
   0.00617   0.00197   0.00000   0.00000   0.00000   0.00000   0.00000   0.00000
 Total charge density [el/Bohr^3]
,     Maximum=    6.7717E-01  at reduced coord.    0.6111    0.0000    0.5926
,Next maximum=    6.7717E-01  at reduced coord.    0.3889    0.0000    0.5926
,     Minimum=    1.6241E-03  at reduced coord.    0.0000    0.0000    0.0000
,Next minimum=    4.0092E-03  at reduced coord.    0.5000    0.0000    0.4815
,  Integrated=    1.6000E+01
 Spin up density      [el/Bohr^3]
,     Maximum=    3.4417E-01  at reduced coord.    0.9444    0.8333    0.0000
,Next maximum=    3.4417E-01  at reduced coord.    0.0556    0.8333    0.0000
,     Minimum=    8.2225E-04  at reduced coord.    0.0000    0.0000    0.0000
,Next minimum=    1.9558E-03  at reduced coord.    0.5000    0.0000    0.4815
,  Integrated=    8.0011E+00
 Spin down density    [el/Bohr^3]
,     Maximum=    3.4878E-01  at reduced coord.    0.6111    0.9444    0.5926
,Next maximum=    3.4878E-01  at reduced coord.    0.3889    0.9444    0.5926
,     Minimum=    8.0182E-04  at reduced coord.    0.0000    0.0000    0.0000
,Next minimum=    2.0534E-03  at reduced coord.    0.5000    0.0000    0.4815
,  Integrated=    7.9989E+00
 Magnetization (spin up - spin down) [el/Bohr^3]
,     Maximum=    6.9380E-02  at reduced coord.    0.8889    0.8889    0.0000
,Next maximum=    6.9380E-02  at reduced coord.    0.1111    0.8889    0.0000
,     Minimum=   -6.8537E-02  at reduced coord.    0.3889    0.1111    0.4815
,Next minimum=   -6.8537E-02  at reduced coord.    0.6111    0.1111    0.4815
,  Integrated=    2.2639E-03
 Relative magnetization (=zeta, between -1 and 1)
,     Maximum=    1.1754E-01  at reduced coord.    0.8889    0.8889    0.0000
,Next maximum=    1.1754E-01  at reduced coord.    0.1111    0.8889    0.0000
,     Minimum=   -1.1462E-01  at reduced coord.    0.3889    0.1111    0.4815
,Next minimum=   -1.1462E-01  at reduced coord.    0.6111    0.1111    0.4815

--------------------------------------------------------------------------------
 Components of total free energy (in Hartree) :

    Kinetic energy  =  4.93912267653660E+01
    Hartree energy  =  5.32644597780533E+00
    XC energy       = -2.10642000313136E+01
    Ewald energy    = -4.34537234203633E+01
    PspCore energy  =  1.38092699089248E+01
    Loc. psp. energy=  3.22526562933955E+00
    NL   psp  energy= -5.64527516828659E+01
    >>>>> Internal E= -4.92184668531071E+01

    -kT*entropy     = -3.04919257987788E-02
    >>>>>>>>> Etotal= -4.92489587789059E+01

 Other information on the energy :
    Total energy(eV)= -1.34013232203812E+03 ; Band energy (Ha)=  -6.0436045630E+00
--------------------------------------------------------------------------------

 Cartesian components of stress tensor (hartree/bohr^3)
  sigma(1 1)=  2.01026968E-02  sigma(3 2)=  0.00000000E+00
  sigma(2 2)=  2.01026968E-02  sigma(3 1)=  0.00000000E+00
  sigma(3 3)=  1.83439842E-02  sigma(2 1)=  7.06585414E-04

-Cartesian components of stress tensor (GPa)         [Pressure= -5.7419E+02 GPa]
- sigma(1 1)=  5.91441659E+02  sigma(3 2)=  0.00000000E+00
- sigma(2 2)=  5.91441659E+02  sigma(3 1)=  0.00000000E+00
- sigma(3 3)=  5.39698558E+02  sigma(2 1)=  2.07884571E+01

================================================================================
== DATASET  2 ==================================================================
-   nproc =    1

 mkfilename : getden/=0, take file _DEN from output of DATASET   1.

 Exchange-correlation functional for the present dataset will be:
  LDA: new Teter (4/93) with spin-polarized option - ixc=1
 Citation for XC functional:
  S. Goedecker, M. Teter, J. Huetter, PRB 54, 1703 (1996)

 Real(R)+Recip(G) space primitive vectors, cartesian coordinates (Bohr,Bohr^-1):
 R(1)=  3.3000000 -3.3000000  0.0000000  G(1)=  0.1515152 -0.1515152  0.0000000
 R(2)=  3.3000000  3.3000000  0.0000000  G(2)=  0.1515152  0.1515152  0.0000000
 R(3)=  0.0000000  0.0000000  6.6000000  G(3)=  0.0000000  0.0000000  0.1515152
 Unit cell volume ucvol=  1.4374800E+02 bohr^3
 Angles (23,13,12)=  9.00000000E+01  9.00000000E+01  9.00000000E+01 degrees

 getcut: wavevector=  0.0000  0.0000  0.0000  ngfft=  18  18  27
         ecut(hartree)=     18.000   => boxcut(ratio)=   2.01949
--------------------------------------------------------------------------------

P newkpt: treating     16 bands with npw=     530 for ikpt=   1 by node    0
P newkpt: treating     16 bands with npw=     518 for ikpt=   2 by node    0
P newkpt: treating     16 bands with npw=     518 for ikpt=   3 by node    0
P newkpt: treating     16 bands with npw=     524 for ikpt=   4 by node    0
P newkpt: treating     16 bands with npw=     530 for ikpt=   1 by node    0
P newkpt: treating     16 bands with npw=     518 for ikpt=   2 by node    0
P newkpt: treating     16 bands with npw=     518 for ikpt=   3 by node    0
P newkpt: treating     16 bands with npw=     524 for ikpt=   4 by node    0


================================================================================

     iter   Etot(hartree)     deltaE(h) residm    vres2    magn
 prteigrs : about to open file tspin_3o_DS2_EIG

 SPIN UP channel
 Non-SCF case, kpt    1 (  0.16667  0.16667  0.25000), residuals and eigenvalues=
  1.32E-08  2.61E-08  7.39E-08  7.50E-08  3.74E-08  6.50E-08  2.55E-08  2.50E-08
  9.74E-08  8.50E-08  7.07E-08  1.38E-08  5.70E-08  6.75E-08  9.33E-08  2.50E-05
 -5.4580E-01 -4.4854E-01 -4.0825E-01 -3.8579E-01 -3.6974E-01 -3.3499E-01
 -3.0927E-01 -2.9773E-01 -2.8253E-01 -2.7966E-01 -2.3997E-01 -1.3529E-01
  2.2140E-01  2.2627E-01  3.1304E-01  4.6544E-01
  prteigrs : nnsclo,ikpt=   70    1 max resid (incl. the buffer)=  2.49880E-05
 Non-SCF case, kpt    2 (  0.50000  0.16667  0.25000), residuals and eigenvalues=
  2.02E-08  1.07E-08  8.63E-08  2.09E-08  4.33E-08  5.06E-08  7.25E-08  4.56E-08
  4.32E-08  7.91E-08  9.25E-08  6.57E-08  3.98E-08  8.01E-08  5.63E-05  1.36E-03
 -4.4286E-01 -4.4058E-01 -3.9571E-01 -3.9162E-01 -3.4886E-01 -3.4007E-01
 -2.9765E-01 -2.9728E-01 -2.6736E-01 -2.6489E-01 -1.7729E-01 -1.7094E-01
  9.4608E-02  9.5274E-02  4.4385E-01  4.4494E-01
  prteigrs : nnsclo,ikpt=   70    2 max resid (incl. the buffer)=  1.36451E-03
 Non-SCF case, kpt    3 (  0.16667  0.50000  0.25000), residuals and eigenvalues=
  5.06E-08  9.25E-08  3.06E-09  7.33E-08  7.83E-08  2.22E-08  8.39E-08  6.65E-08
  6.73E-08  9.48E-08  9.40E-08  6.96E-08  4.52E-08  1.74E-08  2.18E-05  2.09E-05
 -4.3756E-01 -4.3368E-01 -4.2686E-01 -4.0960E-01 -3.6424E-01 -3.3087E-01
 -2.9211E-01 -2.8094E-01 -2.7266E-01 -2.0363E-01 -1.9094E-01 -1.1570E-01
  1.5229E-02  1.8278E-02  3.9306E-01  4.7926E-01
  prteigrs : nnsclo,ikpt=   70    3 max resid (incl. the buffer)=  2.17708E-05
 Non-SCF case, kpt    4 (  0.50000  0.50000  0.25000), residuals and eigenvalues=
  4.04E-08  4.93E-08  3.57E-08  9.49E-08  8.17E-08  2.28E-08  3.95E-08  7.55E-08
  5.04E-08  8.18E-08  3.56E-08  6.01E-08  3.40E-08  3.97E-08  1.63E-04  2.13E-04
 -4.5466E-01 -4.4869E-01 -4.1708E-01 -4.1366E-01 -3.1873E-01 -3.1205E-01
 -2.7559E-01 -2.7298E-01 -2.2239E-01 -2.1086E-01 -3.9619E-02 -3.8124E-02
 -3.7737E-02 -3.6744E-02  3.1182E-01  3.1404E-01
  prteigrs : nnsclo,ikpt=   70    4 max resid (incl. the buffer)=  2.12701E-04

 SPIN DOWN channel
 Non-SCF case, kpt    1 (  0.16667  0.16667  0.25000), residuals and eigenvalues=
  1.30E-08  2.26E-08  3.28E-08  8.32E-08  4.20E-08  3.90E-08  2.35E-08  4.76E-08
  6.30E-08  8.80E-08  6.60E-08  1.44E-08  6.29E-08  6.86E-08  5.57E-08  2.55E-05
 -5.4580E-01 -4.4851E-01 -4.0822E-01 -3.8575E-01 -3.6971E-01 -3.3496E-01
 -3.0923E-01 -2.9768E-01 -2.8248E-01 -2.7961E-01 -2.3991E-01 -1.3526E-01
  2.2142E-01  2.2628E-01  3.1306E-01  4.6545E-01
  prteigrs : nnsclo,ikpt=   70    1 max resid (incl. the buffer)=  2.54721E-05
 Non-SCF case, kpt    2 (  0.50000  0.16667  0.25000), residuals and eigenvalues=
  1.69E-08  1.88E-08  3.01E-08  8.38E-08  5.85E-08  4.39E-08  4.81E-08  5.37E-08
  9.54E-08  2.85E-08  7.36E-08  4.76E-08  8.62E-08  7.72E-08  7.87E-05  1.38E-03
 -4.4284E-01 -4.4056E-01 -3.9567E-01 -3.9159E-01 -3.4882E-01 -3.4003E-01
 -2.9761E-01 -2.9725E-01 -2.6730E-01 -2.6483E-01 -1.7725E-01 -1.7090E-01
  9.4628E-02  9.5293E-02  4.4381E-01  4.4522E-01
  prteigrs : nnsclo,ikpt=   70    2 max resid (incl. the buffer)=  1.38286E-03
 Non-SCF case, kpt    3 (  0.16667  0.50000  0.25000), residuals and eigenvalues=
  6.35E-08  2.41E-08  7.51E-08  8.55E-08  5.48E-08  8.73E-08  4.75E-08  7.16E-08
  7.30E-08  3.30E-08  8.29E-08  7.45E-08  4.25E-08  1.77E-08  2.31E-05  2.51E-05
 -4.3754E-01 -4.3364E-01 -4.2683E-01 -4.0957E-01 -3.6421E-01 -3.3081E-01
 -2.9208E-01 -2.8090E-01 -2.7260E-01 -2.0359E-01 -1.9090E-01 -1.1567E-01
  1.5248E-02  1.8296E-02  3.9307E-01  4.7928E-01
  prteigrs : nnsclo,ikpt=   70    3 max resid (incl. the buffer)=  2.51032E-05
 Non-SCF case, kpt    4 (  0.50000  0.50000  0.25000), residuals and eigenvalues=
  3.35E-08  4.26E-08  2.19E-08  9.01E-08  2.25E-08  2.27E-08  2.26E-08  3.55E-08
  5.84E-08  5.44E-08  7.15E-08  2.49E-08  6.13E-08  4.40E-08  1.75E-04  3.36E-04
 -4.5462E-01 -4.4866E-01 -4.1705E-01 -4.1363E-01 -3.1868E-01 -3.1201E-01
 -2.7556E-01 -2.7295E-01 -2.2235E-01 -2.1082E-01 -3.9598E-02 -3.8105E-02
 -3.7722E-02 -3.6723E-02  3.1188E-01  3.1412E-01
  prteigrs : nnsclo,ikpt=   70    4 max resid (incl. the buffer)=  3.35913E-04
 Real(R)+Recip(G) space primitive vectors, cartesian coordinates (Bohr,Bohr^-1):
 R(1)=  3.3000000 -3.3000000  0.0000000  G(1)=  0.1515152 -0.1515152  0.0000000
 R(2)=  3.3000000  3.3000000  0.0000000  G(2)=  0.1515152  0.1515152  0.0000000
 R(3)=  0.0000000  0.0000000  6.6000000  G(3)=  0.0000000  0.0000000  0.1515152
 Unit cell volume ucvol=  1.4374800E+02 bohr^3
 Angles (23,13,12)=  9.00000000E+01  9.00000000E+01  9.00000000E+01 degrees
================================================================================

 ----iterations are completed or convergence reached----

 Mean square residual over all n,k,spin=   3.0603E-05; max=  1.3829E-03
   0.1667  0.1667  0.2500    1  2.49880E-05 kpt; spin; max resid(k); each band:
  1.32E-08 2.61E-08 7.39E-08 7.50E-08 3.74E-08 6.50E-08 2.55E-08 2.50E-08
  9.74E-08 8.50E-08 7.07E-08 1.38E-08 5.70E-08 6.75E-08 9.33E-08 2.50E-05
   0.5000  0.1667  0.2500    1  1.36451E-03 kpt; spin; max resid(k); each band:
  2.02E-08 1.07E-08 8.63E-08 2.09E-08 4.33E-08 5.06E-08 7.25E-08 4.56E-08
  4.32E-08 7.91E-08 9.25E-08 6.57E-08 3.98E-08 8.01E-08 5.63E-05 1.36E-03
   0.1667  0.5000  0.2500    1  2.17708E-05 kpt; spin; max resid(k); each band:
  5.06E-08 9.25E-08 3.06E-09 7.33E-08 7.83E-08 2.22E-08 8.39E-08 6.65E-08
  6.73E-08 9.48E-08 9.40E-08 6.96E-08 4.52E-08 1.74E-08 2.18E-05 2.09E-05
   0.5000  0.5000  0.2500    1  2.12701E-04 kpt; spin; max resid(k); each band:
  4.04E-08 4.93E-08 3.57E-08 9.49E-08 8.17E-08 2.28E-08 3.95E-08 7.55E-08
  5.04E-08 8.18E-08 3.56E-08 6.01E-08 3.40E-08 3.97E-08 1.63E-04 2.13E-04
   0.1667  0.1667  0.2500    2  2.54721E-05 kpt; spin; max resid(k); each band:
  1.30E-08 2.26E-08 3.28E-08 8.32E-08 4.20E-08 3.90E-08 2.35E-08 4.76E-08
  6.30E-08 8.80E-08 6.60E-08 1.44E-08 6.29E-08 6.86E-08 5.57E-08 2.55E-05
   0.5000  0.1667  0.2500    2  1.38286E-03 kpt; spin; max resid(k); each band:
  1.69E-08 1.88E-08 3.01E-08 8.38E-08 5.85E-08 4.39E-08 4.81E-08 5.37E-08
  9.54E-08 2.85E-08 7.36E-08 4.76E-08 8.62E-08 7.72E-08 7.87E-05 1.38E-03
   0.1667  0.5000  0.2500    2  2.51032E-05 kpt; spin; max resid(k); each band:
  6.35E-08 2.41E-08 7.51E-08 8.55E-08 5.48E-08 8.73E-08 4.75E-08 7.16E-08
  7.30E-08 3.30E-08 8.29E-08 7.45E-08 4.25E-08 1.77E-08 2.31E-05 2.51E-05
   0.5000  0.5000  0.2500    2  3.35913E-04 kpt; spin; max resid(k); each band:
  3.35E-08 4.26E-08 2.19E-08 9.01E-08 2.25E-08 2.27E-08 2.26E-08 3.55E-08
  5.84E-08 5.44E-08 7.15E-08 2.49E-08 6.13E-08 4.40E-08 1.75E-04 3.36E-04
 reduced coordinates (array xred) for    2 atoms
       0.000000000000      0.000000000000      0.000000000000
       0.500000000000      0.000000000000      0.500000000000

 cartesian coordinates (angstrom) at end:
    1      0.00000000000000     0.00000000000000     0.00000000000000
    2      0.87314239417350    -0.87314239417350     1.74628478834700
 length scales=  6.600000000000  6.600000000000  6.600000000000 bohr
              =  3.492569576694  3.492569576694  3.492569576694 angstroms
 prteigrs : about to open file tspin_3o_DS2_EIG
 Eigenvalues (hartree) for nkpt=   4  k points, SPIN UP:
 kpt#   1, nband= 16, wtk=  0.44444, kpt=  0.1667  0.1667  0.2500 (reduced coord)
  -0.54580  -0.44854  -0.40825  -0.38579  -0.36974  -0.33499  -0.30927  -0.29773
  -0.28253  -0.27966  -0.23997  -0.13529   0.22140   0.22627   0.31304   0.46544
      occupation numbers for kpt#   1
   1.00000   1.00000   1.00000   0.99997   0.99983   0.99467   0.93442   0.81798
   0.49559   0.42443   0.01374   0.00000   0.00000   0.00000   0.00000   0.00000
 kpt#   2, nband= 16, wtk=  0.22222, kpt=  0.5000  0.1667  0.2500 (reduced coord)
  -0.44286  -0.44058  -0.39571  -0.39162  -0.34886  -0.34007  -0.29765  -0.29728
  -0.26736  -0.26489  -0.17729  -0.17094   0.09461   0.09527   0.44385   0.44494
      occupation numbers for kpt#   2
   1.00000   1.00000   0.99999   0.99998   0.99866   0.99678   0.81679   0.81123
   0.17728   0.14407   0.00003   0.00001   0.00000   0.00000   0.00000   0.00000
 kpt#   3, nband= 16, wtk=  0.22222, kpt=  0.1667  0.5000  0.2500 (reduced coord)
  -0.43756  -0.43368  -0.42686  -0.40960  -0.36424  -0.33087  -0.29211  -0.28094
  -0.27266  -0.20363  -0.19094  -0.11570   0.01523   0.01828   0.39306   0.47926
      occupation numbers for kpt#   3
   1.00000   1.00000   1.00000   1.00000   0.99971   0.99197   0.71932   0.45613
   0.26801   0.00037   0.00010   0.00000   0.00000   0.00000   0.00000   0.00000
 kpt#   4, nband= 16, wtk=  0.11111, kpt=  0.5000  0.5000  0.2500 (reduced coord)
  -0.45466  -0.44869  -0.41708  -0.41366  -0.31873  -0.31205  -0.27559  -0.27298
  -0.22239  -0.21086  -0.03962  -0.03812  -0.03774  -0.03674   0.31182   0.31404
      occupation numbers for kpt#   4
   1.00000   1.00000   1.00000   1.00000   0.97348   0.94955   0.32939   0.27440
   0.00240   0.00076   0.00000   0.00000   0.00000   0.00000   0.00000   0.00000
 Eigenvalues (hartree) for nkpt=   4  k points, SPIN DOWN:
 kpt#   1, nband= 16, wtk=  0.44444, kpt=  0.1667  0.1667  0.2500 (reduced coord)
  -0.54580  -0.44851  -0.40822  -0.38575  -0.36971  -0.33496  -0.30923  -0.29768
  -0.28248  -0.27961  -0.23991  -0.13526   0.22142   0.22628   0.31306   0.46545
      occupation numbers for kpt#   1
   1.00000   1.00000   1.00000   0.99997   0.99983   0.99465   0.93415   0.81719
   0.49433   0.42336   0.01367   0.00000   0.00000   0.00000   0.00000   0.00000
 kpt#   2, nband= 16, wtk=  0.22222, kpt=  0.5000  0.1667  0.2500 (reduced coord)
  -0.44284  -0.44056  -0.39567  -0.39159  -0.34882  -0.34003  -0.29761  -0.29725
  -0.26730  -0.26483  -0.17725  -0.17090   0.09463   0.09529   0.44381   0.44522
      occupation numbers for kpt#   2
   1.00000   1.00000   0.99999   0.99998   0.99866   0.99677   0.81624   0.81067
   0.17648   0.14341   0.00003   0.00001   0.00000   0.00000   0.00000   0.00000
 kpt#   3, nband= 16, wtk=  0.22222, kpt=  0.1667  0.5000  0.2500 (reduced coord)
  -0.43754  -0.43364  -0.42683  -0.40957  -0.36421  -0.33081  -0.29208  -0.28090
  -0.27260  -0.20359  -0.19090  -0.11567   0.01525   0.01830   0.39307   0.47928
      occupation numbers for kpt#   3
   1.00000   1.00000   1.00000   1.00000   0.99971   0.99193   0.71865   0.45506
   0.26690   0.00037   0.00010   0.00000   0.00000   0.00000   0.00000   0.00000
 kpt#   4, nband= 16, wtk=  0.11111, kpt=  0.5000  0.5000  0.2500 (reduced coord)
  -0.45462  -0.44866  -0.41705  -0.41363  -0.31868  -0.31201  -0.27556  -0.27295
  -0.22235  -0.21082  -0.03960  -0.03810  -0.03772  -0.03672   0.31188   0.31412
      occupation numbers for kpt#   4
   1.00000   1.00000   1.00000   1.00000   0.97335   0.94932   0.32862   0.27372
   0.00239   0.00075   0.00000   0.00000   0.00000   0.00000   0.00000   0.00000
 Total charge density [el/Bohr^3]
,     Maximum=    7.1153E-01  at reduced coord.    0.6111    0.0000    0.5926
,Next maximum=    7.1153E-01  at reduced coord.    0.3889    0.0000    0.5926
,     Minimum=    1.5384E-03  at reduced coord.    0.0000    0.0000    0.0000
,Next minimum=    3.7885E-03  at reduced coord.    0.5000    0.0000    0.4815
,  Integrated=    1.6000E+01
 Spin up density      [el/Bohr^3]
,     Maximum=    3.5889E-01  at reduced coord.    0.8889    0.0000    0.8889
,Next maximum=    3.5889E-01  at reduced coord.    0.1111    0.0000    0.8889
,     Minimum=    7.7884E-04  at reduced coord.    0.0000    0.0000    0.0000
,Next minimum=    1.8314E-03  at reduced coord.    0.5000    0.0000    0.4815
,  Integrated=    8.0015E+00
 Spin down density    [el/Bohr^3]
,     Maximum=    3.6558E-01  at reduced coord.    0.6111    0.0000    0.5926
,Next maximum=    3.6558E-01  at reduced coord.    0.3889    0.0000    0.5926
,     Minimum=    7.5953E-04  at reduced coord.    0.0000    0.0000    0.0000
,Next minimum=    1.9571E-03  at reduced coord.    0.5000    0.0000    0.4815
,  Integrated=    7.9985E+00
 Magnetization (spin up - spin down) [el/Bohr^3]
,     Maximum=    8.0849E-02  at reduced coord.    0.8889    0.8889    0.0000
,Next maximum=    8.0849E-02  at reduced coord.    0.1111    0.8889    0.0000
,     Minimum=   -7.9745E-02  at reduced coord.    0.3889    0.1111    0.4815
,Next minimum=   -7.9745E-02  at reduced coord.    0.6111    0.1111    0.4815
,  Integrated=    2.9630E-03
 Relative magnetization (=zeta, between -1 and 1)
,     Maximum=    1.3959E-01  at reduced coord.    0.8889    0.8889    0.0000
,Next maximum=    1.3959E-01  at reduced coord.    0.1111    0.8889    0.0000
,     Minimum=   -1.3541E-01  at reduced coord.    0.3889    0.1111    0.4815
,Next minimum=   -1.3541E-01  at reduced coord.    0.6111    0.1111    0.4815

--------------------------------------------------------------------------------
 Components of total free energy (in Hartree) :

    Kinetic energy  =  4.93237264856670E+01
    Hartree energy  =  5.32644597780533E+00
    XC energy       = -2.10642000313136E+01
    Ewald energy    = -4.34537234203633E+01
    PspCore energy  =  1.38092699089248E+01
    Loc. psp. energy=  3.22526562933955E+00
    NL   psp  energy= -5.63472813000792E+01
    >>>>> Internal E= -4.91804967500193E+01

    -kT*entropy     = -3.98806049388208E-02
    >>>>>>>>> Etotal= -4.92203773549581E+01

 "Double-counting" decomposition of free energy:
    Band energy     = -6.02757677964002E+00
    Ewald energy    = -4.34537234203633E+01
    PspCore energy  =  1.38092699089248E+01
    Dble-C XC-energy= -1.35304087771414E+01
    >>>>> Internal E= -4.92024390682199E+01

    -kT*entropy     = -3.98806049388208E-02
    >>>> Etotal (DC)= -4.92423196731587E+01
--------------------------------------------------------------------------------

================================================================================
== DATASET  3 ==================================================================
-   nproc =    1

 mkfilename : getden/=0, take file _DEN from output of DATASET   1.

 Exchange-correlation functional for the present dataset will be:
  LDA: new Teter (4/93) with spin-polarized option - ixc=1
 Citation for XC functional:
  S. Goedecker, M. Teter, J. Huetter, PRB 54, 1703 (1996)

 Real(R)+Recip(G) space primitive vectors, cartesian coordinates (Bohr,Bohr^-1):
 R(1)=  3.3000000 -3.3000000  0.0000000  G(1)=  0.1515152 -0.1515152  0.0000000
 R(2)=  3.3000000  3.3000000  0.0000000  G(2)=  0.1515152  0.1515152  0.0000000
 R(3)=  0.0000000  0.0000000  6.6000000  G(3)=  0.0000000  0.0000000  0.1515152
 Unit cell volume ucvol=  1.4374800E+02 bohr^3
 Angles (23,13,12)=  9.00000000E+01  9.00000000E+01  9.00000000E+01 degrees

 getcut: wavevector=  0.0000  0.0000  0.0000  ngfft=  18  18  27
         ecut(hartree)=     18.000   => boxcut(ratio)=   2.01949
--------------------------------------------------------------------------------

P newkpt: treating     16 bands with npw=     530 for ikpt=   1 by node    0
P newkpt: treating     16 bands with npw=     518 for ikpt=   2 by node    0
P newkpt: treating     16 bands with npw=     518 for ikpt=   3 by node    0
P newkpt: treating     16 bands with npw=     524 for ikpt=   4 by node    0
P newkpt: treating     16 bands with npw=     530 for ikpt=   1 by node    0
P newkpt: treating     16 bands with npw=     518 for ikpt=   2 by node    0
P newkpt: treating     16 bands with npw=     518 for ikpt=   3 by node    0
P newkpt: treating     16 bands with npw=     524 for ikpt=   4 by node    0


================================================================================

     iter   Etot(hartree)     deltaE(h) residm    vres2    magn
 prteigrs : about to open file tspin_3o_DS3_EIG

 SPIN UP channel
 Non-SCF case, kpt    1 (  0.16667  0.16667  0.25000), residuals and eigenvalues=
  1.32E-08  2.61E-08  7.39E-08  7.50E-08  3.74E-08  6.50E-08  2.55E-08  2.50E-08
  9.74E-08  8.50E-08  7.07E-08  1.38E-08  5.70E-08  6.75E-08  9.33E-08  2.50E-05
 -5.4580E-01 -4.4854E-01 -4.0825E-01 -3.8579E-01 -3.6974E-01 -3.3499E-01
 -3.0927E-01 -2.9773E-01 -2.8253E-01 -2.7966E-01 -2.3997E-01 -1.3529E-01
  2.2140E-01  2.2627E-01  3.1304E-01  4.6544E-01
  prteigrs : nnsclo,ikpt=   70    1 max resid (incl. the buffer)=  2.49880E-05
 Non-SCF case, kpt    2 (  0.50000  0.16667  0.25000), residuals and eigenvalues=
  2.02E-08  1.07E-08  8.63E-08  2.09E-08  4.33E-08  5.06E-08  7.25E-08  4.56E-08
  4.32E-08  7.91E-08  9.25E-08  6.57E-08  3.98E-08  8.01E-08  5.63E-05  1.36E-03
 -4.4286E-01 -4.4058E-01 -3.9571E-01 -3.9162E-01 -3.4886E-01 -3.4007E-01
 -2.9765E-01 -2.9728E-01 -2.6736E-01 -2.6489E-01 -1.7729E-01 -1.7094E-01
  9.4608E-02  9.5274E-02  4.4385E-01  4.4494E-01
  prteigrs : nnsclo,ikpt=   70    2 max resid (incl. the buffer)=  1.36451E-03
 Non-SCF case, kpt    3 (  0.16667  0.50000  0.25000), residuals and eigenvalues=
  5.06E-08  9.25E-08  3.06E-09  7.33E-08  7.83E-08  2.22E-08  8.39E-08  6.65E-08
  6.73E-08  9.48E-08  9.40E-08  6.96E-08  4.52E-08  1.74E-08  2.18E-05  2.09E-05
 -4.3756E-01 -4.3368E-01 -4.2686E-01 -4.0960E-01 -3.6424E-01 -3.3087E-01
 -2.9211E-01 -2.8094E-01 -2.7266E-01 -2.0363E-01 -1.9094E-01 -1.1570E-01
  1.5229E-02  1.8278E-02  3.9306E-01  4.7926E-01
  prteigrs : nnsclo,ikpt=   70    3 max resid (incl. the buffer)=  2.17708E-05
 Non-SCF case, kpt    4 (  0.50000  0.50000  0.25000), residuals and eigenvalues=
[...]
                       5.00000000E-01  5.00000000E-01  2.50000000E-01
         kptrlatt1       6    0    0      0    6    0      0    0    4
         kptrlatt2       3    0    0      0    3    0      0    0    2
         kptrlatt3       3    0    0      0    3    0      0    0    2
          kptrlen1     2.64000000E+01
          kptrlen2     1.32000000E+01
          kptrlen3     1.32000000E+01
P           mkmem1         18
P           mkmem2          4
P           mkmem3          4
            natom           2
           natsph2       1
           natsph3       1
            nband1         16
            nband2         16
            nband3         16
           nbdbuf1          0
           nbdbuf2          2
           nbdbuf3          2
           ndtset           3
            ngfft          18      18      27
             nkpt1         18
             nkpt2          4
             nkpt3          4
           nspden           2
           nsppol           2
            nstep          70
             nsym          16
           ntypat           1
              occ1     1.000000  1.000000  1.000000  0.999987  0.999726  0.998646
                       0.756247  0.742548  0.077582  0.023366  0.007871  0.000001
                       0.000000  0.000000  0.000000  0.000000
                       1.000000  1.000000  0.999998  0.999978  0.999704  0.998809
                       0.979747  0.937085  0.511988  0.125759  0.011995  0.000000
                       0.000000  0.000000  0.000000  0.000000
                       1.000000  0.999999  0.999996  0.999938  0.999865  0.999738
                       0.992081  0.977072  0.695914  0.140808  0.001765  0.000000
                       0.000000  0.000000  0.000000  0.000000
                       1.000000  1.000000  0.999998  0.999997  0.999981  0.979341
                       0.863615  0.657941  0.143468  0.050573  0.001639  0.000000
                       0.000000  0.000000  0.000000  0.000000
                       1.000000  1.000000  0.999996  0.999992  0.999926  0.993478
                       0.960949  0.699319  0.667562  0.142110  0.070382  0.000000
                       0.000000  0.000000  0.000000  0.000000
                       1.000000  0.999999  0.999992  0.999973  0.997903  0.995340
                       0.988307  0.912239  0.753121  0.496623  0.000377  0.000000
                       0.000000  0.000000  0.000000  0.000000
                       1.000000  1.000000  1.000000  0.999997  0.999977  0.996600
                       0.649934  0.288546  0.091344  0.003012  0.000379  0.000000
                       0.000000  0.000000  0.000000  0.000000
                       1.000000  0.999999  0.999998  0.999997  0.999938  0.999537
                       0.781634  0.466763  0.049603  0.004532  0.001509  0.000000
                       0.000000  0.000000  0.000000  0.000000
                       1.000000  1.000000  0.999994  0.999962  0.998974  0.992306
                       0.985242  0.954840  0.018694  0.005048  0.000002  0.000000
                       0.000000  0.000000  0.000000  0.000000
                       1.000000  1.000000  0.999996  0.999979  0.999591  0.996859
                       0.979417  0.952399  0.666029  0.306957  0.057473  0.030730
                       0.000000  0.000000  0.000000  0.000000
                       1.000000  1.000000  0.999998  0.999997  0.999896  0.999768
                       0.996288  0.982488  0.179958  0.151450  0.013459  0.000047
                       0.000000  0.000000  0.000000  0.000000
                       1.000000  1.000000  0.999993  0.999932  0.999863  0.999700
                       0.971146  0.910976  0.027173  0.018932  0.007007  0.000029
                       0.000000  0.000000  0.000000  0.000000
                       1.000000  1.000000  0.999993  0.999987  0.999517  0.992459
                       0.947260  0.905029  0.618469  0.409891  0.162697  0.002994
                       0.000000  0.000000  0.000000  0.000000
                       1.000000  1.000000  0.999997  0.999994  0.999427  0.998401
                       0.971685  0.904895  0.535365  0.126496  0.043305  0.000002
                       0.000000  0.000000  0.000000  0.000000
                       1.000000  1.000000  1.000000  0.999999  0.988434  0.967519
                       0.487154  0.296275  0.085657  0.012883  0.005281  0.000000
                       0.000000  0.000000  0.000000  0.000000
                       1.000000  1.000000  0.999998  0.999996  0.999414  0.974936
                       0.953671  0.890572  0.633310  0.012408  0.001535  0.000001
                       0.000000  0.000000  0.000000  0.000000
                       1.000000  1.000000  0.999999  0.999982  0.998367  0.993737
                       0.947947  0.425164  0.080594  0.001618  0.000423  0.000000
                       0.000000  0.000000  0.000000  0.000000
                       1.000000  1.000000  1.000000  0.999999  0.883950  0.582819
                       0.226572  0.055875  0.006193  0.001980  0.000005  0.000000
                       0.000000  0.000000  0.000000  0.000000
                       1.000000  1.000000  1.000000  0.999987  0.999724  0.998641
                       0.755208  0.741587  0.077170  0.023305  0.007828  0.000001
                       0.000000  0.000000  0.000000  0.000000
                       1.000000  1.000000  0.999998  0.999978  0.999703  0.998805
                       0.979672  0.936732  0.510654  0.125256  0.011929  0.000000
                       0.000000  0.000000  0.000000  0.000000
                       1.000000  0.999999  0.999996  0.999937  0.999865  0.999737
                       0.992041  0.976951  0.694796  0.140154  0.001757  0.000000
                       0.000000  0.000000  0.000000  0.000000
                       1.000000  1.000000  0.999998  0.999997  0.999981  0.979225
                       0.863173  0.656919  0.142777  0.050308  0.001633  0.000000
                       0.000000  0.000000  0.000000  0.000000
                       1.000000  1.000000  0.999996  0.999991  0.999926  0.993444
                       0.960815  0.698358  0.666667  0.141479  0.070063  0.000000
                       0.000000  0.000000  0.000000  0.000000
                       1.000000  0.999999  0.999992  0.999973  0.997896  0.995320
                       0.988261  0.911897  0.752313  0.495363  0.000376  0.000000
                       0.000000  0.000000  0.000000  0.000000
                       1.000000  1.000000  1.000000  0.999997  0.999977  0.996581
                       0.648911  0.287372  0.090928  0.003000  0.000377  0.000000
                       0.000000  0.000000  0.000000  0.000000
                       1.000000  0.999999  0.999998  0.999997  0.999938  0.999534
                       0.781077  0.465450  0.049387  0.004513  0.001503  0.000000
                       0.000000  0.000000  0.000000  0.000000
                       1.000000  1.000000  0.999994  0.999962  0.998969  0.992283
                       0.985193  0.954634  0.018607  0.005029  0.000002  0.000000
                       0.000000  0.000000  0.000000  0.000000
                       1.000000  1.000000  0.999996  0.999979  0.999590  0.996848
                       0.979323  0.952226  0.664723  0.305799  0.057178  0.030615
                       0.000000  0.000000  0.000000  0.000000
                       1.000000  1.000000  0.999998  0.999997  0.999896  0.999767
                       0.996269  0.982396  0.179128  0.150918  0.013382  0.000047
                       0.000000  0.000000  0.000000  0.000000
                       1.000000  1.000000  0.999993  0.999931  0.999863  0.999699
                       0.971055  0.910762  0.027023  0.018831  0.006973  0.000029
                       0.000000  0.000000  0.000000  0.000000
                       1.000000  1.000000  0.999993  0.999987  0.999515  0.992432
                       0.947060  0.904557  0.617420  0.408750  0.161966  0.002985
                       0.000000  0.000000  0.000000  0.000000
                       1.000000  1.000000  0.999997  0.999994  0.999425  0.998396
                       0.971556  0.904559  0.534113  0.125966  0.043102  0.000002
                       0.000000  0.000000  0.000000  0.000000
                       1.000000  1.000000  1.000000  0.999999  0.988389  0.967425
                       0.486242  0.295130  0.085249  0.012847  0.005258  0.000000
                       0.000000  0.000000  0.000000  0.000000
                       1.000000  1.000000  0.999998  0.999996  0.999412  0.974800
                       0.953499  0.890225  0.632030  0.012360  0.001529  0.000001
                       0.000000  0.000000  0.000000  0.000000
                       1.000000  1.000000  0.999999  0.999982  0.998362  0.993718
                       0.947689  0.423791  0.080289  0.001611  0.000422  0.000000
                       0.000000  0.000000  0.000000  0.000000
                       1.000000  1.000000  1.000000  0.999999  0.883416  0.581488
                       0.225870  0.055682  0.006167  0.001972  0.000005  0.000000
                       0.000000  0.000000  0.000000  0.000000
              occ2     1.000000  1.000000  0.999996  0.999967  0.999834  0.994669
                       0.934415  0.817980  0.495585  0.424430  0.013745  0.000000
                       0.000000  0.000000  0.000000  0.000000
                       1.000000  1.000000  0.999988  0.999981  0.998663  0.996783
                       0.816785  0.811233  0.177284  0.144070  0.000026  0.000014
                       0.000000  0.000000  0.000000  0.000000
                       1.000000  1.000000  0.999999  0.999997  0.999712  0.991968
                       0.719322  0.456126  0.268015  0.000368  0.000103  0.000000
                       0.000000  0.000000  0.000000  0.000000
                       1.000000  1.000000  0.999999  0.999998  0.973479  0.949552
                       0.329391  0.274395  0.002398  0.000758  0.000000  0.000000
                       0.000000  0.000000  0.000000  0.000000
                       1.000000  1.000000  0.999996  0.999967  0.999833  0.994650
                       0.934154  0.817190  0.494334  0.423362  0.013667  0.000000
                       0.000000  0.000000  0.000000  0.000000
                       1.000000  1.000000  0.999988  0.999981  0.998657  0.996773
                       0.816235  0.810672  0.176476  0.143409  0.000026  0.000014
                       0.000000  0.000000  0.000000  0.000000
                       1.000000  1.000000  0.999999  0.999997  0.999711  0.991926
                       0.718654  0.455065  0.266902  0.000367  0.000103  0.000000
                       0.000000  0.000000  0.000000  0.000000
                       1.000000  1.000000  0.999999  0.999998  0.973346  0.949323
                       0.328616  0.273719  0.002386  0.000755  0.000000  0.000000
                       0.000000  0.000000  0.000000  0.000000
              occ3     1.000000  1.000000  0.999996  0.999967  0.999834  0.994669
                       0.934415  0.817980  0.495585  0.424430  0.013745  0.000000
                       0.000000  0.000000  0.000000  0.000000
                       1.000000  1.000000  0.999988  0.999981  0.998663  0.996783
                       0.816785  0.811233  0.177284  0.144070  0.000026  0.000014
                       0.000000  0.000000  0.000000  0.000000
                       1.000000  1.000000  0.999999  0.999997  0.999712  0.991968
                       0.719322  0.456126  0.268015  0.000368  0.000103  0.000000
                       0.000000  0.000000  0.000000  0.000000
                       1.000000  1.000000  0.999999  0.999998  0.973479  0.949552
                       0.329391  0.274395  0.002398  0.000758  0.000000  0.000000
                       0.000000  0.000000  0.000000  0.000000
                       1.000000  1.000000  0.999996  0.999967  0.999833  0.994650
                       0.934154  0.817190  0.494334  0.423362  0.013667  0.000000
                       0.000000  0.000000  0.000000  0.000000
                       1.000000  1.000000  0.999988  0.999981  0.998657  0.996773
                       0.816235  0.810672  0.176476  0.143409  0.000026  0.000014
                       0.000000  0.000000  0.000000  0.000000
                       1.000000  1.000000  0.999999  0.999997  0.999711  0.991926
                       0.718654  0.455065  0.266902  0.000367  0.000103  0.000000
                       0.000000  0.000000  0.000000  0.000000
                       1.000000  1.000000  0.999999  0.999998  0.973346  0.949323
                       0.328616  0.273719  0.002386  0.000755  0.000000  0.000000
                       0.000000  0.000000  0.000000  0.000000
           occopt           3
           prtdos1          1
           prtdos2          3
           prtdos3          3
           ratsph1     2.00000000E+00 Bohr
           ratsph2     2.40000000E+00 Bohr
           ratsph3     2.40000000E+00 Bohr
            rprim      5.0000000000E-01 -5.0000000000E-01  0.0000000000E+00
                       5.0000000000E-01  5.0000000000E-01  0.0000000000E+00
                       0.0000000000E+00  0.0000000000E+00  1.0000000000E+00
           shiftk      5.00000000E-01  5.00000000E-01  5.00000000E-01
          spgroup          47
           spinat      0.0000000000E+00  0.0000000000E+00  4.0000000000E+00
                       0.0000000000E+00  0.0000000000E+00 -4.0000000000E+00
           strten1     2.0102696777E-02  2.0102696777E-02  1.8343984223E-02
                       0.0000000000E+00  0.0000000000E+00  7.0658541420E-04
           symafm        1   -1    1   -1    1   -1    1   -1    1   -1
                         1   -1    1   -1    1   -1
           symrel      1  0  0   0  1  0   0  0  1       1  0  0   0  1  0   0  0  1
                      -1  0  0   0 -1  0   0  0 -1      -1  0  0   0 -1  0   0  0 -1
                      -1  0  0   0  1  0   0  0 -1      -1  0  0   0  1  0   0  0 -1
                       1  0  0   0 -1  0   0  0  1       1  0  0   0 -1  0   0  0  1
                      -1  0  0   0 -1  0   0  0  1      -1  0  0   0 -1  0   0  0  1
                       1  0  0   0  1  0   0  0 -1       1  0  0   0  1  0   0  0 -1
                       1  0  0   0 -1  0   0  0 -1       1  0  0   0 -1  0   0  0 -1
                      -1  0  0   0  1  0   0  0  1      -1  0  0   0  1  0   0  0  1
            tnons      0.0000000  0.0000000  0.0000000     0.5000000  0.0000000  0.5000000
                       0.0000000  0.0000000  0.0000000     0.5000000  0.0000000  0.5000000
                       0.0000000  0.0000000  0.0000000     0.5000000  0.0000000  0.5000000
                       0.0000000  0.0000000  0.0000000     0.5000000  0.0000000  0.5000000
                       0.0000000  0.0000000  0.0000000     0.5000000  0.0000000  0.5000000
                       0.0000000  0.0000000  0.0000000     0.5000000  0.0000000  0.5000000
                       0.0000000  0.0000000  0.0000000     0.5000000  0.0000000  0.5000000
                       0.0000000  0.0000000  0.0000000     0.5000000  0.0000000  0.5000000
           tolwfr      1.00000000E-07
           tsmear      1.00000000E-02 Hartree
            typat      1  1
              wtk1       0.05556    0.05556    0.05556    0.05556    0.05556    0.05556
                         0.05556    0.05556    0.05556    0.05556    0.05556    0.05556
                         0.05556    0.05556    0.05556    0.05556    0.05556    0.05556
              wtk2       0.44444    0.22222    0.22222    0.11111
              wtk3       0.44444    0.22222    0.22222    0.11111
           xangst      0.0000000000E+00  0.0000000000E+00  0.0000000000E+00
                       8.7314239417E-01 -8.7314239417E-01  1.7462847883E+00
            xcart      0.0000000000E+00  0.0000000000E+00  0.0000000000E+00
                       1.6500000000E+00 -1.6500000000E+00  3.3000000000E+00
             xred      0.0000000000E+00  0.0000000000E+00  0.0000000000E+00
                       5.0000000000E-01  0.0000000000E+00  5.0000000000E-01
            znucl       26.00000

================================================================================


- Timing analysis has been suppressed with timopt=0



================================================================================

 Suggested references for the acknowledgment of ABINIT usage.

 The users of ABINIT have little formal obligations with respect to the ABINIT group
 (those specified in the GNU General Public License, http://www.gnu.org/copyleft/gpl.txt).
 However, it is common practice in the scientific literature,
 to acknowledge the efforts of people that have made the research possible.
 In this spirit, please find below suggested citations of work written by ABINIT developers,
 corresponding to implementations inside of ABINIT that you have used in the present run.
 Note also that it will be of great value to readers of publications presenting these results,
 to read papers enabling them to understand the theoretical formalism and details
 of the ABINIT implementation.
 For information on why they are suggested, see also http://www.abinit.org/about/?text=acknowledgments.

 [1] ABINIT : First-principles approach of materials and nanosystem properties.
 X. Gonze, B. Amadon, P.-M. Anglade, J.-M. Beuken, F. Bottin, P. Boulanger, F. Bruneval,
 D. Caliste, R. Caracas, M. Cote, T. Deutsch, L. Genovese, Ph. Ghosez, M. Giantomassi
 S. Goedecker, D.R. Hamann, P. Hermet, F. Jollet, G. Jomard, S. Leroux, M. Mancini, S. Mazevet,
 M.J.T. Oliveira, G. Onida, Y. Pouillon, T. Rangel, G.-M. Rignanese, D. Sangalli, R. Shaltaf,
 M. Torrent, M.J. Verstraete, G. Zerah, J.W. Zwanziger
 Computer Phys. Comm. 180, 2582-2615 (2009).
 Comment : the third generic paper describing the ABINIT project.
 Note that a version of this paper, that is not formatted for Computer Phys. Comm. 
 is available at http://www.abinit.org/about/ABINIT_CPC_v10.pdf .
 The licence allows the authors to put it on the Web.

 [2] A brief introduction to the ABINIT software package.
 X. Gonze, G.-M. Rignanese, M. Verstraete, J.-M. Beuken, Y. Pouillon, R. Caracas, F. Jollet,
 M. Torrent, G. Zerah, M. Mikami, Ph. Ghosez, M. Veithen, J.-Y. Raty, V. Olevano, F. Bruneval,
 L. Reining, R. Godby, G. Onida, D.R. Hamann, and D.C. Allan.
 Z. Kristallogr. 220, 558-562 (2005).
 Comment : the second generic paper describing the ABINIT project. Note that this paper
 should be cited especially if you are using the GW part of ABINIT, as several authors
 of this part are not in the list of authors of the first or third paper.
 The .pdf of the latter paper is available at http://www.abinit.org/about/zfk_0505-06_558-562.pdf.
 Note that it should not redistributed (Copyright by Oldenburg Wissenshaftverlag,
 the licence allows the authors to put it on the Web).


 And optionally :

 [3] First-principles computation of material properties : the ABINIT software project. 
 X. Gonze, J.-M. Beuken, R. Caracas, F. Detraux, M. Fuchs, G.-M. Rignanese, L. Sindic,
 M. Verstraete, G. Zerah, F. Jollet, M. Torrent, A. Roy, M. Mikami, Ph. Ghosez, J.-Y. Raty, D.C. Allan.
 Computational Materials Science 25, 478-492 (2002). http://dx.doi.org/10.1016/S0927-0256(02)00325-7
 Comment : the original paper describing the ABINIT project.

 [4] Fast radix 2, 3, 4 and 5 kernels for Fast Fourier Transformations
 on computers with overlapping multiply-add instructions.
 S. Goedecker, SIAM J. on Scientific Computing 18, 1605 (1997).
-
- Proc.   0 individual time (sec): cpu=         68.3  wall=         68.3

================================================================================

 Calculation completed.
.Delivered    0 WARNINGs and   0 COMMENTs to log file.
+Overall time at end (sec) : cpu=         68.3  wall=         68.3
