
.Version 7.10.4 of ABINIT 
.(MPI version, prepared for a x86_64_linux_gnu4.7 computer) 

.Copyright (C) 1998-2014 ABINIT group . 
 ABINIT comes with ABSOLUTELY NO WARRANTY.
 It is free software, and you are welcome to redistribute it
 under certain conditions (GNU General Public License,
 see ~abinit/COPYING or http://www.gnu.org/copyleft/gpl.txt).

 ABINIT is a project of the Universite Catholique de Louvain,
 Corning Inc. and other collaborators, see ~abinit/doc/developers/contributors.txt .
 Please read ~abinit/doc/users/acknowledgments.html for suggested
 acknowledgments of the ABINIT effort.
 For more information, see http://www.abinit.org .

.Starting date : Wed 11 Mar 2015.
- ( at 10h18 )
  
- input  file    -> t60.in
- output file    -> t60_MPI1.out
- root for input  files -> t60_MPI1i
- root for output files -> t60_MPI1o


 DATASET   11 : space group P1 (#  1); Bravais aP (primitive triclinic)
================================================================================
 Values of the parameters that define the memory need for DATASET 11.
   intxc =         0  ionmov =         0    iscf =         7 xclevel =         1
  lmnmax =         1   lnmax =         1   mband =        10  mffmem =         1
P  mgfft =        15   mkmem =         8 mpssoang=         2     mpw =       116
  mqgrid =      3001   natom =         2    nfft =      3375    nkpt =         8
  nloalg =         4  nspden =         1 nspinor =         1  nsppol =         1
    nsym =         1  n1xccc =      2501  ntypat =         1  occopt =         1
================================================================================
P This job should need less than                       1.544 Mbytes of memory.
  Rough estimation (10% accuracy) of disk space for files :
_ WF disk file :      0.144 Mbytes ; DEN or POT disk file :      0.028 Mbytes.
================================================================================


 DATASET   12 : space group P1 (#  1); Bravais aP (primitive triclinic)
================================================================================
 Values of the parameters that define the memory need for DATASET 12.
   intxc =         0  ionmov =         0    iscf =        -2 xclevel =         1
  lmnmax =         1   lnmax =         1   mband =        10  mffmem =         1
P  mgfft =        15   mkmem =         8 mpssoang=         2     mpw =       116
  mqgrid =      3001   natom =         2    nfft =      3375    nkpt =         8
  nloalg =         4  nspden =         1 nspinor =         1  nsppol =         1
    nsym =         1  n1xccc =      2501  ntypat =         1  occopt =         1
================================================================================
P This job should need less than                       1.132 Mbytes of memory.
  Rough estimation (10% accuracy) of disk space for files :
_ WF disk file :      0.144 Mbytes ; DEN or POT disk file :      0.028 Mbytes.
================================================================================


 DATASET   13 : space group P1 (#  1); Bravais aP (primitive triclinic)
================================================================================
 Values of the parameters that define the memory need for DATASET 13 (RF).
   intxc =         0    iscf =         7 xclevel =         1  lmnmax =         1
   lnmax =         1   mband =        10  mffmem =         1   mgfft =        15
P  mkmem =         8  mkqmem =         8  mk1mem =         8 mpssoang=         2
     mpw =       116  mqgrid =      3001   natom =         2    nfft =      3375
    nkpt =         8  nloalg =         4  nspden =         1 nspinor =         1
  nsppol =         1    nsym =         1  n1xccc =      2501  ntypat =         1
  occopt =         1
================================================================================
P This job should need less than                       1.631 Mbytes of memory.
  Rough estimation (10% accuracy) of disk space for files :
_ WF disk file :      0.144 Mbytes ; DEN or POT disk file :      0.028 Mbytes.
================================================================================


 DATASET   21 : space group P1 (#  1); Bravais aP (primitive triclinic)
================================================================================
 Values of the parameters that define the memory need for DATASET 21.
   intxc =         0  ionmov =         0    iscf =         7 xclevel =         1
  lmnmax =         1   lnmax =         1   mband =        10  mffmem =         1
P  mgfft =        15   mkmem =         8 mpssoang=         2     mpw =       116
  mqgrid =      3001   natom =         2    nfft =      3375    nkpt =         8
  nloalg =         4  nspden =         1 nspinor =         1  nsppol =         1
    nsym =         1  n1xccc =      2501  ntypat =         1  occopt =         1
================================================================================
P This job should need less than                       1.544 Mbytes of memory.
  Rough estimation (10% accuracy) of disk space for files :
_ WF disk file :      0.144 Mbytes ; DEN or POT disk file :      0.028 Mbytes.
================================================================================


 DATASET   22 : space group P1 (#  1); Bravais aP (primitive triclinic)
================================================================================
 Values of the parameters that define the memory need for DATASET 22.
   intxc =         0  ionmov =         0    iscf =        -2 xclevel =         1
  lmnmax =         1   lnmax =         1   mband =        10  mffmem =         1
P  mgfft =        15   mkmem =         8 mpssoang=         2     mpw =       116
  mqgrid =      3001   natom =         2    nfft =      3375    nkpt =         8
  nloalg =         4  nspden =         1 nspinor =         1  nsppol =         1
    nsym =         1  n1xccc =      2501  ntypat =         1  occopt =         1
================================================================================
P This job should need less than                       1.132 Mbytes of memory.
  Rough estimation (10% accuracy) of disk space for files :
_ WF disk file :      0.144 Mbytes ; DEN or POT disk file :      0.028 Mbytes.
================================================================================


 DATASET   23 : space group P1 (#  1); Bravais aP (primitive triclinic)
================================================================================
 Values of the parameters that define the memory need for DATASET 23 (RF).
   intxc =         0    iscf =         7 xclevel =         1  lmnmax =         1
   lnmax =         1   mband =        10  mffmem =         1   mgfft =        15
P  mkmem =         8  mkqmem =         8  mk1mem =         8 mpssoang=         2
     mpw =       116  mqgrid =      3001   natom =         2    nfft =      3375
    nkpt =         8  nloalg =         4  nspden =         1 nspinor =         1
  nsppol =         1    nsym =         1  n1xccc =      2501  ntypat =         1
  occopt =         1
================================================================================
P This job should need less than                       1.811 Mbytes of memory.
  Rough estimation (10% accuracy) of disk space for files :
_ WF disk file :      0.144 Mbytes ; DEN or POT disk file :      0.028 Mbytes.
================================================================================


 DATASET   31 : space group P1 (#  1); Bravais aP (primitive triclinic)
================================================================================
 Values of the parameters that define the memory need for DATASET 31.
   intxc =         0  ionmov =         0    iscf =         7 xclevel =         1
  lmnmax =         1   lnmax =         1   mband =        10  mffmem =         1
P  mgfft =        15   mkmem =         8 mpssoang=         2     mpw =       116
  mqgrid =      3001   natom =         2    nfft =      3375    nkpt =         8
  nloalg =         4  nspden =         1 nspinor =         1  nsppol =         1
    nsym =         1  n1xccc =      2501  ntypat =         1  occopt =         1
================================================================================
P This job should need less than                       1.544 Mbytes of memory.
  Rough estimation (10% accuracy) of disk space for files :
_ WF disk file :      0.144 Mbytes ; DEN or POT disk file :      0.028 Mbytes.
================================================================================


 DATASET   32 : space group P1 (#  1); Bravais aP (primitive triclinic)
================================================================================
 Values of the parameters that define the memory need for DATASET 32.
   intxc =         0  ionmov =         0    iscf =        -2 xclevel =         1
  lmnmax =         1   lnmax =         1   mband =        10  mffmem =         1
P  mgfft =        15   mkmem =         8 mpssoang=         2     mpw =       116
  mqgrid =      3001   natom =         2    nfft =      3375    nkpt =         8
  nloalg =         4  nspden =         1 nspinor =         1  nsppol =         1
    nsym =         1  n1xccc =      2501  ntypat =         1  occopt =         1
================================================================================
P This job should need less than                       1.132 Mbytes of memory.
  Rough estimation (10% accuracy) of disk space for files :
_ WF disk file :      0.144 Mbytes ; DEN or POT disk file :      0.028 Mbytes.
================================================================================


 DATASET   33 : space group P1 (#  1); Bravais aP (primitive triclinic)
================================================================================
 Values of the parameters that define the memory need for DATASET 33 (RF).
   intxc =         0    iscf =         7 xclevel =         1  lmnmax =         1
   lnmax =         1   mband =        10  mffmem =         1   mgfft =        15
P  mkmem =         8  mkqmem =         8  mk1mem =         8 mpssoang=         2
     mpw =       116  mqgrid =      3001   natom =         2    nfft =      3375
    nkpt =         8  nloalg =         4  nspden =         1 nspinor =         1
  nsppol =         1    nsym =         1  n1xccc =      2501  ntypat =         1
  occopt =         1
================================================================================
P This job should need less than                       1.811 Mbytes of memory.
  Rough estimation (10% accuracy) of disk space for files :
_ WF disk file :      0.144 Mbytes ; DEN or POT disk file :      0.028 Mbytes.
================================================================================

--------------------------------------------------------------------------------
------------- Echo of variables that govern the present computation ------------
--------------------------------------------------------------------------------
-
- outvars: echo of selected default values                                      
-   accesswff0 =  0 , fftalg0 =112 , wfoptalg0 =  0
-
- outvars: echo of global parameters not present in the input file              
-  max_nthreads =    0
-
 -outvars: echo values of preprocessed input variables --------
            acell      6.6709983131E+00  6.6709983131E+00  6.6709983131E+00 Bohr
              amu      1.20110000E+01
          bdeigrf          10
           diemac      6.00000000E+00
             ecut      1.00000000E+01 Hartree
    elph2_imagden      3.67493254E-03 Hartree
           enunit           2
-          fftalg         112
           getden11         0
           getden12        -1
           getden13         0
           getden21         0
           getden22        -1
           getden23         0
           getden31         0
           getden32        -1
           getden33         0
           getwfk11         0
           getwfk12         0
           getwfk13        -2
           getwfk21         0
           getwfk22         0
           getwfk23        -2
           getwfk31         0
           getwfk32         0
           getwfk33        -2
           getwfq11         0
           getwfq12         0
           getwfq13        -1
           getwfq21         0
           getwfq22         0
           getwfq23        -1
           getwfq31         0
           getwfq32         0
           getwfq33        -1
          ieig2rf11         0
          ieig2rf12         0
          ieig2rf13         4
          ieig2rf21         0
          ieig2rf22         0
          ieig2rf23         4
          ieig2rf31         0
          ieig2rf32         0
          ieig2rf33         4
             iscf11         7
             iscf12        -2
             iscf13         7
             iscf21         7
             iscf22        -2
             iscf23         7
             iscf31         7
             iscf32        -2
             iscf33         7
           istwfk11      1    1    1    1    1    1    1    1
           istwfk12      1    1    1    1    1    1    1    1
           istwfk13      1    1    1    1    1    1    1    1
           istwfk21      1    1    1    1    1    1    1    1
           istwfk22      1    1    0    0    1    1    0    0
           istwfk23      1    1    1    1    1    1    1    1
           istwfk31      1    1    1    1    1    1    1    1
           istwfk32      0    0    0    0    0    0    0    0
           istwfk33      1    1    1    1    1    1    1    1
           jdtset       11   12   13   21   22   23   31   32   33
              kpt      0.00000000E+00  0.00000000E+00  0.00000000E+00
                       5.00000000E-01  0.00000000E+00  0.00000000E+00
                       0.00000000E+00  5.00000000E-01  0.00000000E+00
                       5.00000000E-01  5.00000000E-01  0.00000000E+00
                       0.00000000E+00  0.00000000E+00  5.00000000E-01
                       5.00000000E-01  0.00000000E+00  5.00000000E-01
                       0.00000000E+00  5.00000000E-01  5.00000000E-01
                       5.00000000E-01  5.00000000E-01  5.00000000E-01
           kptopt           3
         kptrlatt        2    0    0      0    2    0      0    0    2
          kptrlen      9.43421629E+00
P           mkmem           8
P          mkqmem           8
P          mk1mem           8
            natom           2
            nband          10
           nbdbuf           2
           ndtset           9
            ngfft          15      15      15
             nkpt           8
             nqpt11         0
             nqpt12         1
             nqpt13         1
             nqpt21         0
             nqpt22         1
             nqpt23         1
             nqpt31         0
             nqpt32         1
             nqpt33         1
            nstep          50
             nsym           1
           ntypat           1
              occ      2.000000  2.000000  2.000000  2.000000  0.000000  0.000000
                       0.000000  0.000000  0.000000  0.000000
        optdriver11         0
        optdriver12         0
        optdriver13         1
        optdriver21         0
        optdriver22         0
        optdriver23         1
        optdriver31         0
        optdriver32         0
        optdriver33         1
              qpt11    0.00000000E+00  0.00000000E+00  0.00000000E+00
              qpt12    0.00000000E+00  0.00000000E+00  0.00000000E+00
              qpt13    0.00000000E+00  0.00000000E+00  0.00000000E+00
              qpt21    0.00000000E+00  0.00000000E+00  0.00000000E+00
              qpt22    0.00000000E+00  5.00000000E-01  0.00000000E+00
              qpt23    0.00000000E+00  5.00000000E-01  0.00000000E+00
              qpt31    0.00000000E+00  0.00000000E+00  0.00000000E+00
              qpt32    1.00000000E-01  0.00000000E+00  0.00000000E+00
              qpt33    1.00000000E-01  0.00000000E+00  0.00000000E+00
          rfatpol           1       2
            rfdir           1       1       1
           rfphon11         0
           rfphon12         0
           rfphon13         1
           rfphon21         0
           rfphon22         0
           rfphon23         1
           rfphon31         0
           rfphon32         0
           rfphon33         1
            rprim      0.0000000000E+00  5.0000000000E-01  5.0000000000E-01
                       5.0000000000E-01  0.0000000000E+00  5.0000000000E-01
                       5.0000000000E-01  5.0000000000E-01  0.0000000000E+00
          spgroup           1
           tolwfr      1.00000000E-08
            typat      1  1
              wtk        0.12500    0.12500    0.12500    0.12500    0.12500    0.12500
                         0.12500    0.12500
           xangst      0.0000000000E+00  0.0000000000E+00  0.0000000000E+00
                       8.8253506646E-01  8.8253506646E-01  8.8253506646E-01
            xcart      0.0000000000E+00  0.0000000000E+00  0.0000000000E+00
                       1.6677495783E+00  1.6677495783E+00  1.6677495783E+00
             xred      0.0000000000E+00  0.0000000000E+00  0.0000000000E+00
                       2.5000000000E-01  2.5000000000E-01  2.5000000000E-01
            znucl        6.00000

================================================================================

 chkinp: Checking input parameters for consistency, jdtset=  11.

 chkinp: Checking input parameters for consistency, jdtset=  12.

 chkinp: Checking input parameters for consistency, jdtset=  13.

 chkinp: Checking input parameters for consistency, jdtset=  21.

 chkinp: Checking input parameters for consistency, jdtset=  22.

 chkinp: Checking input parameters for consistency, jdtset=  23.

 chkinp: Checking input parameters for consistency, jdtset=  31.

 chkinp: Checking input parameters for consistency, jdtset=  32.

 chkinp: Checking input parameters for consistency, jdtset=  33.

================================================================================
== DATASET 11 ==================================================================
-   nproc =    1

 Exchange-correlation functional for the present dataset will be:
  LDA: new Teter (4/93) with spin-polarized option - ixc=1
 Citation for XC functional:
  S. Goedecker, M. Teter, J. Huetter, PRB 54, 1703 (1996)

 Real(R)+Recip(G) space primitive vectors, cartesian coordinates (Bohr,Bohr^-1):
 R(1)=  0.0000000  3.3354992  3.3354992  G(1)= -0.1499026  0.1499026  0.1499026
 R(2)=  3.3354992  0.0000000  3.3354992  G(2)=  0.1499026 -0.1499026  0.1499026
 R(3)=  3.3354992  3.3354992  0.0000000  G(3)=  0.1499026  0.1499026 -0.1499026
 Unit cell volume ucvol=  7.4218556E+01 bohr^3
 Angles (23,13,12)=  6.00000000E+01  6.00000000E+01  6.00000000E+01 degrees

 getcut: wavevector=  0.0000  0.0000  0.0000  ngfft=  15  15  15
         ecut(hartree)=     10.000   => boxcut(ratio)=   2.09552

--- Pseudopotential description ------------------------------------------------
- pspini: atom type   1  psp file is /home/gonze/ABINIT/ABINITv7.10.4/trunk/7.10.4-private/tests/Psps_for_tests/6c.pspnc
- pspatm: opening atomic psp file    /home/gonze/ABINIT/ABINITv7.10.4/trunk/7.10.4-private/tests/Psps_for_tests/6c.pspnc
-  Troullier-Martins psp for element  C         Thu Oct 27 17:29:33 EDT 1994
-  6.00000   4.00000    940714                znucl, zion, pspdat
    1    1    1    1      2001   0.00000      pspcod,pspxc,lmax,lloc,mmax,r2well
    0  10.372  24.987    1   1.4850707        l,e99.0,e99.9,nproj,rcpsp
   0.00000000   0.00000000   0.00000000   0.00000000     rms, ekb1, ekb2, epsatm
    1  15.431  21.987    0   1.4850707        l,e99.0,e99.9,nproj,rcpsp
   0.00000000   0.00000000   0.00000000   0.00000000     rms, ekb1, ekb2, epsatm
    0.83985002509544    0.99012430797080    0.51184907750884   rchrg,fchrg,qchrg
 pspatm: epsatm=    0.92590353
         --- l  ekb(1:nproj) -->
             0    4.921466
 pspatm: atomic psp has been read  and splines computed

   1.48144565E+01                                ecore*ucvol(ha*bohr**3)
--------------------------------------------------------------------------------

P newkpt: treating     10 bands with npw=     113 for ikpt=   1 by node    0
P newkpt: treating     10 bands with npw=     108 for ikpt=   2 by node    0
P newkpt: treating     10 bands with npw=     108 for ikpt=   3 by node    0
P newkpt: treating     10 bands with npw=     116 for ikpt=   4 by node    0
P newkpt: treating     10 bands with npw=     108 for ikpt=   5 by node    0
P newkpt: treating     10 bands with npw=     116 for ikpt=   6 by node    0
P newkpt: treating     10 bands with npw=     116 for ikpt=   7 by node    0
P newkpt: treating     10 bands with npw=     108 for ikpt=   8 by node    0

_setup2: Arith. and geom. avg. npw (full set) are     111.625     111.563

================================================================================

     iter   Etot(hartree)      deltaE(h)  residm     vres2
 ETOT  1  -11.683963329501    -1.168E+01 5.766E-03 8.670E+00
 ETOT  2  -11.692111223318    -8.148E-03 1.679E-06 2.457E-02
 ETOT  3  -11.692124873334    -1.365E-05 3.208E-07 8.105E-04
 ETOT  4  -11.692125008380    -1.350E-07 1.413E-07 3.120E-04
 ETOT  5  -11.692125615453    -6.071E-07 3.190E-08 1.448E-06
 ETOT  6  -11.692125617842    -2.389E-09 6.772E-10 9.701E-09

 At SCF step    6   max residual=  6.77E-10 < tolwfr=  1.00E-08 =>converged.

 Cartesian components of stress tensor (hartree/bohr^3)
  sigma(1 1)=  3.32483279E-03  sigma(3 2)=  5.05926498E-09
  sigma(2 2)=  3.32483047E-03  sigma(3 1)= -2.06972340E-08
  sigma(3 3)=  3.32483131E-03  sigma(2 1)= -2.65002807E-08

================================================================================

 ----iterations are completed or convergence reached----

 Mean square residual over all n,k,spin=   2.2709E-08; max=  8.1207E-07
   0.0000  0.0000  0.0000    1  2.18254E-09 kpt; spin; max resid(k); each band:
  1.25E-10 1.70E-10 1.58E-10 1.66E-10 1.26E-10 1.49E-10 1.48E-10 2.58E-10
  1.47E-10 2.18E-09
   0.5000  0.0000  0.0000    1  4.97768E-07 kpt; spin; max resid(k); each band:
  1.78E-10 8.62E-11 1.33E-10 1.40E-10 2.64E-10 1.35E-10 1.08E-10 1.77E-10
  3.18E-10 4.98E-07
   0.0000  0.5000  0.0000    1  1.36274E-07 kpt; spin; max resid(k); each band:
  1.31E-10 1.34E-10 1.61E-10 1.48E-10 1.71E-10 1.10E-10 1.61E-10 1.19E-10
  2.00E-10 1.36E-07
   0.5000  0.5000  0.0000    1  6.67343E-10 kpt; spin; max resid(k); each band:
  1.38E-10 1.29E-10 1.48E-10 1.31E-10 6.67E-10 5.48E-10 2.52E-10 1.78E-10
  1.82E-10 1.49E-10
   0.0000  0.0000  0.5000    1  8.12070E-07 kpt; spin; max resid(k); each band:
  1.17E-10 1.57E-10 1.59E-10 1.53E-10 1.55E-10 1.02E-10 1.62E-10 1.08E-10
  2.55E-10 8.12E-07
   0.5000  0.0000  0.5000    1  6.64765E-10 kpt; spin; max resid(k); each band:
  1.38E-10 1.26E-10 1.51E-10 1.35E-10 6.65E-10 5.42E-10 1.88E-10 2.50E-10
  1.78E-10 1.39E-10
   0.0000  0.5000  0.5000    1  6.77160E-10 kpt; spin; max resid(k); each band:
  1.49E-10 1.19E-10 1.51E-10 1.25E-10 6.77E-10 5.44E-10 2.64E-10 1.61E-10
  1.96E-10 1.41E-10
   0.5000  0.5000  0.5000    1  3.53814E-07 kpt; spin; max resid(k); each band:
  1.36E-10 1.29E-10 1.60E-10 1.42E-10 1.86E-10 8.52E-11 1.84E-10 1.30E-10
  1.90E-10 3.54E-07
 reduced coordinates (array xred) for    2 atoms
       0.000000000000      0.000000000000      0.000000000000
       0.250000000000      0.250000000000      0.250000000000
 rms dE/dt=  2.0661E-05; max dE/dt=  2.3774E-05; dE/dt below (all hartree)
    1      -0.000011988396      0.000011621265      0.000023773703
    2      -0.000040987611     -0.000004014345      0.000004605278

 cartesian coordinates (angstrom) at end:
    1      0.00000000000000     0.00000000000000     0.00000000000000
    2      0.88253506645871     0.88253506645871     0.88253506645871

 cartesian forces (hartree/bohr) at end:
    1     -0.00000043507878    -0.00000243831802    -0.00000190873985
    2      0.00000043507878     0.00000243831802     0.00000190873985
 frms,max,avg= 1.8053602E-06 2.4383180E-06  -6.668E-06  2.414E-06  5.528E-06 h/b

 cartesian forces (eV/Angstrom) at end:
    1     -0.00002237264848    -0.00012538334350    -0.00009815134106
    2      0.00002237264848     0.00012538334350     0.00009815134106
 frms,max,avg= 9.2835345E-05 1.2538334E-04  -3.429E-04  1.241E-04  2.842E-04 e/A
 length scales=  6.670998313100  6.670998313100  6.670998313100 bohr
              =  3.530140265835  3.530140265835  3.530140265835 angstroms
 prteigrs : about to open file t60_MPI1o_DS11_EIG
 Fermi (or HOMO) energy (hartree) =   0.52104   Average Vxc (hartree)=  -0.50804
 Eigenvalues (hartree) for nkpt=   8  k points:
 kpt#   1, nband= 10, wtk=  0.12500, kpt=  0.0000  0.0000  0.0000 (reduced coord)
  -0.31566   0.52104   0.52104   0.52104   0.75482   0.75482   0.75482   0.99990
   1.19500   1.48731
 kpt#   2, nband= 10, wtk=  0.12500, kpt=  0.5000  0.0000  0.0000 (reduced coord)
  -0.09003  -0.00243   0.43029   0.43029   0.83414   0.84609   0.84609   1.11601
   1.35674   1.46085
 kpt#   3, nband= 10, wtk=  0.12500, kpt=  0.0000  0.5000  0.0000 (reduced coord)
  -0.09003  -0.00243   0.43029   0.43029   0.83414   0.84609   0.84609   1.11601
   1.35674   1.46085
 kpt#   4, nband= 10, wtk=  0.12500, kpt=  0.5000  0.5000  0.0000 (reduced coord)
   0.02301   0.02301   0.27757   0.27757   0.66796   0.66796   1.20916   1.20916
   1.44208   1.44208
 kpt#   5, nband= 10, wtk=  0.12500, kpt=  0.0000  0.0000  0.5000 (reduced coord)
  -0.09003  -0.00243   0.43029   0.43029   0.83414   0.84609   0.84609   1.11601
   1.35674   1.46085
 kpt#   6, nband= 10, wtk=  0.12500, kpt=  0.5000  0.0000  0.5000 (reduced coord)
   0.02301   0.02301   0.27757   0.27757   0.66796   0.66796   1.20916   1.20916
   1.44208   1.44208
 kpt#   7, nband= 10, wtk=  0.12500, kpt=  0.0000  0.5000  0.5000 (reduced coord)
   0.02301   0.02301   0.27757   0.27757   0.66796   0.66796   1.20916   1.20916
   1.44208   1.44208
 kpt#   8, nband= 10, wtk=  0.12500, kpt=  0.5000  0.5000  0.5000 (reduced coord)
  -0.09003  -0.00243   0.43029   0.43029   0.83414   0.84609   0.84609   1.11601
   1.35674   1.46085
 Fermi (or HOMO) energy (eV) =  14.17819   Average Vxc (eV)= -13.82455
 Eigenvalues (   eV  ) for nkpt=   8  k points:
 kpt#   1, nband= 10, wtk=  0.12500, kpt=  0.0000  0.0000  0.0000 (reduced coord)
  -8.58957  14.17819  14.17819  14.17819  20.53957  20.53957  20.53957  27.20859
  32.51758  40.47171
 kpt#   2, nband= 10, wtk=  0.12500, kpt=  0.5000  0.0000  0.0000 (reduced coord)
  -2.44989  -0.06613  11.70875  11.70875  22.69800  23.02325  23.02326  30.36815
  36.91884  39.75170
 kpt#   3, nband= 10, wtk=  0.12500, kpt=  0.0000  0.5000  0.0000 (reduced coord)
  -2.44989  -0.06613  11.70875  11.70876  22.69800  23.02325  23.02326  30.36815
  36.91884  39.75166
 kpt#   4, nband= 10, wtk=  0.12500, kpt=  0.5000  0.5000  0.0000 (reduced coord)
   0.62617   0.62617   7.55305   7.55305  18.17625  18.17625  32.90299  32.90299
  39.24086  39.24086
 kpt#   5, nband= 10, wtk=  0.12500, kpt=  0.0000  0.0000  0.5000 (reduced coord)
  -2.44989  -0.06613  11.70875  11.70875  22.69800  23.02325  23.02326  30.36815
  36.91884  39.75173
 kpt#   6, nband= 10, wtk=  0.12500, kpt=  0.5000  0.0000  0.5000 (reduced coord)
   0.62617   0.62618   7.55305   7.55305  18.17625  18.17625  32.90299  32.90299
  39.24086  39.24086
 kpt#   7, nband= 10, wtk=  0.12500, kpt=  0.0000  0.5000  0.5000 (reduced coord)
   0.62617   0.62617   7.55305   7.55305  18.17625  18.17625  32.90299  32.90299
  39.24086  39.24086
 kpt#   8, nband= 10, wtk=  0.12500, kpt=  0.5000  0.5000  0.5000 (reduced coord)
  -2.44989  -0.06614  11.70875  11.70875  22.69800  23.02325  23.02326  30.36815
  36.91884  39.75167
 Total charge density [el/Bohr^3]
,     Maximum=    2.8766E-01  at reduced coord.    0.4667    0.2000    0.1333
,Next maximum=    2.8766E-01  at reduced coord.    0.4667    0.1333    0.2000
,     Minimum=    1.2088E-02  at reduced coord.    0.7333    0.7333    0.7333
,Next minimum=    1.2088E-02  at reduced coord.    0.7333    0.7333    0.8000
,  Integrated=    8.0000E+00

--------------------------------------------------------------------------------
 Components of total free energy (in Hartree) :

    Kinetic energy  =  8.31278643095759E+00
    Hartree energy  =  9.59212312316062E-01
    XC energy       = -4.35176965734626E+00
    Ewald energy    = -1.29199206267251E+01
    PspCore energy  =  1.99605829695050E-01
    Loc. psp. energy= -5.14256368993922E+00
    NL   psp  energy=  1.25052378320004E+00
    >>>>>>>>> Etotal= -1.16921256178419E+01

 Other information on the energy :
    Total energy(eV)= -3.18158918326435E+02 ; Band energy (Ha)=   1.5308509395E+00
--------------------------------------------------------------------------------

 Cartesian components of stress tensor (hartree/bohr^3)
  sigma(1 1)=  3.32483279E-03  sigma(3 2)=  5.05926498E-09
  sigma(2 2)=  3.32483047E-03  sigma(3 1)= -2.06972340E-08
  sigma(3 3)=  3.32483131E-03  sigma(2 1)= -2.65002807E-08

-Cartesian components of stress tensor (GPa)         [Pressure= -9.7820E+01 GPa]
- sigma(1 1)=  9.78199415E+01  sigma(3 2)=  1.48848689E-04
- sigma(2 2)=  9.78198731E+01  sigma(3 1)= -6.08933546E-04
- sigma(3 3)=  9.78198979E+01  sigma(2 1)= -7.79665046E-04

================================================================================
== DATASET 12 ==================================================================
-   nproc =    1

 mkfilename : getden/=0, take file _DEN from output of DATASET  11.

 Exchange-correlation functional for the present dataset will be:
  LDA: new Teter (4/93) with spin-polarized option - ixc=1
 Citation for XC functional:
  S. Goedecker, M. Teter, J. Huetter, PRB 54, 1703 (1996)

 Real(R)+Recip(G) space primitive vectors, cartesian coordinates (Bohr,Bohr^-1):
 R(1)=  0.0000000  3.3354992  3.3354992  G(1)= -0.1499026  0.1499026  0.1499026
 R(2)=  3.3354992  0.0000000  3.3354992  G(2)=  0.1499026 -0.1499026  0.1499026
 R(3)=  3.3354992  3.3354992  0.0000000  G(3)=  0.1499026  0.1499026 -0.1499026
 Unit cell volume ucvol=  7.4218556E+01 bohr^3
 Angles (23,13,12)=  6.00000000E+01  6.00000000E+01  6.00000000E+01 degrees

 getcut: wavevector=  0.0000  0.0000  0.0000  ngfft=  15  15  15
         ecut(hartree)=     10.000   => boxcut(ratio)=   2.09552
--------------------------------------------------------------------------------

P newkpt: treating     10 bands with npw=     113 for ikpt=   1 by node    0
P newkpt: treating     10 bands with npw=     108 for ikpt=   2 by node    0
P newkpt: treating     10 bands with npw=     108 for ikpt=   3 by node    0
P newkpt: treating     10 bands with npw=     116 for ikpt=   4 by node    0
P newkpt: treating     10 bands with npw=     108 for ikpt=   5 by node    0
P newkpt: treating     10 bands with npw=     116 for ikpt=   6 by node    0
P newkpt: treating     10 bands with npw=     116 for ikpt=   7 by node    0
P newkpt: treating     10 bands with npw=     108 for ikpt=   8 by node    0


================================================================================
 prteigrs : about to open file t60_MPI1o_DS12_EIG
 Non-SCF case, kpt    1 (  0.00000  0.00000  0.00000), residuals and eigenvalues=
  1.09E-09  4.82E-09  4.84E-09  3.93E-10  3.77E-09  1.70E-09  3.42E-09  4.12E-10
  1.84E-09  4.50E-04
 -3.1566E-01  5.2104E-01  5.2104E-01  5.2104E-01  7.5482E-01  7.5482E-01
  7.5482E-01  9.9990E-01  1.1950E+00  1.4884E+00
  prteigrs : nnsclo,ikpt=   50    1 max resid (incl. the buffer)=  4.49670E-04
 Non-SCF case, kpt    2 (  0.50000  0.00000  0.00000), residuals and eigenvalues=
  3.35E-09  1.26E-09  5.21E-09  7.26E-09  8.46E-10  3.03E-09  3.53E-10  8.80E-09
  1.59E-06  5.80E-05
 -9.0032E-02 -2.4302E-03  4.3029E-01  4.3029E-01  8.3414E-01  8.4609E-01
  8.4609E-01  1.1160E+00  1.3567E+00  1.4609E+00
  prteigrs : nnsclo,ikpt=   50    2 max resid (incl. the buffer)=  5.80138E-05
 Non-SCF case, kpt    3 (  0.00000  0.50000  0.00000), residuals and eigenvalues=
  4.83E-10  6.22E-09  1.51E-09  1.10E-09  6.91E-10  6.39E-09  2.85E-09  2.86E-09
  1.02E-05  2.30E-05
 -9.0032E-02 -2.4304E-03  4.3029E-01  4.3029E-01  8.3414E-01  8.4609E-01
  8.4609E-01  1.1160E+00  1.3567E+00  1.4609E+00
  prteigrs : nnsclo,ikpt=   50    3 max resid (incl. the buffer)=  2.29790E-05
 Non-SCF case, kpt    4 (  0.50000  0.50000  0.00000), residuals and eigenvalues=
  5.67E-09  2.20E-09  3.96E-09  2.98E-10  6.88E-09  8.24E-10  2.49E-09  7.12E-09
  4.17E-08  1.91E-08
  2.3011E-02  2.3012E-02  2.7757E-01  2.7757E-01  6.6796E-01  6.6797E-01
  1.2092E+00  1.2092E+00  1.4421E+00  1.4421E+00
  prteigrs : nnsclo,ikpt=   50    4 max resid (incl. the buffer)=  4.17357E-08
 Non-SCF case, kpt    5 (  0.00000  0.00000  0.50000), residuals and eigenvalues=
  1.53E-09  2.30E-09  9.64E-10  1.40E-09  9.72E-10  1.04E-09  2.87E-09  3.92E-10
  1.47E-07  2.67E-04
 -9.0032E-02 -2.4304E-03  4.3029E-01  4.3029E-01  8.3414E-01  8.4609E-01
  8.4609E-01  1.1160E+00  1.3567E+00  1.4611E+00
  prteigrs : nnsclo,ikpt=   50    5 max resid (incl. the buffer)=  2.66603E-04
 Non-SCF case, kpt    6 (  0.50000  0.00000  0.50000), residuals and eigenvalues=
  2.34E-10  2.10E-09  3.66E-10  1.83E-09  2.33E-09  1.41E-09  1.31E-09  3.49E-09
  2.18E-08  3.47E-08
  2.3011E-02  2.3012E-02  2.7757E-01  2.7757E-01  6.6796E-01  6.6797E-01
  1.2092E+00  1.2092E+00  1.4421E+00  1.4421E+00
  prteigrs : nnsclo,ikpt=   50    6 max resid (incl. the buffer)=  3.46699E-08
 Non-SCF case, kpt    7 (  0.00000  0.50000  0.50000), residuals and eigenvalues=
  4.54E-09  4.99E-10  1.83E-09  1.18E-09  2.99E-09  7.75E-09  2.82E-09  1.38E-09
  9.11E-09  7.36E-09
  2.3011E-02  2.3012E-02  2.7757E-01  2.7757E-01  6.6796E-01  6.6797E-01
  1.2092E+00  1.2092E+00  1.4421E+00  1.4421E+00
 Non-SCF case, kpt    8 (  0.50000  0.50000  0.50000), residuals and eigenvalues=
  6.57E-10  2.99E-09  4.06E-10  5.48E-10  9.97E-10  5.61E-09  6.46E-09  2.80E-09
  1.16E-06  9.06E-05
 -9.0032E-02 -2.4305E-03  4.3029E-01  4.3029E-01  8.3414E-01  8.4609E-01
  8.4609E-01  1.1160E+00  1.3567E+00  1.4611E+00
  prteigrs : nnsclo,ikpt=   50    8 max resid (incl. the buffer)=  9.05965E-05
================================================================================

 ----iterations are completed or convergence reached----

 Mean square residual over all n,k,spin=   1.1265E-05; max=  4.4967E-04
   0.0000  0.0000  0.0000    1  4.49670E-04 kpt; spin; max resid(k); each band:
  1.09E-09 4.82E-09 4.84E-09 3.93E-10 3.77E-09 1.70E-09 3.42E-09 4.12E-10
  1.84E-09 4.50E-04
   0.5000  0.0000  0.0000    1  5.80138E-05 kpt; spin; max resid(k); each band:
  3.35E-09 1.26E-09 5.21E-09 7.26E-09 8.46E-10 3.03E-09 3.53E-10 8.80E-09
  1.59E-06 5.80E-05
   0.0000  0.5000  0.0000    1  2.29790E-05 kpt; spin; max resid(k); each band:
  4.83E-10 6.22E-09 1.51E-09 1.10E-09 6.91E-10 6.39E-09 2.85E-09 2.86E-09
  1.02E-05 2.30E-05
   0.5000  0.5000  0.0000    1  4.17357E-08 kpt; spin; max resid(k); each band:
  5.67E-09 2.20E-09 3.96E-09 2.98E-10 6.88E-09 8.24E-10 2.49E-09 7.12E-09
  4.17E-08 1.91E-08
   0.0000  0.0000  0.5000    1  2.66603E-04 kpt; spin; max resid(k); each band:
  1.53E-09 2.30E-09 9.64E-10 1.40E-09 9.72E-10 1.04E-09 2.87E-09 3.92E-10
  1.47E-07 2.67E-04
   0.5000  0.0000  0.5000    1  3.46699E-08 kpt; spin; max resid(k); each band:
  2.34E-10 2.10E-09 3.66E-10 1.83E-09 2.33E-09 1.41E-09 1.31E-09 3.49E-09
  2.18E-08 3.47E-08
   0.0000  0.5000  0.5000    1  9.10566E-09 kpt; spin; max resid(k); each band:
  4.54E-09 4.99E-10 1.83E-09 1.18E-09 2.99E-09 7.75E-09 2.82E-09 1.38E-09
  9.11E-09 7.36E-09
   0.5000  0.5000  0.5000    1  9.05965E-05 kpt; spin; max resid(k); each band:
  6.57E-10 2.99E-09 4.06E-10 5.48E-10 9.97E-10 5.61E-09 6.46E-09 2.80E-09
  1.16E-06 9.06E-05
 reduced coordinates (array xred) for    2 atoms
       0.000000000000      0.000000000000      0.000000000000
       0.250000000000      0.250000000000      0.250000000000

 cartesian coordinates (angstrom) at end:
    1      0.00000000000000     0.00000000000000     0.00000000000000
    2      0.88253506645871     0.88253506645871     0.88253506645871
 length scales=  6.670998313100  6.670998313100  6.670998313100 bohr
              =  3.530140265835  3.530140265835  3.530140265835 angstroms
 prteigrs : about to open file t60_MPI1o_DS12_EIG
 Eigenvalues (hartree) for nkpt=   8  k points:
 kpt#   1, nband= 10, wtk=  0.12500, kpt=  0.0000  0.0000  0.0000 (reduced coord)
  -0.31566   0.52104   0.52104   0.52104   0.75482   0.75482   0.75482   0.99990
   1.19500   1.48836
 kpt#   2, nband= 10, wtk=  0.12500, kpt=  0.5000  0.0000  0.0000 (reduced coord)
  -0.09003  -0.00243   0.43029   0.43029   0.83414   0.84609   0.84609   1.11601
   1.35674   1.46089
 kpt#   3, nband= 10, wtk=  0.12500, kpt=  0.0000  0.5000  0.0000 (reduced coord)
  -0.09003  -0.00243   0.43029   0.43029   0.83414   0.84609   0.84609   1.11601
   1.35674   1.46095
 kpt#   4, nband= 10, wtk=  0.12500, kpt=  0.5000  0.5000  0.0000 (reduced coord)
   0.02301   0.02301   0.27757   0.27757   0.66796   0.66797   1.20916   1.20916
   1.44207   1.44208
 kpt#   5, nband= 10, wtk=  0.12500, kpt=  0.0000  0.0000  0.5000 (reduced coord)
  -0.09003  -0.00243   0.43029   0.43029   0.83414   0.84609   0.84609   1.11601
   1.35674   1.46108
 kpt#   6, nband= 10, wtk=  0.12500, kpt=  0.5000  0.0000  0.5000 (reduced coord)
   0.02301   0.02301   0.27757   0.27757   0.66796   0.66797   1.20916   1.20916
   1.44207   1.44208
 kpt#   7, nband= 10, wtk=  0.12500, kpt=  0.0000  0.5000  0.5000 (reduced coord)
   0.02301   0.02301   0.27757   0.27757   0.66796   0.66797   1.20916   1.20916
   1.44207   1.44208
 kpt#   8, nband= 10, wtk=  0.12500, kpt=  0.5000  0.5000  0.5000 (reduced coord)
  -0.09003  -0.00243   0.43029   0.43029   0.83414   0.84609   0.84609   1.11601
   1.35674   1.46112
 Eigenvalues (   eV  ) for nkpt=   8  k points:
 kpt#   1, nband= 10, wtk=  0.12500, kpt=  0.0000  0.0000  0.0000 (reduced coord)
  -8.58957  14.17819  14.17819  14.17819  20.53957  20.53957  20.53957  27.20859
  32.51757  40.50045
 kpt#   2, nband= 10, wtk=  0.12500, kpt=  0.5000  0.0000  0.0000 (reduced coord)
  -2.44989  -0.06613  11.70875  11.70876  22.69800  23.02325  23.02326  30.36814
  36.91887  39.75271
 kpt#   3, nband= 10, wtk=  0.12500, kpt=  0.0000  0.5000  0.0000 (reduced coord)
  -2.44989  -0.06613  11.70875  11.70876  22.69800  23.02325  23.02326  30.36814
  36.91888  39.75435
 kpt#   4, nband= 10, wtk=  0.12500, kpt=  0.5000  0.5000  0.0000 (reduced coord)
   0.62616   0.62619   7.55305   7.55305  18.17624  18.17625  32.90300  32.90300
  39.24083  39.24090
 kpt#   5, nband= 10, wtk=  0.12500, kpt=  0.0000  0.0000  0.5000 (reduced coord)
  -2.44989  -0.06613  11.70875  11.70876  22.69800  23.02325  23.02326  30.36814
  36.91884  39.75795
 kpt#   6, nband= 10, wtk=  0.12500, kpt=  0.5000  0.0000  0.5000 (reduced coord)
   0.62616   0.62619   7.55305   7.55305  18.17624  18.17625  32.90300  32.90300
  39.24083  39.24090
 kpt#   7, nband= 10, wtk=  0.12500, kpt=  0.0000  0.5000  0.5000 (reduced coord)
   0.62616   0.62619   7.55305   7.55305  18.17624  18.17625  32.90300  32.90300
  39.24083  39.24090
 kpt#   8, nband= 10, wtk=  0.12500, kpt=  0.5000  0.5000  0.5000 (reduced coord)
  -2.44989  -0.06614  11.70875  11.70876  22.69800  23.02325  23.02326  30.36815
  36.91885  39.75917
 Total charge density [el/Bohr^3]
,     Maximum=    2.8766E-01  at reduced coord.    0.4667    0.2000    0.1333
,Next maximum=    2.8766E-01  at reduced coord.    0.4667    0.1333    0.2000
,     Minimum=    1.2088E-02  at reduced coord.    0.7333    0.7333    0.7333
,Next minimum=    1.2088E-02  at reduced coord.    0.7333    0.7333    0.8000
,  Integrated=    8.0000E+00

================================================================================
== DATASET 13 ==================================================================
-   nproc =    1

 mkfilename : getwfk/=0, take file _WFK from output of DATASET  11.

 mkfilename : getwfq/=0, take file _WFQ from output of DATASET  12.

 Exchange-correlation functional for the present dataset will be:
  LDA: new Teter (4/93) with spin-polarized option - ixc=1
 Citation for XC functional:
  S. Goedecker, M. Teter, J. Huetter, PRB 54, 1703 (1996)

 Real(R)+Recip(G) space primitive vectors, cartesian coordinates (Bohr,Bohr^-1):
 R(1)=  0.0000000  3.3354992  3.3354992  G(1)= -0.1499026  0.1499026  0.1499026
 R(2)=  3.3354992  0.0000000  3.3354992  G(2)=  0.1499026 -0.1499026  0.1499026
 R(3)=  3.3354992  3.3354992  0.0000000  G(3)=  0.1499026  0.1499026 -0.1499026
 Unit cell volume ucvol=  7.4218556E+01 bohr^3
 Angles (23,13,12)=  6.00000000E+01  6.00000000E+01  6.00000000E+01 degrees
 setup1 : take into account q-point for computing boxcut.

 getcut: wavevector=  0.0000  0.0000  0.0000  ngfft=  15  15  15
         ecut(hartree)=     10.000   => boxcut(ratio)=   2.09552
--------------------------------------------------------------------------------

-inwffil : will read wavefunctions from disk file t60_MPI1o_DS11_WFK
P newkpt: treating     10 bands with npw=     113 for ikpt=   1 by node    0
P newkpt: treating     10 bands with npw=     108 for ikpt=   2 by node    0
P newkpt: treating     10 bands with npw=     108 for ikpt=   3 by node    0
P newkpt: treating     10 bands with npw=     116 for ikpt=   4 by node    0
P newkpt: treating     10 bands with npw=     108 for ikpt=   5 by node    0
P newkpt: treating     10 bands with npw=     116 for ikpt=   6 by node    0
P newkpt: treating     10 bands with npw=     116 for ikpt=   7 by node    0
P newkpt: treating     10 bands with npw=     108 for ikpt=   8 by node    0


 ==>  initialize data related to q vector <== 

 The list of irreducible perturbations for this q vector is:
    1)    idir= 1    ipert=   1
    2)    idir= 2    ipert=   1
    3)    idir= 3    ipert=   1
    4)    idir= 1    ipert=   2
    5)    idir= 2    ipert=   2
    6)    idir= 3    ipert=   2

================================================================================

--------------------------------------------------------------------------------
 Perturbation wavevector (in red.coord.)   0.000000  0.000000  0.000000
 Perturbation : displacement of atom   1   along direction   1
 The set of symmetries contains only one element for this perturbation.
 symkpt : not enough symmetry to change the number of k points.

--------------------------------------------------------------------------------

-inwffil : will read wavefunctions from disk file t60_MPI1o_DS11_WFK
P newkpt: treating     10 bands with npw=     113 for ikpt=   1 by node    0
P newkpt: treating     10 bands with npw=     108 for ikpt=   2 by node    0
P newkpt: treating     10 bands with npw=     108 for ikpt=   3 by node    0
P newkpt: treating     10 bands with npw=     116 for ikpt=   4 by node    0
P newkpt: treating     10 bands with npw=     108 for ikpt=   5 by node    0
P newkpt: treating     10 bands with npw=     116 for ikpt=   6 by node    0
P newkpt: treating     10 bands with npw=     116 for ikpt=   7 by node    0
P newkpt: treating     10 bands with npw=     108 for ikpt=   8 by node    0

--------------------------------------------------------------------------------

-inwffil : will read wavefunctions from disk file t60_MPI1o_DS12_WFQ
P newkpt: treating     10 bands with npw=     113 for ikpt=   1 by node    0
P newkpt: treating     10 bands with npw=     108 for ikpt=   2 by node    0
P newkpt: treating     10 bands with npw=     108 for ikpt=   3 by node    0
P newkpt: treating     10 bands with npw=     116 for ikpt=   4 by node    0
P newkpt: treating     10 bands with npw=     108 for ikpt=   5 by node    0
P newkpt: treating     10 bands with npw=     116 for ikpt=   6 by node    0
P newkpt: treating     10 bands with npw=     116 for ikpt=   7 by node    0
P newkpt: treating     10 bands with npw=     108 for ikpt=   8 by node    0

 Initialisation of the first-order wave-functions :
  ireadwf=   0
P newkpt: treating     10 bands with npw=     113 for ikpt=   1 by node    0
P newkpt: treating     10 bands with npw=     108 for ikpt=   2 by node    0
P newkpt: treating     10 bands with npw=     108 for ikpt=   3 by node    0
P newkpt: treating     10 bands with npw=     116 for ikpt=   4 by node    0
P newkpt: treating     10 bands with npw=     108 for ikpt=   5 by node    0
P newkpt: treating     10 bands with npw=     116 for ikpt=   6 by node    0
P newkpt: treating     10 bands with npw=     116 for ikpt=   7 by node    0
P newkpt: treating     10 bands with npw=     108 for ikpt=   8 by node    0


     iter   2DEtotal(Ha)        deltaE(Ha) residm    vres2
-ETOT  1   25.960304810672     -1.786E+02 1.421E-01 3.975E+03
 ETOT  2   17.920710748259     -8.040E+00 5.220E-03 9.756E+01
 ETOT  3   17.655853205013     -2.649E-01 1.324E-04 6.947E-01
 ETOT  4   17.654203769326     -1.649E-03 5.225E-07 3.821E-03
 ETOT  5   17.654199141283     -4.628E-06 9.983E-09 2.224E-04

 At SCF step    5   max residual=  9.98E-09 < tolwfr=  1.00E-08 =>converged.
================================================================================

 ----iterations are completed or convergence reached----

 Mean square residual over all n,k,spin=  -2.0000E-02; max=  9.9829E-09
   0.0000  0.0000  0.0000    1  5.42184E-09 kpt; spin; max resid(k); each band:
  5.42E-09 6.19E-10 2.33E-10 5.63E-10 1.00E-09 3.28E-09 5.54E-10 7.61E-10
 -1.00E-01-1.00E-01
   0.5000  0.0000  0.0000    1  6.90876E-09 kpt; spin; max resid(k); each band:
  4.54E-09 4.93E-10 7.62E-10 6.74E-10 6.91E-09 4.47E-09 2.20E-09 4.34E-09
 -1.00E-01-1.00E-01
   0.0000  0.5000  0.0000    1  9.98295E-09 kpt; spin; max resid(k); each band:
  8.19E-09 8.61E-10 9.26E-10 4.79E-10 2.91E-10 4.99E-09 5.13E-09 9.98E-09
 -1.00E-01-1.00E-01
   0.5000  0.5000  0.0000    1  9.53301E-09 kpt; spin; max resid(k); each band:
  7.36E-09 9.53E-09 5.34E-10 5.26E-10 2.43E-10 3.99E-10 7.05E-09 2.84E-09
 -1.00E-01-1.00E-01
   0.0000  0.0000  0.5000    1  8.21471E-09 kpt; spin; max resid(k); each band:
  8.21E-09 8.54E-10 9.21E-10 4.84E-10 2.86E-10 4.95E-09 5.07E-09 1.05E-09
 -1.00E-01-1.00E-01
   0.5000  0.0000  0.5000    1  8.99754E-09 kpt; spin; max resid(k); each band:
  7.90E-09 9.00E-09 5.35E-10 5.24E-10 2.66E-10 3.79E-10 7.74E-09 2.73E-09
 -1.00E-01-1.00E-01
   0.0000  0.5000  0.5000    1  9.51593E-09 kpt; spin; max resid(k); each band:
  9.52E-09 9.42E-09 3.31E-10 4.02E-10 2.02E-10 6.13E-10 6.55E-09 2.73E-09
 -1.00E-01-1.00E-01
   0.5000  0.5000  0.5000    1  5.00359E-09 kpt; spin; max resid(k); each band:
  3.41E-09 4.83E-10 8.11E-10 6.10E-10 1.73E-10 2.46E-09 4.18E-09 5.00E-09
 -1.00E-01-1.00E-01

 Thirteen components of 2nd-order total energy (hartree) are
 1,2,3: 0th-order hamiltonian combined with 1st-order wavefunctions
     kin0=   2.09708953E+02 eigvalue=  -1.62254604E+01  local=  -8.82034931E+01
 4,5,6: 1st-order hamiltonian combined with 1st and 0th-order wfs
 loc psp =  -1.02476794E+02  Hartree=   2.32980242E+01     xc=  -8.65009762E+00
 note that "loc psp" includes a xc core correction that could be resolved
 7,8,9: eventually, occupation + non-local contributions
    edocc=   1.54721490E+01     enl0=   5.15443858E+01   enl1=  -2.71411804E+02
 1-9 gives the relaxation energy (to be shifted if some occ is /=2.0)
   erelax=  -1.86944138E+02
 10,11,12 Non-relaxation  contributions : frozen-wavefunctions and Ewald
 fr.local=   3.35599239E+01 fr.nonlo=   1.52999597E+02  Ewald=   2.00931375E+01
 13,14 Frozen wf xc core corrections (1) and (2)
 frxc 1  =  -1.12473455E+01  frxc 2 =   9.19302446E+00
 Resulting in :
 2DEtotal=    0.1765419914E+02 Ha. Also 2DEtotal=    0.480395189574E+03 eV
    (2DErelax=   -1.8694413791E+02 Ha. 2DEnonrelax=    2.0459833705E+02 Ha)
    (  non-var. 2DEtotal :    1.7654037908E+01 Ha)


--------------------------------------------------------------------------------
 Perturbation wavevector (in red.coord.)   0.000000  0.000000  0.000000
 Perturbation : displacement of atom   1   along direction   2
 The set of symmetries contains only one element for this perturbation.
 symkpt : not enough symmetry to change the number of k points.

--------------------------------------------------------------------------------

-inwffil : will read wavefunctions from disk file t60_MPI1o_DS11_WFK
P newkpt: treating     10 bands with npw=     113 for ikpt=   1 by node    0
P newkpt: treating     10 bands with npw=     108 for ikpt=   2 by node    0
P newkpt: treating     10 bands with npw=     108 for ikpt=   3 by node    0
P newkpt: treating     10 bands with npw=     116 for ikpt=   4 by node    0
P newkpt: treating     10 bands with npw=     108 for ikpt=   5 by node    0
P newkpt: treating     10 bands with npw=     116 for ikpt=   6 by node    0
P newkpt: treating     10 bands with npw=     116 for ikpt=   7 by node    0
P newkpt: treating     10 bands with npw=     108 for ikpt=   8 by node    0

--------------------------------------------------------------------------------

-inwffil : will read wavefunctions from disk file t60_MPI1o_DS12_WFQ
P newkpt: treating     10 bands with npw=     113 for ikpt=   1 by node    0
P newkpt: treating     10 bands with npw=     108 for ikpt=   2 by node    0
P newkpt: treating     10 bands with npw=     108 for ikpt=   3 by node    0
P newkpt: treating     10 bands with npw=     116 for ikpt=   4 by node    0
P newkpt: treating     10 bands with npw=     108 for ikpt=   5 by node    0
P newkpt: treating     10 bands with npw=     116 for ikpt=   6 by node    0
P newkpt: treating     10 bands with npw=     116 for ikpt=   7 by node    0
P newkpt: treating     10 bands with npw=     108 for ikpt=   8 by node    0

 Initialisation of the first-order wave-functions :
  ireadwf=   0
P newkpt: treating     10 bands with npw=     113 for ikpt=   1 by node    0
P newkpt: treating     10 bands with npw=     108 for ikpt=   2 by node    0
P newkpt: treating     10 bands with npw=     108 for ikpt=   3 by node    0
P newkpt: treating     10 bands with npw=     116 for ikpt=   4 by node    0
P newkpt: treating     10 bands with npw=     108 for ikpt=   5 by node    0
P newkpt: treating     10 bands with npw=     116 for ikpt=   6 by node    0
P newkpt: treating     10 bands with npw=     116 for ikpt=   7 by node    0
P newkpt: treating     10 bands with npw=     108 for ikpt=   8 by node    0


     iter   2DEtotal(Ha)        deltaE(Ha) residm    vres2
-ETOT  1   25.953422937434     -1.786E+02 2.994E-01 3.974E+03
 ETOT  2   17.917399756160     -8.036E+00 6.773E-03 9.750E+01
 ETOT  3   17.652684834842     -2.647E-01 1.447E-04 6.970E-01
 ETOT  4   17.651031298771     -1.654E-03 8.421E-07 4.883E-03
 ETOT  5   17.651026791879     -4.507E-06 9.348E-09 1.313E-03

 At SCF step    5   max residual=  9.35E-09 < tolwfr=  1.00E-08 =>converged.
================================================================================

 ----iterations are completed or convergence reached----

 Mean square residual over all n,k,spin=  -2.0000E-02; max=  9.3475E-09
   0.0000  0.0000  0.0000    1  5.97175E-09 kpt; spin; max resid(k); each band:
  5.97E-09 9.03E-10 6.67E-10 5.55E-10 1.74E-09 2.03E-09 2.05E-09 1.11E-09
 -1.00E-01-1.00E-01
   0.5000  0.0000  0.0000    1  9.30967E-09 kpt; spin; max resid(k); each band:
  9.31E-09 8.67E-10 2.06E-09 1.49E-09 3.80E-10 5.08E-09 5.13E-09 1.08E-09
 -1.00E-01-1.00E-01
   0.0000  0.5000  0.0000    1  8.52312E-09 kpt; spin; max resid(k); each band:
  6.68E-09 5.03E-10 2.03E-09 1.79E-09 8.52E-09 3.97E-09 1.89E-09 4.46E-09
 -1.00E-01-1.00E-01
   0.5000  0.5000  0.0000    1  8.94202E-09 kpt; spin; max resid(k); each band:
  8.94E-09 2.21E-10 5.75E-10 5.27E-10 2.67E-10 4.87E-10 3.26E-09 2.79E-09
 -1.00E-01-1.00E-01
   0.0000  0.0000  0.5000    1  9.34753E-09 kpt; spin; max resid(k); each band:
  9.35E-09 8.59E-10 2.06E-09 1.50E-09 3.76E-10 5.08E-09 4.98E-09 1.07E-09
 -1.00E-01-1.00E-01
   0.5000  0.0000  0.5000    1  6.81639E-09 kpt; spin; max resid(k); each band:
  2.01E-10 6.82E-09 3.40E-10 4.41E-10 2.36E-10 6.73E-10 3.48E-09 2.48E-09
 -1.00E-01-1.00E-01
   0.0000  0.5000  0.5000    1  7.62458E-09 kpt; spin; max resid(k); each band:
  7.62E-09 2.39E-10 5.74E-10 5.27E-10 2.36E-10 5.17E-10 3.25E-09 2.83E-09
 -1.00E-01-1.00E-01
   0.5000  0.5000  0.5000    1  4.79498E-09 kpt; spin; max resid(k); each band:
  3.61E-09 4.73E-10 1.80E-09 2.14E-09 1.87E-10 3.71E-09 2.18E-09 4.79E-09
 -1.00E-01-1.00E-01

 Thirteen components of 2nd-order total energy (hartree) are
 1,2,3: 0th-order hamiltonian combined with 1st-order wavefunctions
     kin0=   2.07543038E+02 eigvalue=  -1.57082656E+01  local=  -8.74743645E+01
 4,5,6: 1st-order hamiltonian combined with 1st and 0th-order wfs
 loc psp =  -1.02465724E+02  Hartree=   2.32974748E+01     xc=  -8.65013878E+00
 note that "loc psp" includes a xc core correction that could be resolved
 7,8,9: eventually, occupation + non-local contributions
    edocc=   1.64366860E+01     enl0=   5.15034321E+01   enl1=  -2.71429661E+02
 1-9 gives the relaxation energy (to be shifted if some occ is /=2.0)
   erelax=  -1.86947523E+02
 10,11,12 Non-relaxation  contributions : frozen-wavefunctions and Ewald
 fr.local=   3.35599774E+01 fr.nonlo=   1.52999758E+02  Ewald=   2.00931375E+01
 13,14 Frozen wf xc core corrections (1) and (2)
 frxc 1  =  -1.12473446E+01  frxc 2 =   9.19302166E+00
 Resulting in :
 2DEtotal=    0.1765102679E+02 Ha. Also 2DEtotal=    0.480308865557E+03 eV
    (2DErelax=   -1.8694752303E+02 Ha. 2DEnonrelax=    2.0459854982E+02 Ha)
    (  non-var. 2DEtotal :    1.7650857188E+01 Ha)


--------------------------------------------------------------------------------
 Perturbation wavevector (in red.coord.)   0.000000  0.000000  0.000000
 Perturbation : displacement of atom   1   along direction   3
 The set of symmetries contains only one element for this perturbation.
 symkpt : not enough symmetry to change the number of k points.

--------------------------------------------------------------------------------

-inwffil : will read wavefunctions from disk file t60_MPI1o_DS11_WFK
P newkpt: treating     10 bands with npw=     113 for ikpt=   1 by node    0
P newkpt: treating     10 bands with npw=     108 for ikpt=   2 by node    0
P newkpt: treating     10 bands with npw=     108 for ikpt=   3 by node    0
P newkpt: treating     10 bands with npw=     116 for ikpt=   4 by node    0
P newkpt: treating     10 bands with npw=     108 for ikpt=   5 by node    0
P newkpt: treating     10 bands with npw=     116 for ikpt=   6 by node    0
P newkpt: treating     10 bands with npw=     116 for ikpt=   7 by node    0
P newkpt: treating     10 bands with npw=     108 for ikpt=   8 by node    0

--------------------------------------------------------------------------------

-inwffil : will read wavefunctions from disk file t60_MPI1o_DS12_WFQ
P newkpt: treating     10 bands with npw=     113 for ikpt=   1 by node    0
P newkpt: treating     10 bands with npw=     108 for ikpt=   2 by node    0
P newkpt: treating     10 bands with npw=     108 for ikpt=   3 by node    0
P newkpt: treating     10 bands with npw=     116 for ikpt=   4 by node    0
P newkpt: treating     10 bands with npw=     108 for ikpt=   5 by node    0
P newkpt: treating     10 bands with npw=     116 for ikpt=   6 by node    0
P newkpt: treating     10 bands with npw=     116 for ikpt=   7 by node    0
P newkpt: treating     10 bands with npw=     108 for ikpt=   8 by node    0

 Initialisation of the first-order wave-functions :
  ireadwf=   0
P newkpt: treating     10 bands with npw=     113 for ikpt=   1 by node    0
P newkpt: treating     10 bands with npw=     108 for ikpt=   2 by node    0
P newkpt: treating     10 bands with npw=     108 for ikpt=   3 by node    0
P newkpt: treating     10 bands with npw=     116 for ikpt=   4 by node    0
P newkpt: treating     10 bands with npw=     108 for ikpt=   5 by node    0
P newkpt: treating     10 bands with npw=     116 for ikpt=   6 by node    0
P newkpt: treating     10 bands with npw=     116 for ikpt=   7 by node    0
P newkpt: treating     10 bands with npw=     108 for ikpt=   8 by node    0


     iter   2DEtotal(Ha)        deltaE(Ha) residm    vres2
-ETOT  1   25.947254514418     -1.787E+02 3.935E-01 3.974E+03
 ETOT  2   17.913497955637     -8.034E+00 7.111E-03 9.728E+01
 ETOT  3   17.649409195182     -2.641E-01 1.610E-04 6.962E-01
 ETOT  4   17.647760595487     -1.649E-03 9.130E-07 5.411E-03
 ETOT  5   17.647756031641     -4.564E-06 9.921E-09 1.832E-03

 At SCF step    5   max residual=  9.92E-09 < tolwfr=  1.00E-08 =>converged.
================================================================================

 ----iterations are completed or convergence reached----

 Mean square residual over all n,k,spin=  -2.0000E-02; max=  9.9207E-09
   0.0000  0.0000  0.0000    1  6.17124E-09 kpt; spin; max resid(k); each band:
  6.17E-09 9.75E-10 7.04E-10 6.86E-10 1.65E-09 2.44E-09 1.90E-09 1.24E-09
 -1.00E-01-1.00E-01
   0.5000  0.0000  0.0000    1  9.89690E-09 kpt; spin; max resid(k); each band:
  9.90E-09 8.48E-10 2.27E-09 1.76E-09 3.95E-10 4.93E-09 4.94E-09 1.09E-09
 -1.00E-01-1.00E-01
   0.0000  0.5000  0.0000    1  9.92071E-09 kpt; spin; max resid(k); each band:
  9.92E-09 8.42E-10 2.34E-09 1.67E-09 3.95E-10 4.95E-09 4.71E-09 1.09E-09
 -1.00E-01-1.00E-01
   0.5000  0.5000  0.0000    1  8.23760E-09 kpt; spin; max resid(k); each band:
  2.25E-10 8.24E-09 3.60E-10 4.56E-10 2.62E-10 7.02E-10 4.43E-09 3.03E-09
 -1.00E-01-1.00E-01
   0.0000  0.0000  0.5000    1  9.55992E-09 kpt; spin; max resid(k); each band:
  7.53E-09 4.98E-10 2.36E-09 2.04E-09 9.56E-09 3.67E-09 2.00E-09 4.31E-09
 -1.00E-01-1.00E-01
   0.5000  0.0000  0.5000    1  9.86028E-09 kpt; spin; max resid(k); each band:
  2.22E-10 9.86E-09 5.85E-10 5.34E-10 3.03E-10 5.04E-10 3.85E-09 3.54E-09
 -1.00E-01-1.00E-01
   0.0000  0.5000  0.5000    1  8.19659E-09 kpt; spin; max resid(k); each band:
  8.20E-09 2.44E-10 5.75E-10 5.42E-10 2.56E-10 5.48E-10 3.92E-09 3.34E-09
 -1.00E-01-1.00E-01
   0.5000  0.5000  0.5000    1  7.33256E-09 kpt; spin; max resid(k); each band:
  3.55E-09 5.46E-10 2.35E-09 2.33E-09 1.98E-10 3.11E-09 3.20E-09 7.33E-09
 -1.00E-01-1.00E-01

 Thirteen components of 2nd-order total energy (hartree) are
 1,2,3: 0th-order hamiltonian combined with 1st-order wavefunctions
     kin0=   2.07717275E+02 eigvalue=  -1.57461064E+01  local=  -8.74397285E+01
 4,5,6: 1st-order hamiltonian combined with 1st and 0th-order wfs
 loc psp =  -1.02460272E+02  Hartree=   2.32976170E+01     xc=  -8.65025900E+00
 note that "loc psp" includes a xc core correction that could be resolved
 7,8,9: eventually, occupation + non-local contributions
    edocc=   1.63847067E+01     enl0=   5.13877794E+01   enl1=  -2.71441880E+02
 1-9 gives the relaxation energy (to be shifted if some occ is /=2.0)
   erelax=  -1.86950869E+02
 10,11,12 Non-relaxation  contributions : frozen-wavefunctions and Ewald
 fr.local=   3.35599879E+01 fr.nonlo=   1.52999823E+02  Ewald=   2.00931375E+01
 13,14 Frozen wf xc core corrections (1) and (2)
 frxc 1  =  -1.12473443E+01  frxc 2 =   9.19302052E+00
 Resulting in :
 2DEtotal=    0.1764775603E+02 Ha. Also 2DEtotal=    0.480219863645E+03 eV
    (2DErelax=   -1.8695086860E+02 Ha. 2DEnonrelax=    2.0459862463E+02 Ha)
    (  non-var. 2DEtotal :    1.7647548431E+01 Ha)


--------------------------------------------------------------------------------
 Perturbation wavevector (in red.coord.)   0.000000  0.000000  0.000000
 Perturbation : displacement of atom   2   along direction   1
 The set of symmetries contains only one element for this perturbation.
 symkpt : not enough symmetry to change the number of k points.

--------------------------------------------------------------------------------

-inwffil : will read wavefunctions from disk file t60_MPI1o_DS11_WFK
P newkpt: treating     10 bands with npw=     113 for ikpt=   1 by node    0
P newkpt: treating     10 bands with npw=     108 for ikpt=   2 by node    0
P newkpt: treating     10 bands with npw=     108 for ikpt=   3 by node    0
P newkpt: treating     10 bands with npw=     116 for ikpt=   4 by node    0
P newkpt: treating     10 bands with npw=     108 for ikpt=   5 by node    0
P newkpt: treating     10 bands with npw=     116 for ikpt=   6 by node    0
P newkpt: treating     10 bands with npw=     116 for ikpt=   7 by node    0
P newkpt: treating     10 bands with npw=     108 for ikpt=   8 by node    0

--------------------------------------------------------------------------------

-inwffil : will read wavefunctions from disk file t60_MPI1o_DS12_WFQ
P newkpt: treating     10 bands with npw=     113 for ikpt=   1 by node    0
P newkpt: treating     10 bands with npw=     108 for ikpt=   2 by node    0
P newkpt: treating     10 bands with npw=     108 for ikpt=   3 by node    0
P newkpt: treating     10 bands with npw=     116 for ikpt=   4 by node    0
P newkpt: treating     10 bands with npw=     108 for ikpt=   5 by node    0
P newkpt: treating     10 bands with npw=     116 for ikpt=   6 by node    0
P newkpt: treating     10 bands with npw=     116 for ikpt=   7 by node    0
P newkpt: treating     10 bands with npw=     108 for ikpt=   8 by node    0

 Initialisation of the first-order wave-functions :
  ireadwf=   0
P newkpt: treating     10 bands with npw=     113 for ikpt=   1 by node    0
P newkpt: treating     10 bands with npw=     108 for ikpt=   2 by node    0
P newkpt: treating     10 bands with npw=     108 for ikpt=   3 by node    0
P newkpt: treating     10 bands with npw=     116 for ikpt=   4 by node    0
P newkpt: treating     10 bands with npw=     108 for ikpt=   5 by node    0
P newkpt: treating     10 bands with npw=     116 for ikpt=   6 by node    0
P newkpt: treating     10 bands with npw=     116 for ikpt=   7 by node    0
P newkpt: treating     10 bands with npw=     108 for ikpt=   8 by node    0


     iter   2DEtotal(Ha)        deltaE(Ha) residm    vres2
-ETOT  1   25.950658435706     -1.786E+02 1.371E-01 3.974E+03
 ETOT  2   17.915541775556     -8.035E+00 5.220E-03 9.751E+01
 ETOT  3   17.650780684385     -2.648E-01 1.339E-04 6.959E-01
 ETOT  4   17.649128231700     -1.652E-03 5.021E-07 3.822E-03
 ETOT  5   17.649123602007     -4.630E-06 9.771E-09 2.195E-04

 At SCF step    5   max residual=  9.77E-09 < tolwfr=  1.00E-08 =>converged.
================================================================================

 ----iterations are completed or convergence reached----

 Mean square residual over all n,k,spin=  -2.0000E-02; max=  9.7713E-09
   0.0000  0.0000  0.0000    1  5.41035E-09 kpt; spin; max resid(k); each band:
  5.41E-09 6.18E-10 2.31E-10 5.63E-10 1.01E-09 3.28E-09 5.80E-10 7.61E-10
 -1.00E-01-1.00E-01
   0.5000  0.0000  0.0000    1  9.51345E-09 kpt; spin; max resid(k); each band:
  4.44E-09 4.77E-10 7.40E-10 6.68E-10 6.81E-09 4.51E-09 2.29E-09 9.51E-09
 -1.00E-01-1.00E-01
   0.0000  0.5000  0.0000    1  8.17800E-09 kpt; spin; max resid(k); each band:
  8.18E-09 8.23E-10 8.92E-10 4.45E-10 2.70E-10 4.74E-09 5.25E-09 1.06E-09
 -1.00E-01-1.00E-01
   0.5000  0.5000  0.0000    1  9.77131E-09 kpt; spin; max resid(k); each band:
  9.77E-09 6.76E-09 5.43E-10 5.19E-10 3.63E-10 2.85E-10 8.83E-09 2.72E-09
 -1.00E-01-1.00E-01
   0.0000  0.0000  0.5000    1  8.21273E-09 kpt; spin; max resid(k); each band:
  8.21E-09 8.32E-10 8.90E-10 4.66E-10 2.74E-10 4.87E-09 5.30E-09 1.05E-09
 -1.00E-01-1.00E-01
   0.5000  0.0000  0.5000    1  9.38207E-09 kpt; spin; max resid(k); each band:
  9.38E-09 7.27E-09 5.40E-10 5.20E-10 3.38E-10 3.11E-10 8.82E-09 2.64E-09
 -1.00E-01-1.00E-01
   0.0000  0.5000  0.5000    1  6.53629E-09 kpt; spin; max resid(k); each band:
  2.54E-10 4.35E-09 3.28E-10 4.03E-10 3.89E-10 4.18E-10 6.54E-09 2.75E-09
 -1.00E-01-1.00E-01
   0.5000  0.5000  0.5000    1  9.93793E-09 kpt; spin; max resid(k); each band:
  3.23E-09 4.95E-10 7.89E-10 6.53E-10 9.94E-09 2.53E-09 4.39E-09 8.94E-09
 -1.00E-01-1.00E-01

 Thirteen components of 2nd-order total energy (hartree) are
 1,2,3: 0th-order hamiltonian combined with 1st-order wavefunctions
     kin0=   2.09652992E+02 eigvalue=  -1.62098274E+01  local=  -8.81175650E+01
 4,5,6: 1st-order hamiltonian combined with 1st and 0th-order wfs
 loc psp =  -1.02457132E+02  Hartree=   2.32964881E+01     xc=  -8.64973402E+00
 note that "loc psp" includes a xc core correction that could be resolved
 7,8,9: eventually, occupation + non-local contributions
    edocc=   1.55201522E+01     enl0=   5.14552152E+01   enl1=  -2.71438006E+02
 1-9 gives the relaxation energy (to be shifted if some occ is /=2.0)
   erelax=  -1.86947417E+02
 10,11,12 Non-relaxation  contributions : frozen-wavefunctions and Ewald
 fr.local=   3.35586249E+01 fr.nonlo=   1.52997747E+02  Ewald=   2.00931375E+01
 13,14 Frozen wf xc core corrections (1) and (2)
 frxc 1  =  -1.12462267E+01  frxc 2 =   9.19325775E+00
 Resulting in :
 2DEtotal=    0.1764912360E+02 Ha. Also 2DEtotal=    0.480257077127E+03 eV
    (2DErelax=   -1.8694741676E+02 Ha. 2DEnonrelax=    2.0459654037E+02 Ha)
    (  non-var. 2DEtotal :    1.7648971353E+01 Ha)


--------------------------------------------------------------------------------
 Perturbation wavevector (in red.coord.)   0.000000  0.000000  0.000000
 Perturbation : displacement of atom   2   along direction   2
 The set of symmetries contains only one element for this perturbation.
 symkpt : not enough symmetry to change the number of k points.

--------------------------------------------------------------------------------

-inwffil : will read wavefunctions from disk file t60_MPI1o_DS11_WFK
P newkpt: treating     10 bands with npw=     113 for ikpt=   1 by node    0
P newkpt: treating     10 bands with npw=     108 for ikpt=   2 by node    0
P newkpt: treating     10 bands with npw=     108 for ikpt=   3 by node    0
P newkpt: treating     10 bands with npw=     116 for ikpt=   4 by node    0
P newkpt: treating     10 bands with npw=     108 for ikpt=   5 by node    0
P newkpt: treating     10 bands with npw=     116 for ikpt=   6 by node    0
P newkpt: treating     10 bands with npw=     116 for ikpt=   7 by node    0
P newkpt: treating     10 bands with npw=     108 for ikpt=   8 by node    0

--------------------------------------------------------------------------------

-inwffil : will read wavefunctions from disk file t60_MPI1o_DS12_WFQ
P newkpt: treating     10 bands with npw=     113 for ikpt=   1 by node    0
P newkpt: treating     10 bands with npw=     108 for ikpt=   2 by node    0
P newkpt: treating     10 bands with npw=     108 for ikpt=   3 by node    0
P newkpt: treating     10 bands with npw=     116 for ikpt=   4 by node    0
P newkpt: treating     10 bands with npw=     108 for ikpt=   5 by node    0
P newkpt: treating     10 bands with npw=     116 for ikpt=   6 by node    0
P newkpt: treating     10 bands with npw=     116 for ikpt=   7 by node    0
P newkpt: treating     10 bands with npw=     108 for ikpt=   8 by node    0

 Initialisation of the first-order wave-functions :
  ireadwf=   0
P newkpt: treating     10 bands with npw=     113 for ikpt=   1 by node    0
P newkpt: treating     10 bands with npw=     108 for ikpt=   2 by node    0
P newkpt: treating     10 bands with npw=     108 for ikpt=   3 by node    0
P newkpt: treating     10 bands with npw=     116 for ikpt=   4 by node    0
P newkpt: treating     10 bands with npw=     108 for ikpt=   5 by node    0
P newkpt: treating     10 bands with npw=     116 for ikpt=   6 by node    0
P newkpt: treating     10 bands with npw=     116 for ikpt=   7 by node    0
P newkpt: treating     10 bands with npw=     108 for ikpt=   8 by node    0


     iter   2DEtotal(Ha)        deltaE(Ha) residm    vres2
-ETOT  1   25.949929952827     -1.786E+02 2.994E-01 3.974E+03
 ETOT  2   17.914280820170     -8.036E+00 6.773E-03 9.750E+01
 ETOT  3   17.649568750799     -2.647E-01 1.448E-04 6.968E-01
 ETOT  4   17.647915236101     -1.654E-03 8.408E-07 4.735E-03
 ETOT  5   17.647910723998     -4.512E-06 9.215E-09 1.163E-03

 At SCF step    5   max residual=  9.22E-09 < tolwfr=  1.00E-08 =>converged.
================================================================================

 ----iterations are completed or convergence reached----

 Mean square residual over all n,k,spin=  -2.0000E-02; max=  9.2154E-09
   0.0000  0.0000  0.0000    1  5.89394E-09 kpt; spin; max resid(k); each band:
  5.89E-09 8.75E-10 6.51E-10 5.27E-10 1.75E-09 2.02E-09 2.05E-09 1.07E-09
 -1.00E-01-1.00E-01
   0.5000  0.0000  0.0000    1  9.17781E-09 kpt; spin; max resid(k); each band:
  9.18E-09 8.18E-10 1.94E-09 1.42E-09 3.42E-10 4.99E-09 5.21E-09 1.07E-09
 -1.00E-01-1.00E-01
   0.0000  0.5000  0.0000    1  9.21536E-09 kpt; spin; max resid(k); each band:
  6.27E-09 4.56E-10 1.90E-09 1.70E-09 7.99E-09 4.01E-09 2.07E-09 9.22E-09
 -1.00E-01-1.00E-01
   0.5000  0.5000  0.0000    1  8.37314E-09 kpt; spin; max resid(k); each band:
  2.45E-10 7.13E-09 5.59E-10 5.36E-10 3.86E-10 3.63E-10 3.15E-09 8.37E-09
 -1.00E-01-1.00E-01
   0.0000  0.0000  0.5000    1  9.20986E-09 kpt; spin; max resid(k); each band:
  9.21E-09 8.24E-10 1.93E-09 1.43E-09 3.45E-10 5.05E-09 5.35E-09 1.07E-09
 -1.00E-01-1.00E-01
   0.5000  0.0000  0.5000    1  4.45213E-09 kpt; spin; max resid(k); each band:
  2.05E-10 4.45E-09 3.39E-10 4.36E-10 2.85E-10 6.05E-10 3.13E-09 2.31E-09
 -1.00E-01-1.00E-01
   0.0000  0.5000  0.5000    1  8.39574E-09 kpt; spin; max resid(k); each band:
  2.52E-10 6.47E-09 5.60E-10 5.35E-10 4.53E-10 2.98E-10 3.15E-09 8.40E-09
 -1.00E-01-1.00E-01
   0.5000  0.5000  0.5000    1  8.77463E-09 kpt; spin; max resid(k); each band:
  3.38E-09 5.13E-10 1.74E-09 2.02E-09 1.88E-10 3.93E-09 2.26E-09 8.77E-09
 -1.00E-01-1.00E-01

 Thirteen components of 2nd-order total energy (hartree) are
 1,2,3: 0th-order hamiltonian combined with 1st-order wavefunctions
     kin0=   2.07627183E+02 eigvalue=  -1.57240683E+01  local=  -8.74958032E+01
 4,5,6: 1st-order hamiltonian combined with 1st and 0th-order wfs
 loc psp =  -1.02456950E+02  Hartree=   2.32968858E+01     xc=  -8.64986479E+00
 note that "loc psp" includes a xc core correction that could be resolved
 7,8,9: eventually, occupation + non-local contributions
    edocc=   1.64175203E+01     enl0=   5.14769583E+01   enl1=  -2.71440325E+02
 1-9 gives the relaxation energy (to be shifted if some occ is /=2.0)
   erelax=  -1.86948464E+02
 10,11,12 Non-relaxation  contributions : frozen-wavefunctions and Ewald
 fr.local=   3.35586404E+01 fr.nonlo=   1.52997562E+02  Ewald=   2.00931375E+01
 13,14 Frozen wf xc core corrections (1) and (2)
 frxc 1  =  -1.12462277E+01  frxc 2 =   9.19326216E+00
 Resulting in :
 2DEtotal=    0.1764791072E+02 Ha. Also 2DEtotal=    0.480224073038E+03 eV
    (2DErelax=   -1.8694846376E+02 Ha. 2DEnonrelax=    2.0459637449E+02 Ha)
    (  non-var. 2DEtotal :    1.7647737030E+01 Ha)


--------------------------------------------------------------------------------
 Perturbation wavevector (in red.coord.)   0.000000  0.000000  0.000000
 Perturbation : displacement of atom   2   along direction   3
 The set of symmetries contains only one element for this perturbation.
 symkpt : not enough symmetry to change the number of k points.

--------------------------------------------------------------------------------

-inwffil : will read wavefunctions from disk file t60_MPI1o_DS11_WFK
P newkpt: treating     10 bands with npw=     113 for ikpt=   1 by node    0
P newkpt: treating     10 bands with npw=     108 for ikpt=   2 by node    0
P newkpt: treating     10 bands with npw=     108 for ikpt=   3 by node    0
P newkpt: treating     10 bands with npw=     116 for ikpt=   4 by node    0
P newkpt: treating     10 bands with npw=     108 for ikpt=   5 by node    0
P newkpt: treating     10 bands with npw=     116 for ikpt=   6 by node    0
P newkpt: treating     10 bands with npw=     116 for ikpt=   7 by node    0
P newkpt: treating     10 bands with npw=     108 for ikpt=   8 by node    0

--------------------------------------------------------------------------------

-inwffil : will read wavefunctions from disk file t60_MPI1o_DS12_WFQ
P newkpt: treating     10 bands with npw=     113 for ikpt=   1 by node    0
P newkpt: treating     10 bands with npw=     108 for ikpt=   2 by node    0
P newkpt: treating     10 bands with npw=     108 for ikpt=   3 by node    0
P newkpt: treating     10 bands with npw=     116 for ikpt=   4 by node    0
P newkpt: treating     10 bands with npw=     108 for ikpt=   5 by node    0
P newkpt: treating     10 bands with npw=     116 for ikpt=   6 by node    0
P newkpt: treating     10 bands with npw=     116 for ikpt=   7 by node    0
P newkpt: treating     10 bands with npw=     108 for ikpt=   8 by node    0

 Initialisation of the first-order wave-functions :
  ireadwf=   0
P newkpt: treating     10 bands with npw=     113 for ikpt=   1 by node    0
P newkpt: treating     10 bands with npw=     108 for ikpt=   2 by node    0
P newkpt: treating     10 bands with npw=     108 for ikpt=   3 by node    0
P newkpt: treating     10 bands with npw=     116 for ikpt=   4 by node    0
P newkpt: treating     10 bands with npw=     108 for ikpt=   5 by node    0
P newkpt: treating     10 bands with npw=     116 for ikpt=   6 by node    0
P newkpt: treating     10 bands with npw=     116 for ikpt=   7 by node    0
P newkpt: treating     10 bands with npw=     108 for ikpt=   8 by node    0


     iter   2DEtotal(Ha)        deltaE(Ha) residm    vres2
-ETOT  1   25.948669761124     -1.786E+02 3.935E-01 3.974E+03
 ETOT  2   17.914937572144     -8.034E+00 7.112E-03 9.730E+01
 ETOT  3   17.650811350208     -2.641E-01 1.612E-04 6.958E-01
 ETOT  4   17.649162986670     -1.648E-03 9.111E-07 5.147E-03
 ETOT  5   17.649158459343     -4.527E-06 9.638E-09 1.578E-03

 At SCF step    5   max residual=  9.64E-09 < tolwfr=  1.00E-08 =>converged.
================================================================================

 ----iterations are completed or convergence reached----

 Mean square residual over all n,k,spin=  -2.0000E-02; max=  9.6377E-09
   0.0000  0.0000  0.0000    1  6.03859E-09 kpt; spin; max resid(k); each band:
  6.04E-09 9.29E-10 6.76E-10 6.47E-10 1.58E-09 2.41E-09 1.86E-09 1.18E-09
 -1.00E-01-1.00E-01
   0.5000  0.0000  0.0000    1  9.63766E-09 kpt; spin; max resid(k); each band:
  9.64E-09 8.27E-10 2.13E-09 1.68E-09 3.70E-10 5.01E-09 5.28E-09 1.08E-09
 -1.00E-01-1.00E-01
   0.0000  0.5000  0.0000    1  9.63177E-09 kpt; spin; max resid(k); each band:
  9.63E-09 8.34E-10 2.17E-09 1.61E-09 3.76E-10 5.05E-09 5.52E-09 1.08E-09
 -1.00E-01-1.00E-01
   0.5000  0.5000  0.0000    1  4.58317E-09 kpt; spin; max resid(k); each band:
  2.33E-10 4.58E-09 3.57E-10 4.48E-10 3.43E-10 5.90E-10 3.94E-09 2.76E-09
 -1.00E-01-1.00E-01
   0.0000  0.0000  0.5000    1  9.28681E-09 kpt; spin; max resid(k); each band:
  6.99E-09 4.53E-10 2.20E-09 1.93E-09 8.83E-09 3.75E-09 2.15E-09 9.29E-09
 -1.00E-01-1.00E-01
   0.5000  0.0000  0.5000    1  7.79404E-09 kpt; spin; max resid(k); each band:
  2.44E-10 7.79E-09 5.74E-10 5.36E-10 3.70E-10 4.20E-10 3.60E-09 2.93E-09
 -1.00E-01-1.00E-01
   0.0000  0.5000  0.5000    1  6.75335E-09 kpt; spin; max resid(k); each band:
  2.57E-10 6.75E-09 5.81E-10 5.29E-10 4.69E-10 3.24E-10 3.56E-09 3.29E-09
 -1.00E-01-1.00E-01
   0.5000  0.5000  0.5000    1  5.65668E-09 kpt; spin; max resid(k); each band:
  3.79E-09 4.41E-10 2.18E-09 2.15E-09 1.81E-10 2.94E-09 3.03E-09 5.66E-09
 -1.00E-01-1.00E-01

 Thirteen components of 2nd-order total energy (hartree) are
 1,2,3: 0th-order hamiltonian combined with 1st-order wavefunctions
     kin0=   2.07783324E+02 eigvalue=  -1.57643916E+01  local=  -8.76337340E+01
 4,5,6: 1st-order hamiltonian combined with 1st and 0th-order wfs
 loc psp =  -1.02455026E+02  Hartree=   2.32961958E+01     xc=  -8.64969565E+00
 note that "loc psp" includes a xc core correction that could be resolved
 7,8,9: eventually, occupation + non-local contributions
    edocc=   1.63253665E+01     enl0=   5.15905204E+01   enl1=  -2.71439728E+02
 1-9 gives the relaxation energy (to be shifted if some occ is /=2.0)
   erelax=  -1.86947169E+02
 10,11,12 Non-relaxation  contributions : frozen-wavefunctions and Ewald
 fr.local=   3.35586399E+01 fr.nonlo=   1.52997514E+02  Ewald=   2.00931375E+01
 13,14 Frozen wf xc core corrections (1) and (2)
 frxc 1  =  -1.12462280E+01  frxc 2 =   9.19326340E+00
 Resulting in :
 2DEtotal=    0.1764915846E+02 Ha. Also 2DEtotal=    0.480258025643E+03 eV
    (2DErelax=   -1.8694716859E+02 Ha. 2DEnonrelax=    2.0459632705E+02 Ha)
    (  non-var. 2DEtotal :    1.7648950109E+01 Ha)

 
 Components of second-order derivatives of the electronic energy, EIGI2D.
 For automatic tests, printing the matrix for the first k-point, first band, first atom.
   1   1   1   1    8.3998722344E-09    0.0000000000E+00
   1   1   2   1    4.3683270289E-09    0.0000000000E+00
   1   1   3   1    4.4077214179E-09    1.2574220372E-10
   2   1   1   1    4.3683270289E-09    0.0000000000E+00
   2   1   2   1    8.5085105944E-09    0.0000000000E+00
   2   1   3   1    4.4919010931E-09    0.0000000000E+00
   3   1   1   1    4.4077214179E-09   -1.2574220372E-10
   3   1   2   1    4.4919010931E-09    0.0000000000E+00
   3   1   3   1    8.6654583960E-09    0.0000000000E+00
================================================================================

 ---- first-order wavefunction calculations are completed ----


 ==> Compute Derivative Database <==
  
  2nd-order matrix (non-cartesian coordinates, masses not included,
   asr not included )
     j1       j2             matrix element
  dir pert dir pert     real part     imaginary part
  
   1    1   1    1        17.6540379079         0.0000000000
   1    1   2    1         8.8269542068         0.0000000000
   1    1   3    1         8.8253805139         0.0000000000
   1    1   1    2       -17.6486591991         0.0000000000
   1    1   2    2        -8.8250146170        -0.0000000000
   1    1   3    2        -8.8239866870         0.0000000000
  
   2    1   1    1         8.8269811838         0.0000000000
   2    1   2    1        17.6508571879         0.0000000000
   2    1   3    1         8.8172681973         0.0000000000
   2    1   1    2        -8.8279516024        -0.0000000000
   2    1   2    2       -17.6529374533         0.0000000000
   2    1   3    2        -8.8286857126        -0.0000000000
  
   3    1   1    1         8.8253980767         0.0000000000
   3    1   2    1         8.8172686817         0.0000000000
   3    1   3    1        17.6475484311         0.0000000000
   3    1   1    2        -8.8293281052         0.0000000000
   3    1   2    2        -8.8359800565        -0.0000000000
   3    1   3    2       -17.6523111550         0.0000000000
  
   1    2   1    1       -17.6485899372        -0.0000000000
   1    2   2    1        -8.8279516801         0.0000000000
   1    2   3    1        -8.8292860266        -0.0000000000
   1    2   1    2        17.6489713533         0.0000000000
   1    2   2    2         8.8230698592         0.0000000000
   1    2   3    2         8.8247585038         0.0000000000
  
   2    2   1    1        -8.8249437384         0.0000000000
   2    2   2    1       -17.6529091575        -0.0000000000
   2    2   3    1        -8.8359127496         0.0000000000
   2    2   1    2         8.8230758172         0.0000000000
   2    2   2    2        17.6477370297         0.0000000000
   2    2   3    2         8.8218502479         0.0000000000
  
   3    2   1    1        -8.8239435402        -0.0000000000
   3    2   2    1        -8.8286681916         0.0000000000
   3    2   3    1       -17.6522393685        -0.0000000000
   3    2   1    2         8.8247709787         0.0000000000
   3    2   2    2         8.8218635248         0.0000000000
   3    2   3    2        17.6489501093         0.0000000000
  
  
  Dynamical matrix, in cartesian coordinates,
[...]
   2   1   1   1   -8.6948922682E-01    4.8419710419E-03
   2   1   2   1   -1.6861822047E+00    0.0000000000E+00
   2   1   3   1   -8.4314965164E-01   -1.5818188023E-05
   3   1   1   1   -8.7264454146E-01    1.9066550555E-02
   3   1   2   1   -8.4314965164E-01    1.5818188023E-05
   3   1   3   1   -1.6862518948E+00    0.0000000000E+00
 
 Components of second-order derivatives of the electronic energy, EIGI2D.
 For automatic tests, printing the matrix for the first k-point, first band, first atom.
   1   1   1   1    2.0907924450E+00    0.0000000000E+00
   1   1   2   1    1.8851339213E-03    3.5169695334E-04
   1   1   3   1    2.1123346837E-03    1.3636694325E-03
   2   1   1   1    1.8851339213E-03   -3.5169695334E-04
   2   1   2   1    1.7714014275E-06    0.0000000000E+00
   2   1   3   1    2.1402053476E-06    8.7420960926E-07
   3   1   1   1    2.1123346837E-03   -1.3636694325E-03
   3   1   2   1    2.1402053476E-06   -8.7420960926E-07
   3   1   3   1    3.0360547887E-06    0.0000000000E+00
================================================================================

 ---- T=0 shift of eigenenergies due to electron-phonon interation at q ---- 
 Warning : the total shift must be computed through anaddb,                  
 here, only the contribution of one q point is printed.                      
 Print first the electronic eigenvalues, then the q-dependent Fan shift of eigenvalues.

 Eigenvalues (hartree) for nkpt=   8  k points:
 kpt#   1, nband= 10, wtk=  0.12500, kpt=  0.0000  0.0000  0.0000 (reduced coord)
  -0.31566   0.52104   0.52104   0.52104   0.75482   0.75482   0.75482   0.99990
   1.19500   1.48731
 kpt#   2, nband= 10, wtk=  0.12500, kpt=  0.5000  0.0000  0.0000 (reduced coord)
  -0.09003  -0.00243   0.43029   0.43029   0.83414   0.84609   0.84609   1.11601
   1.35674   1.46085
 kpt#   3, nband= 10, wtk=  0.12500, kpt=  0.0000  0.5000  0.0000 (reduced coord)
  -0.09003  -0.00243   0.43029   0.43029   0.83414   0.84609   0.84609   1.11601
   1.35674   1.46085
 kpt#   4, nband= 10, wtk=  0.12500, kpt=  0.5000  0.5000  0.0000 (reduced coord)
   0.02301   0.02301   0.27757   0.27757   0.66796   0.66796   1.20916   1.20916
   1.44208   1.44208
 kpt#   5, nband= 10, wtk=  0.12500, kpt=  0.0000  0.0000  0.5000 (reduced coord)
  -0.09003  -0.00243   0.43029   0.43029   0.83414   0.84609   0.84609   1.11601
   1.35674   1.46085
 kpt#   6, nband= 10, wtk=  0.12500, kpt=  0.5000  0.0000  0.5000 (reduced coord)
   0.02301   0.02301   0.27757   0.27757   0.66796   0.66796   1.20916   1.20916
   1.44208   1.44208
 kpt#   7, nband= 10, wtk=  0.12500, kpt=  0.0000  0.5000  0.5000 (reduced coord)
   0.02301   0.02301   0.27757   0.27757   0.66796   0.66796   1.20916   1.20916
   1.44208   1.44208
 kpt#   8, nband= 10, wtk=  0.12500, kpt=  0.5000  0.5000  0.5000 (reduced coord)
  -0.09003  -0.00243   0.43029   0.43029   0.83414   0.84609   0.84609   1.11601
   1.35674   1.46085
 Eigenvalues (   eV  ) for nkpt=   8  k points:
 kpt#   1, nband= 10, wtk=  0.12500, kpt=  0.0000  0.0000  0.0000 (reduced coord)
  -8.58957  14.17819  14.17819  14.17819  20.53957  20.53957  20.53957  27.20859
  32.51758  40.47171
 kpt#   2, nband= 10, wtk=  0.12500, kpt=  0.5000  0.0000  0.0000 (reduced coord)
  -2.44989  -0.06613  11.70875  11.70875  22.69800  23.02325  23.02326  30.36815
  36.91884  39.75170
 kpt#   3, nband= 10, wtk=  0.12500, kpt=  0.0000  0.5000  0.0000 (reduced coord)
  -2.44989  -0.06613  11.70875  11.70876  22.69800  23.02325  23.02326  30.36815
  36.91884  39.75166
 kpt#   4, nband= 10, wtk=  0.12500, kpt=  0.5000  0.5000  0.0000 (reduced coord)
   0.62617   0.62617   7.55305   7.55305  18.17625  18.17625  32.90299  32.90299
  39.24086  39.24086
 kpt#   5, nband= 10, wtk=  0.12500, kpt=  0.0000  0.0000  0.5000 (reduced coord)
  -2.44989  -0.06613  11.70875  11.70875  22.69800  23.02325  23.02326  30.36815
  36.91884  39.75173
 kpt#   6, nband= 10, wtk=  0.12500, kpt=  0.5000  0.0000  0.5000 (reduced coord)
   0.62617   0.62618   7.55305   7.55305  18.17625  18.17625  32.90299  32.90299
  39.24086  39.24086
 kpt#   7, nband= 10, wtk=  0.12500, kpt=  0.0000  0.5000  0.5000 (reduced coord)
   0.62617   0.62617   7.55305   7.55305  18.17625  18.17625  32.90299  32.90299
  39.24086  39.24086
 kpt#   8, nband= 10, wtk=  0.12500, kpt=  0.5000  0.5000  0.5000 (reduced coord)
  -2.44989  -0.06614  11.70875  11.70875  22.69800  23.02325  23.02326  30.36815
  36.91884  39.75167


 Fan corrections to eigenvalues at T=0 (hartree) for nkpt=   8  k points:
  (in case of degenerate eigenvalues, averaged derivative)
 kpt#   1, nband= 10, wtk=  0.12500, kpt=  0.0000  0.0000  0.0000 (reduced coord)
  -0.05266   0.09106   0.08933   0.00987  -0.13231  -0.07896  -0.07965  -0.12566
  -0.05059   0.01013
 kpt#   2, nband= 10, wtk=  0.12500, kpt=  0.5000  0.0000  0.0000 (reduced coord)
   0.00838  -0.01520   0.14747   0.14779   0.00156  -0.01441  -0.01443   0.09297
   0.03313   0.00630
 kpt#   3, nband= 10, wtk=  0.12500, kpt=  0.0000  0.5000  0.0000 (reduced coord)
   0.07297  -0.03842   0.03052   0.00709  -0.03178  -0.02953  -0.02358  -0.14855
   0.03620  -0.16042
 kpt#   4, nband= 10, wtk=  0.12500, kpt=  0.5000  0.5000  0.0000 (reduced coord)
  -0.00511  -0.00589  -0.06597   0.00219  -0.07540  -0.03787   0.06701   0.03005
  -0.12762  -0.00425
 kpt#   5, nband= 10, wtk=  0.12500, kpt=  0.0000  0.0000  0.5000 (reduced coord)
   0.07292  -0.03842   0.03447   0.00311  -0.03181  -0.03048  -0.02268  -0.14854
   0.03637  -0.21331
 kpt#   6, nband= 10, wtk=  0.12500, kpt=  0.5000  0.0000  0.5000 (reduced coord)
  -0.00508  -0.00594  -0.06841   0.00466  -0.07688  -0.03635   0.06753   0.02958
  -0.14953   0.01751
 kpt#   7, nband= 10, wtk=  0.12500, kpt=  0.0000  0.5000  0.5000 (reduced coord)
  -0.00569  -0.00529   0.00333  -0.06717  -0.04496  -0.06838   0.04848   0.04848
  -0.04705  -0.08452
 kpt#   8, nband= 10, wtk=  0.12500, kpt=  0.5000  0.5000  0.5000 (reduced coord)
   0.07304  -0.03842   0.03370   0.00394  -0.03174  -0.03018  -0.02289  -0.14855
   0.03638  -0.19187
 Fan corrections to eigenvalues at T=0 (   eV  ) for nkpt=   8  k points:
 kpt#   1, nband= 10, wtk=  0.12500, kpt=  0.0000  0.0000  0.0000 (reduced coord)
  -1.43286   2.47778   2.43071   0.26866  -3.60036  -2.14873  -2.16752  -3.41950
  -1.37668   0.27577
 kpt#   2, nband= 10, wtk=  0.12500, kpt=  0.5000  0.0000  0.0000 (reduced coord)
   0.22802  -0.41350   4.01275   4.02160   0.04249  -0.39225  -0.39254   2.52973
   0.90156   0.17150
 kpt#   3, nband= 10, wtk=  0.12500, kpt=  0.0000  0.5000  0.0000 (reduced coord)
   1.98556  -1.04557   0.83043   0.19284  -0.86485  -0.80366  -0.64158  -4.04237
   0.98502  -4.36526
 kpt#   4, nband= 10, wtk=  0.12500, kpt=  0.5000  0.5000  0.0000 (reduced coord)
  -0.13916  -0.16025  -1.79516   0.05955  -2.05186  -1.03054   1.82341   0.81758
  -3.47271  -0.11564
 kpt#   5, nband= 10, wtk=  0.12500, kpt=  0.0000  0.0000  0.5000 (reduced coord)
   1.98429  -1.04542   0.93805   0.08462  -0.86567  -0.82946  -0.61713  -4.04208
   0.98973  -5.80437
 kpt#   6, nband= 10, wtk=  0.12500, kpt=  0.5000  0.0000  0.5000 (reduced coord)
  -0.13833  -0.16162  -1.86156   0.12689  -2.09208  -0.98919   1.83748   0.80483
  -4.06895   0.47650
 kpt#   7, nband= 10, wtk=  0.12500, kpt=  0.0000  0.5000  0.5000 (reduced coord)
  -0.15474  -0.14394   0.09056  -1.82767  -1.22349  -1.86085   1.31929   1.31929
  -1.28023  -2.29993
 kpt#   8, nband= 10, wtk=  0.12500, kpt=  0.5000  0.5000  0.5000 (reduced coord)
   1.98762  -1.04552   0.91696   0.10712  -0.86360  -0.82112  -0.62294  -4.04221
   0.98990  -5.22113

== END DATASET(S) ==============================================================
================================================================================
  
 -outvars: echo values of variables after computation  --------
            acell      6.6709983131E+00  6.6709983131E+00  6.6709983131E+00 Bohr
              amu      1.20110000E+01
          bdeigrf          10
           diemac      6.00000000E+00
             ecut      1.00000000E+01 Hartree
    elph2_imagden      3.67493254E-03 Hartree
           enunit           2
           etotal11   -1.1692125618E+01
           etotal13    1.7649158459E+01
           etotal21   -1.1692125618E+01
           etotal23    1.3528207776E+01
           etotal31   -1.1692125618E+01
           etotal33    1.4811667439E+01
            fcart11   -4.3507877928E-07 -2.4383180237E-06 -1.9087398475E-06
                       4.3507877928E-07  2.4383180237E-06  1.9087398475E-06
            fcart13    0.0000000000E+00  0.0000000000E+00  0.0000000000E+00
                       0.0000000000E+00  0.0000000000E+00  0.0000000000E+00
            fcart21   -4.3507877928E-07 -2.4383180237E-06 -1.9087398475E-06
                       4.3507877928E-07  2.4383180237E-06  1.9087398475E-06
            fcart23    0.0000000000E+00  0.0000000000E+00  0.0000000000E+00
                       0.0000000000E+00  0.0000000000E+00  0.0000000000E+00
            fcart31   -4.3507877928E-07 -2.4383180237E-06 -1.9087398475E-06
                       4.3507877928E-07  2.4383180237E-06  1.9087398475E-06
            fcart33    0.0000000000E+00  0.0000000000E+00  0.0000000000E+00
                       0.0000000000E+00  0.0000000000E+00  0.0000000000E+00
-          fftalg         112
           getden11         0
           getden12        -1
           getden13         0
           getden21         0
           getden22        -1
           getden23         0
           getden31         0
           getden32        -1
           getden33         0
           getwfk11         0
           getwfk12         0
           getwfk13        -2
           getwfk21         0
           getwfk22         0
           getwfk23        -2
           getwfk31         0
           getwfk32         0
           getwfk33        -2
           getwfq11         0
           getwfq12         0
           getwfq13        -1
           getwfq21         0
           getwfq22         0
           getwfq23        -1
           getwfq31         0
           getwfq32         0
           getwfq33        -1
          ieig2rf11         0
          ieig2rf12         0
          ieig2rf13         4
          ieig2rf21         0
          ieig2rf22         0
          ieig2rf23         4
          ieig2rf31         0
          ieig2rf32         0
          ieig2rf33         4
             iscf11         7
             iscf12        -2
             iscf13         7
             iscf21         7
             iscf22        -2
             iscf23         7
             iscf31         7
             iscf32        -2
             iscf33         7
           istwfk11      1    1    1    1    1    1    1    1
           istwfk12      1    1    1    1    1    1    1    1
           istwfk13      1    1    1    1    1    1    1    1
           istwfk21      1    1    1    1    1    1    1    1
           istwfk22      1    1    0    0    1    1    0    0
           istwfk23      1    1    1    1    1    1    1    1
           istwfk31      1    1    1    1    1    1    1    1
           istwfk32      0    0    0    0    0    0    0    0
           istwfk33      1    1    1    1    1    1    1    1
           jdtset       11   12   13   21   22   23   31   32   33
              kpt      0.00000000E+00  0.00000000E+00  0.00000000E+00
                       5.00000000E-01  0.00000000E+00  0.00000000E+00
                       0.00000000E+00  5.00000000E-01  0.00000000E+00
                       5.00000000E-01  5.00000000E-01  0.00000000E+00
                       0.00000000E+00  0.00000000E+00  5.00000000E-01
                       5.00000000E-01  0.00000000E+00  5.00000000E-01
                       0.00000000E+00  5.00000000E-01  5.00000000E-01
                       5.00000000E-01  5.00000000E-01  5.00000000E-01
           kptopt           3
         kptrlatt        2    0    0      0    2    0      0    0    2
          kptrlen      9.43421629E+00
P           mkmem           8
P          mkqmem           8
P          mk1mem           8
            natom           2
            nband          10
           nbdbuf           2
           ndtset           9
            ngfft          15      15      15
             nkpt           8
             nqpt11         0
             nqpt12         1
             nqpt13         1
             nqpt21         0
             nqpt22         1
             nqpt23         1
             nqpt31         0
             nqpt32         1
             nqpt33         1
            nstep          50
             nsym           1
           ntypat           1
              occ      2.000000  2.000000  2.000000  2.000000  0.000000  0.000000
                       0.000000  0.000000  0.000000  0.000000
        optdriver11         0
        optdriver12         0
        optdriver13         1
        optdriver21         0
        optdriver22         0
        optdriver23         1
        optdriver31         0
        optdriver32         0
        optdriver33         1
              qpt11    0.00000000E+00  0.00000000E+00  0.00000000E+00
              qpt12    0.00000000E+00  0.00000000E+00  0.00000000E+00
              qpt13    0.00000000E+00  0.00000000E+00  0.00000000E+00
              qpt21    0.00000000E+00  0.00000000E+00  0.00000000E+00
              qpt22    0.00000000E+00  5.00000000E-01  0.00000000E+00
              qpt23    0.00000000E+00  5.00000000E-01  0.00000000E+00
              qpt31    0.00000000E+00  0.00000000E+00  0.00000000E+00
              qpt32    1.00000000E-01  0.00000000E+00  0.00000000E+00
              qpt33    1.00000000E-01  0.00000000E+00  0.00000000E+00
          rfatpol           1       2
            rfdir           1       1       1
           rfphon11         0
           rfphon12         0
           rfphon13         1
           rfphon21         0
           rfphon22         0
           rfphon23         1
           rfphon31         0
           rfphon32         0
           rfphon33         1
            rprim      0.0000000000E+00  5.0000000000E-01  5.0000000000E-01
                       5.0000000000E-01  0.0000000000E+00  5.0000000000E-01
                       5.0000000000E-01  5.0000000000E-01  0.0000000000E+00
          spgroup           1
           strten11    3.3248327932E-03  3.3248304679E-03  3.3248313103E-03
                       5.0592649752E-09 -2.0697234026E-08 -2.6500280728E-08
           strten13    0.0000000000E+00  0.0000000000E+00  0.0000000000E+00
                       0.0000000000E+00  0.0000000000E+00  0.0000000000E+00
           strten21    3.3248327932E-03  3.3248304679E-03  3.3248313103E-03
                       5.0592649752E-09 -2.0697234026E-08 -2.6500280728E-08
           strten23    0.0000000000E+00  0.0000000000E+00  0.0000000000E+00
                       0.0000000000E+00  0.0000000000E+00  0.0000000000E+00
           strten31    3.3248327932E-03  3.3248304679E-03  3.3248313103E-03
                       5.0592649752E-09 -2.0697234026E-08 -2.6500280728E-08
           strten33    0.0000000000E+00  0.0000000000E+00  0.0000000000E+00
                       0.0000000000E+00  0.0000000000E+00  0.0000000000E+00
           tolwfr      1.00000000E-08
            typat      1  1
              wtk        0.12500    0.12500    0.12500    0.12500    0.12500    0.12500
                         0.12500    0.12500
           xangst      0.0000000000E+00  0.0000000000E+00  0.0000000000E+00
                       8.8253506646E-01  8.8253506646E-01  8.8253506646E-01
            xcart      0.0000000000E+00  0.0000000000E+00  0.0000000000E+00
                       1.6677495783E+00  1.6677495783E+00  1.6677495783E+00
             xred      0.0000000000E+00  0.0000000000E+00  0.0000000000E+00
                       2.5000000000E-01  2.5000000000E-01  2.5000000000E-01
            znucl        6.00000

================================================================================


- Timing analysis has been suppressed with timopt=0



================================================================================

 Suggested references for the acknowledgment of ABINIT usage.

 The users of ABINIT have little formal obligations with respect to the ABINIT group
 (those specified in the GNU General Public License, http://www.gnu.org/copyleft/gpl.txt).
 However, it is common practice in the scientific literature,
 to acknowledge the efforts of people that have made the research possible.
 In this spirit, please find below suggested citations of work written by ABINIT developers,
 corresponding to implementations inside of ABINIT that you have used in the present run.
 Note also that it will be of great value to readers of publications presenting these results,
 to read papers enabling them to understand the theoretical formalism and details
 of the ABINIT implementation.
 For information on why they are suggested, see also http://www.abinit.org/about/?text=acknowledgments.

 [1] First-principles responses of solids to atomic displacements and homogeneous electric fields:,
 implementation of a conjugate-gradient algorithm. X. Gonze, Phys. Rev. B55, 10337 (1997).
 Comment : Non-vanishing rfphon and/or rfelfd, in the norm-conserving case.

 [2] Dynamical matrices, Born effective charges, dielectric permittivity tensors, and ,
 interatomic force constants from density-functional perturbation theory,
 X. Gonze and C. Lee, Phys. Rev. B55, 10355 (1997).
 Comment : Non-vanishing rfphon and/or rfelfd, in the norm-conserving case.

 [3] ABINIT : First-principles approach of materials and nanosystem properties.
 X. Gonze, B. Amadon, P.-M. Anglade, J.-M. Beuken, F. Bottin, P. Boulanger, F. Bruneval,
 D. Caliste, R. Caracas, M. Cote, T. Deutsch, L. Genovese, Ph. Ghosez, M. Giantomassi
 S. Goedecker, D.R. Hamann, P. Hermet, F. Jollet, G. Jomard, S. Leroux, M. Mancini, S. Mazevet,
 M.J.T. Oliveira, G. Onida, Y. Pouillon, T. Rangel, G.-M. Rignanese, D. Sangalli, R. Shaltaf,
 M. Torrent, M.J. Verstraete, G. Zerah, J.W. Zwanziger
 Computer Phys. Comm. 180, 2582-2615 (2009).
 Comment : the third generic paper describing the ABINIT project.
 Note that a version of this paper, that is not formatted for Computer Phys. Comm. 
 is available at http://www.abinit.org/about/ABINIT_CPC_v10.pdf .
 The licence allows the authors to put it on the Web.

 [4] A brief introduction to the ABINIT software package.
 X. Gonze, G.-M. Rignanese, M. Verstraete, J.-M. Beuken, Y. Pouillon, R. Caracas, F. Jollet,
 M. Torrent, G. Zerah, M. Mikami, Ph. Ghosez, M. Veithen, J.-Y. Raty, V. Olevano, F. Bruneval,
 L. Reining, R. Godby, G. Onida, D.R. Hamann, and D.C. Allan.
 Z. Kristallogr. 220, 558-562 (2005).
 Comment : the second generic paper describing the ABINIT project. Note that this paper
 should be cited especially if you are using the GW part of ABINIT, as several authors
 of this part are not in the list of authors of the first or third paper.
 The .pdf of the latter paper is available at http://www.abinit.org/about/zfk_0505-06_558-562.pdf.
 Note that it should not redistributed (Copyright by Oldenburg Wissenshaftverlag,
 the licence allows the authors to put it on the Web).


 And optionally :

 [5] First-principles computation of material properties : the ABINIT software project. 
 X. Gonze, J.-M. Beuken, R. Caracas, F. Detraux, M. Fuchs, G.-M. Rignanese, L. Sindic,
 M. Verstraete, G. Zerah, F. Jollet, M. Torrent, A. Roy, M. Mikami, Ph. Ghosez, J.-Y. Raty, D.C. Allan.
 Computational Materials Science 25, 478-492 (2002). http://dx.doi.org/10.1016/S0927-0256(02)00325-7
 Comment : the original paper describing the ABINIT project.
-
- Proc.   0 individual time (sec): cpu=          6.8  wall=          6.8

================================================================================

 Calculation completed.
.Delivered   10 WARNINGs and  27 COMMENTs to log file.
+Overall time at end (sec) : cpu=          6.8  wall=          6.8
