
.Version 7.9.3 of ABINIT 
.(MPI version, prepared for a x86_64_linux_gnu4.7 computer) 

.Copyright (C) 1998-2014 ABINIT group . 
 ABINIT comes with ABSOLUTELY NO WARRANTY.
 It is free software, and you are welcome to redistribute it
 under certain conditions (GNU General Public License,
 see ~abinit/COPYING or http://www.gnu.org/copyleft/gpl.txt).

 ABINIT is a project of the Universite Catholique de Louvain,
 Corning Inc. and other collaborators, see ~abinit/doc/developers/contributors.txt .
 Please read ~abinit/doc/users/acknowledgments.html for suggested
 acknowledgments of the ABINIT effort.
 For more information, see http://www.abinit.org .

.Starting date : Sat 30 Aug 2014.
- ( at 22h30 )
  
- input  file    -> t08.in
- output file    -> t08.out
- root for input  files -> t08i
- root for output files -> t08o


 Symmetries : space group P1 (#  1); Bravais aP (primitive triclinic)
================================================================================
 Values of the parameters that define the memory need of the present run
   intxc =         0  ionmov =         0    iscf =         5 xclevel =         1
  lmnmax =         1   lnmax =         1   mband =         8  mffmem =         1
P  mgfft =        32   mkmem =         1 mpssoang=         2     mpw =       562
  mqgrid =      3001   natom =         2    nfft =     18432    nkpt =         1
  nloalg =         4  nspden =         2 nspinor =         1  nsppol =         2
    nsym =         1  n1xccc =      2501  ntypat =         1  occopt =         4
================================================================================
P This job should need less than                       7.355 Mbytes of memory.
  Rough estimation (10% accuracy) of disk space for files :
_ WF disk file :      0.139 Mbytes ; DEN or POT disk file :      0.283 Mbytes.
================================================================================

--------------------------------------------------------------------------------
------------- Echo of variables that govern the present computation ------------
--------------------------------------------------------------------------------
-
- outvars: echo of selected default values                                      
-   accesswff0 =  0 , fftalg0 =112 , wfoptalg0 =  0
-
- outvars: echo of global parameters not present in the input file              
-  max_nthreads =    0
-
 -outvars: echo values of preprocessed input variables --------
            acell      7.0000000000E+00  7.0000000000E+00  9.0000000000E+00 Bohr
              amu      1.59994000E+01
           diemac      1.00000000E+00
           diemix      3.33333333E-01
             ecut      1.40000000E+01 Hartree
-          fftalg         112
             iscf           5
           isecur          -2
           istwfk        2
           kptopt           0
P           mkmem           1
            natom           2
            nband           8
            ngfft          24      24      32
             nkpt           1
           nspden           2
           nsppol           2
             nsym           1
           ntypat           1
              occ      1.000000  1.000000  1.000000  1.000000  1.000000  1.000000
                       0.000000  0.000000
                       1.000000  1.000000  1.000000  1.000000  1.000000  1.000000
                       0.000000  0.000000
           occopt           4
          spgroup           1
           spinat      0.0000000000E+00  0.0000000000E+00  1.0000000000E+00
                       0.0000000000E+00  0.0000000000E+00  1.0000000000E+00
           toldfe      1.00000000E-07 Hartree
            typat      1  1
           xangst      0.0000000000E+00  0.0000000000E+00  5.5000000000E-01
                       0.0000000000E+00  0.0000000000E+00 -5.5000000000E-01
            xcart      0.0000000000E+00  0.0000000000E+00  1.0393493731E+00
                       0.0000000000E+00  0.0000000000E+00 -1.0393493731E+00
             xred      0.0000000000E+00  0.0000000000E+00  1.1548326368E-01
                       0.0000000000E+00  0.0000000000E+00 -1.1548326368E-01
            znucl        8.00000

================================================================================

 chkinp: Checking input parameters for consistency.

================================================================================
== DATASET  1 ==================================================================
-   nproc =    1

 Exchange-correlation functional for the present dataset will be:
  LDA: new Teter (4/93) with spin-polarized option - ixc=1
 Citation for XC functional:
  S. Goedecker, M. Teter, J. Huetter, PRB 54, 1703 (1996)

 Real(R)+Recip(G) space primitive vectors, cartesian coordinates (Bohr,Bohr^-1):
 R(1)=  7.0000000  0.0000000  0.0000000  G(1)=  0.1428571  0.0000000  0.0000000
 R(2)=  0.0000000  7.0000000  0.0000000  G(2)=  0.0000000  0.1428571  0.0000000
 R(3)=  0.0000000  0.0000000  9.0000000  G(3)=  0.0000000  0.0000000  0.1111111
 Unit cell volume ucvol=  4.4100000E+02 bohr^3
 Angles (23,13,12)=  9.00000000E+01  9.00000000E+01  9.00000000E+01 degrees

 getcut: wavevector=  0.0000  0.0000  0.0000  ngfft=  24  24  32
         ecut(hartree)=     14.000   => boxcut(ratio)=   2.03556

--- Pseudopotential description ------------------------------------------------
- pspini: atom type   1  psp file is /home/gonze/ABINIT/ABINITv7.9.3/trunk/7.9.3-private/tests/Psps_for_tests/8o.pspnc
- pspatm: opening atomic psp file    /home/gonze/ABINIT/ABINITv7.9.3/trunk/7.9.3-private/tests/Psps_for_tests/8o.pspnc
-  Troullier-Martins psp for element  O         Thu Oct 27 17:29:57 EDT 1994
-  8.00000   6.00000    940714                znucl, zion, pspdat
    1    1    1    1      2001   0.00000      pspcod,pspxc,lmax,lloc,mmax,r2well
    0   5.480  16.893    1   1.4482335        l,e99.0,e99.9,nproj,rcpsp
   0.00000000   0.00000000   0.00000000   0.00000000     rms, ekb1, ekb2, epsatm
    1  20.911  28.075    0   1.4482335        l,e99.0,e99.9,nproj,rcpsp
   0.00000000   0.00000000   0.00000000   0.00000000     rms, ekb1, ekb2, epsatm
    0.56990156784787    3.95561236318184    0.63894027514378   rchrg,fchrg,qchrg
 pspatm: epsatm=    1.57752239
         --- l  ekb(1:nproj) -->
             0    5.670783
 pspatm: atomic psp has been read  and splines computed

   3.78605374E+01                                ecore*ucvol(ha*bohr**3)
--------------------------------------------------------------------------------

P newkpt: treating      8 bands with npw=     562 for ikpt=   1 by node    0
P newkpt: treating      8 bands with npw=     562 for ikpt=   1 by node    0

_setup2: Arith. and geom. avg. npw (full set) are    1123.000    1123.000

================================================================================

     iter   Etot(hartree)     deltaE(h) residm    vres2    magn
 ETOT  1  -31.719268061484    -3.17E+01 1.17E-02 5.94E+02 1.152
 ETOT  2  -32.086747953898    -3.67E-01 3.51E-04 1.63E+01 1.700
 ETOT  3  -32.091062905969    -4.31E-03 1.37E-04 5.29E+00 1.797
 ETOT  4  -32.091265485031    -2.03E-04 1.10E-05 3.74E+00 1.821
 ETOT  5  -32.092508343333    -1.24E-03 4.87E-05 1.30E+00 1.886
 ETOT  6  -32.092850720448    -3.42E-04 8.49E-05 3.18E-01 1.945
 ETOT  7  -32.093112257498    -2.62E-04 8.93E-06 4.74E-02 1.967
 ETOT  8  -32.093125300251    -1.30E-05 3.92E-06 1.35E-01 1.988
 ETOT  9  -32.093131043720    -5.74E-06 1.58E-07 1.13E-01 1.985
 ETOT 10  -32.093169161632    -3.81E-05 3.06E-06 2.79E-02 1.987
 ETOT 11  -32.093170435542    -1.27E-06 1.37E-07 2.77E-02 1.989
 ETOT 12  -32.093173753922    -3.32E-06 3.29E-07 7.22E-03 1.990
 ETOT 13  -32.093175271524    -1.52E-06 1.10E-07 1.10E-03 1.990
 ETOT 14  -32.093175474725    -2.03E-07 7.37E-09 5.48E-05 1.990
 ETOT 15  -32.093175489242    -1.45E-08 1.07E-09 1.20E-05 1.990
 ETOT 16  -32.093175491673    -2.43E-09 2.77E-10 3.21E-06 1.990

 At SCF step   16, etot is converged : 
  for the second time, diff in etot=  2.431E-09 < toldfe=  1.000E-07

 Cartesian components of stress tensor (hartree/bohr^3)
  sigma(1 1)=  3.69497140E-03  sigma(3 2)= -4.54406549E-10
  sigma(2 2)=  3.69496813E-03  sigma(3 1)= -8.21165807E-10
  sigma(3 3)=  1.10646547E-03  sigma(2 1)=  7.40982734E-10

================================================================================

 ----iterations are completed or convergence reached----

 Mean square residual over all n,k,spin=   1.2504E-10; max=  2.7678E-10
   0.0000  0.0000  0.0000    1  2.76784E-10 kpt; spin; max resid(k); each band:
  2.68E-10 1.64E-10 1.09E-10 1.32E-10 2.77E-10 1.09E-10 1.32E-10 3.25E-11
   0.0000  0.0000  0.0000    2  1.44259E-10 kpt; spin; max resid(k); each band:
  7.00E-11 1.44E-10 1.25E-10 9.14E-11 9.20E-11 9.20E-11 9.30E-11 6.97E-11
 reduced coordinates (array xred) for    2 atoms
       0.000000000000      0.000000000000      0.115483263676
       0.000000000000      0.000000000000     -0.115483263676
 rms dE/dt=  3.1219E+00; max dE/dt=  5.4074E+00; dE/dt below (all hartree)
    1      -0.000002405857      0.000004439237     -5.407353163497
    2       0.000001479101     -0.000004870369      5.407351813220

 cartesian coordinates (angstrom) at end:
    1      0.00000000000000     0.00000000000000     0.55000000000000
    2      0.00000000000000     0.00000000000000    -0.55000000000000

 cartesian forces (hartree/bohr) at end:
    1      0.00000027749699    -0.00000066497186     0.60081694315094
    2     -0.00000027749699     0.00000066497186    -0.60081694315094
 frms,max,avg= 3.4688182E-01 6.0081694E-01   6.620E-08  3.080E-08  7.502E-08 h/b

 cartesian forces (eV/Angstrom) at end:
    1      0.00001426946799    -0.00003419422521    30.89524681766671
    2     -0.00001426946799     0.00003419422521   -30.89524681766671
 frms,max,avg= 1.7837379E+01 3.0895247E+01   3.404E-06  1.584E-06  3.857E-06 e/A
 length scales=  7.000000000000  7.000000000000  9.000000000000 bohr
              =  3.704240460130  3.704240460130  4.762594877310 angstroms
 prteigrs : about to open file t08o_EIG
 Fermi (or HOMO) energy (hartree) =  -0.02393   Average Vxc (hartree)=  -0.19433
 Magnetization (Bohr magneton)=  1.99016968E+00
 Total spin up =  6.99508484E+00   Total spin down =  5.00491516E+00
 Eigenvalues (hartree) for nkpt=   1  k points, SPIN UP:
 kpt#   1, nband=  8, wtk=  1.00000, kpt=  0.0000  0.0000  0.0000 (reduced coord)
  -1.25444  -0.67158  -0.40861  -0.40861  -0.39845  -0.05536  -0.05535   0.05376
      occupation numbers for kpt#   1
   1.00000   1.00000   1.00000   1.00000   1.00000   0.99636   0.99636   0.00237
 Eigenvalues (hartree) for nkpt=   1  k points, SPIN DOWN:
 kpt#   1, nband=  8, wtk=  1.00000, kpt=  0.0000  0.0000  0.0000 (reduced coord)
  -1.20852  -0.60694  -0.35595  -0.34671  -0.34671   0.01882   0.01882   0.06370
      occupation numbers for kpt#   1
   1.00000   1.00000   1.00000   1.00000   1.00000   0.00170   0.00170   0.00151
 Total charge density [el/Bohr^3]
,     Maximum=    8.4204E-01  at reduced coord.    0.0000    0.0000    0.0000
,Next maximum=    8.2445E-01  at reduced coord.    0.0000    0.0000    0.9688
,     Minimum=    1.9344E-05  at reduced coord.    0.5000    0.5000    0.5625
,Next minimum=    1.9345E-05  at reduced coord.    0.5000    0.5000    0.4375
,  Integrated=    1.2000E+01
 Spin up density      [el/Bohr^3]
,     Maximum=    5.0965E-01  at reduced coord.    0.0000    0.9167    0.8750
,Next maximum=    5.0965E-01  at reduced coord.    0.0000    0.0833    0.8750
,     Minimum=    1.0294E-05  at reduced coord.    0.2917    0.5000    0.5000
,Next minimum=    1.0294E-05  at reduced coord.    0.7083    0.5000    0.5000
,  Integrated=    6.9951E+00
 Spin down density    [el/Bohr^3]
,     Maximum=    4.2271E-01  at reduced coord.    0.0000    0.0000    0.0000
,Next maximum=    4.1296E-01  at reduced coord.    0.0000    0.0000    0.9688
,     Minimum=    9.0196E-06  at reduced coord.    0.5000    0.5000    0.5625
,Next minimum=    9.0197E-06  at reduced coord.    0.5000    0.5000    0.4375
,  Integrated=    5.0049E+00
 Magnetization (spin up - spin down) [el/Bohr^3]
,     Maximum=    2.1240E-01  at reduced coord.    0.0417    0.0833    0.1250
,Next maximum=    2.1239E-01  at reduced coord.    0.9583    0.0833    0.1250
,     Minimum=   -3.3843E-03  at reduced coord.    0.0000    0.0000    0.0000
,Next minimum=   -3.0676E-03  at reduced coord.    0.9583    0.0000    0.0000
,  Integrated=    1.9902E+00
 Relative magnetization (=zeta, between -1 and 1)
,     Maximum=    3.5957E-01  at reduced coord.    0.7500    0.7083    0.2188
,Next maximum=    3.5957E-01  at reduced coord.    0.7083    0.7500    0.2188
,     Minimum=   -1.7882E-01  at reduced coord.    0.5000    0.8333    0.5000
,Next minimum=   -1.7882E-01  at reduced coord.    0.5000    0.1667    0.5000

--------------------------------------------------------------------------------
 Components of total free energy (in Hartree) :

    Kinetic energy  =  2.00509305016671E+01
    Hartree energy  =  1.82607539185118E+01
    XC energy       = -8.10973181262425E+00
    Ewald energy    = -8.65257592874657E+00
    PspCore energy  =  8.58515587537110E-02
    Loc. psp. energy= -5.83800280967695E+01
    NL   psp  energy=  4.64757072924368E+00
    >>>>> Internal E= -3.20972291299639E+01

    -kT*entropy     =  4.05363829139143E-03
    >>>>>>>>> Etotal= -3.20931754916725E+01

 Other information on the energy :
    Total energy(eV)= -8.73299717590246E+02 ; Band energy (Ha)=  -6.1165488909E+00
--------------------------------------------------------------------------------

 Cartesian components of stress tensor (hartree/bohr^3)
  sigma(1 1)=  3.69497140E-03  sigma(3 2)= -4.54406549E-10
  sigma(2 2)=  3.69496813E-03  sigma(3 1)= -8.21165807E-10
  sigma(3 3)=  1.10646547E-03  sigma(2 1)=  7.40982734E-10

-Cartesian components of stress tensor (GPa)         [Pressure= -8.3324E+01 GPa]
- sigma(1 1)=  1.08709793E+02  sigma(3 2)= -1.33691000E-05
- sigma(2 2)=  1.08709697E+02  sigma(3 1)= -2.41595281E-05
- sigma(3 3)=  3.25533325E+01  sigma(2 1)=  2.18004610E-05

== END DATASET(S) ==============================================================
================================================================================
  
 -outvars: echo values of variables after computation  --------
            acell      7.0000000000E+00  7.0000000000E+00  9.0000000000E+00 Bohr
              amu      1.59994000E+01
           diemac      1.00000000E+00
           diemix      3.33333333E-01
             ecut      1.40000000E+01 Hartree
           etotal     -3.2093175492E+01
            fcart      2.7749699463E-07 -6.6497186391E-07  6.0081694315E-01
                      -2.7749699463E-07  6.6497186391E-07 -6.0081694315E-01
-          fftalg         112
             iscf           5
           isecur          -2
           istwfk        2
           kptopt           0
P           mkmem           1
            natom           2
            nband           8
            ngfft          24      24      32
             nkpt           1
           nspden           2
           nsppol           2
             nsym           1
           ntypat           1
              occ      1.000000  1.000000  1.000000  1.000000  1.000000  0.996359
                       0.996356  0.002370
                       1.000000  1.000000  1.000000  1.000000  1.000000  0.001702
                       0.001701  0.001512
           occopt           4
          spgroup           1
           spinat      0.0000000000E+00  0.0000000000E+00  1.0000000000E+00
                       0.0000000000E+00  0.0000000000E+00  1.0000000000E+00
           strten      3.6949713988E-03  3.6949681285E-03  1.1064654674E-03
                      -4.5440654946E-10 -8.2116580732E-10  7.4098273365E-10
           toldfe      1.00000000E-07 Hartree
            typat      1  1
           xangst      0.0000000000E+00  0.0000000000E+00  5.5000000000E-01
                       0.0000000000E+00  0.0000000000E+00 -5.5000000000E-01
            xcart      0.0000000000E+00  0.0000000000E+00  1.0393493731E+00
                       0.0000000000E+00  0.0000000000E+00 -1.0393493731E+00
             xred      0.0000000000E+00  0.0000000000E+00  1.1548326368E-01
                       0.0000000000E+00  0.0000000000E+00 -1.1548326368E-01
            znucl        8.00000

================================================================================


- Timing analysis has been suppressed with timopt=0



================================================================================

 Suggested references for the acknowledgment of ABINIT usage.

 The users of ABINIT have little formal obligations with respect to the ABINIT group
 (those specified in the GNU General Public License, http://www.gnu.org/copyleft/gpl.txt).
 However, it is common practice in the scientific literature,
 to acknowledge the efforts of people that have made the research possible.
 In this spirit, please find below suggested citations of work written by ABINIT developers,
 corresponding to implementations inside of ABINIT that you have used in the present run.
 Note also that it will be of great value to readers of publications presenting these results,
 to read papers enabling them to understand the theoretical formalism and details
 of the ABINIT implementation.
 For information on why they are suggested, see also http://www.abinit.org/about/?text=acknowledgments.

 [1] ABINIT : First-principles approach of materials and nanosystem properties.
 X. Gonze, B. Amadon, P.-M. Anglade, J.-M. Beuken, F. Bottin, P. Boulanger, F. Bruneval,
 D. Caliste, R. Caracas, M. Cote, T. Deutsch, L. Genovese, Ph. Ghosez, M. Giantomassi
 S. Goedecker, D.R. Hamann, P. Hermet, F. Jollet, G. Jomard, S. Leroux, M. Mancini, S. Mazevet,
 M.J.T. Oliveira, G. Onida, Y. Pouillon, T. Rangel, G.-M. Rignanese, D. Sangalli, R. Shaltaf,
 M. Torrent, M.J. Verstraete, G. Zerah, J.W. Zwanziger
 Computer Phys. Comm. 180, 2582-2615 (2009).
 Comment : the third generic paper describing the ABINIT project.
 Note that a version of this paper, that is not formatted for Computer Phys. Comm. 
 is available at http://www.abinit.org/about/ABINIT_CPC_v10.pdf .
 The licence allows the authors to put it on the Web.

 [2] A brief introduction to the ABINIT software package.
 X. Gonze, G.-M. Rignanese, M. Verstraete, J.-M. Beuken, Y. Pouillon, R. Caracas, F. Jollet,
 M. Torrent, G. Zerah, M. Mikami, Ph. Ghosez, M. Veithen, J.-Y. Raty, V. Olevano, F. Bruneval,
 L. Reining, R. Godby, G. Onida, D.R. Hamann, and D.C. Allan.
 Z. Kristallogr. 220, 558-562 (2005).
 Comment : the second generic paper describing the ABINIT project. Note that this paper
 should be cited especially if you are using the GW part of ABINIT, as several authors
 of this part are not in the list of authors of the first or third paper.
 The .pdf of the latter paper is available at http://www.abinit.org/about/zfk_0505-06_558-562.pdf.
 Note that it should not redistributed (Copyright by Oldenburg Wissenshaftverlag,
 the licence allows the authors to put it on the Web).


 And optionally :

 [3] First-principles computation of material properties : the ABINIT software project. 
 X. Gonze, J.-M. Beuken, R. Caracas, F. Detraux, M. Fuchs, G.-M. Rignanese, L. Sindic,
 M. Verstraete, G. Zerah, F. Jollet, M. Torrent, A. Roy, M. Mikami, Ph. Ghosez, J.-Y. Raty, D.C. Allan.
 Computational Materials Science 25, 478-492 (2002). http://dx.doi.org/10.1016/S0927-0256(02)00325-7
 Comment : the original paper describing the ABINIT project.

 [4] Fast radix 2, 3, 4 and 5 kernels for Fast Fourier Transformations
 on computers with overlapping multiply-add instructions.
 S. Goedecker, SIAM J. on Scientific Computing 18, 1605 (1997).

 [5] Towards a potential-based conjugate gradient algorithm for order-N self-consistent
 total energy calculations.
 X. Gonze, Phys. Rev. B 54, 4383 (1996).
 Comment : The potential-based conjugate-gradient algorithm, used when iscf=5, is not published.
 However, many elements of this algorithm have been explained in the paper above.
-
- Proc.   0 individual time (sec): cpu=          1.2  wall=          1.2

================================================================================

 Calculation completed.
.Delivered    1 WARNINGs and   2 COMMENTs to log file.
+Overall time at end (sec) : cpu=          1.2  wall=          1.2
