
.Version 7.9.3 of ABINIT 
.(MPI version, prepared for a x86_64_linux_gnu4.7 computer) 

.Copyright (C) 1998-2014 ABINIT group . 
 ABINIT comes with ABSOLUTELY NO WARRANTY.
 It is free software, and you are welcome to redistribute it
 under certain conditions (GNU General Public License,
 see ~abinit/COPYING or http://www.gnu.org/copyleft/gpl.txt).

 ABINIT is a project of the Universite Catholique de Louvain,
 Corning Inc. and other collaborators, see ~abinit/doc/developers/contributors.txt .
 Please read ~abinit/doc/users/acknowledgments.html for suggested
 acknowledgments of the ABINIT effort.
 For more information, see http://www.abinit.org .

.Starting date : Sat 30 Aug 2014.
- ( at 22h30 )
  
- input  file    -> t21.in
- output file    -> t21.out
- root for input  files -> t21i
- root for output files -> t21o


 Symmetries : space group Pm m m (# 47); Bravais oP (primitive ortho.)
================================================================================
 Values of the parameters that define the memory need of the present run
   intxc =         0  ionmov =         0    iscf =         3 xclevel =         1
  lmnmax =         1   lnmax =         1   mband =         1  mffmem =         1
P  mgfft =        54   mkmem =         1 mpssoang=         1     mpw =      9633
  mqgrid =      3001   natom =         1    nfft =    157464    nkpt =         1
  nloalg =         4  nspden =         2 nspinor =         1  nsppol =         2
    nsym =         8  n1xccc =         0  ntypat =         1  occopt =         1
================================================================================
P This job should need less than                      41.030 Mbytes of memory.
  Rough estimation (10% accuracy) of disk space for files :
_ WF disk file :      0.296 Mbytes ; DEN or POT disk file :      2.405 Mbytes.
================================================================================

--------------------------------------------------------------------------------
------------- Echo of variables that govern the present computation ------------
--------------------------------------------------------------------------------
-
- outvars: echo of selected default values                                      
-   accesswff0 =  0 , fftalg0 =112 , wfoptalg0 =  0
-
- outvars: echo of global parameters not present in the input file              
-  max_nthreads =    0
-
 -outvars: echo values of preprocessed input variables --------
            acell      7.0000000000E+00  7.0000000000E+00  7.0000000000E+00 Bohr
              amu      1.00794000E+00
           diemac      1.00000000E+00
           diemix      5.00000000E-01
             ecut      7.00000000E+01 Hartree
-          fftalg         112
             iscf           3
              kpt      2.50000000E-01  2.50000000E-01  2.50000000E-01
           kptopt           0
P           mkmem           1
            natom           1
            nband           1
            ngfft          54      54      54
             nkpt           1
            nline           3
           nspden           2
           nsppol           2
            nstep           6
             nsym           8
           ntypat           1
              occ      1.000000
                       0.000000
          prtgden           1
          prtkden           1
          prtlden           1
          spgroup          47
           symrel      1  0  0   0  1  0   0  0  1      -1  0  0   0  1  0   0  0  1
                       1  0  0   0 -1  0   0  0  1      -1  0  0   0 -1  0   0  0  1
                       1  0  0   0  1  0   0  0 -1      -1  0  0   0  1  0   0  0 -1
                       1  0  0   0 -1  0   0  0 -1      -1  0  0   0 -1  0   0  0 -1
           timopt          -1
           tolwfr      1.00000000E-14
            typat      1
          usekden           1
            znucl        1.00000

================================================================================

 chkinp: Checking input parameters for consistency.

================================================================================
== DATASET  1 ==================================================================
-   nproc =    1

 Exchange-correlation functional for the present dataset will be:
  LDA: new Teter (4/93) with spin-polarized option - ixc=1
 Citation for XC functional:
  S. Goedecker, M. Teter, J. Huetter, PRB 54, 1703 (1996)

 Real(R)+Recip(G) space primitive vectors, cartesian coordinates (Bohr,Bohr^-1):
 R(1)=  7.0000000  0.0000000  0.0000000  G(1)=  0.1428571  0.0000000  0.0000000
 R(2)=  0.0000000  7.0000000  0.0000000  G(2)=  0.0000000  0.1428571  0.0000000
 R(3)=  0.0000000  0.0000000  7.0000000  G(3)=  0.0000000  0.0000000  0.1428571
 Unit cell volume ucvol=  3.4300000E+02 bohr^3
 Angles (23,13,12)=  9.00000000E+01  9.00000000E+01  9.00000000E+01 degrees

 getcut: wavevector=  0.0000  0.0000  0.0000  ngfft=  54  54  54
         ecut(hartree)=     70.000   => boxcut(ratio)=   2.04824

--- Pseudopotential description ------------------------------------------------
- pspini: atom type   1  psp file is /home/gonze/ABINIT/ABINITv7.9.3/trunk/7.9.3-private/tests/Psps_for_tests/01h.bare
- pspatm: opening atomic psp file    /home/gonze/ABINIT/ABINITv7.9.3/trunk/7.9.3-private/tests/Psps_for_tests/01h.bare
- Bare (erfc) Goedecker-Teter-Hutter  Wed May  8 14:27:44 EDT 1996
-  1.00000   1.00000    960508                znucl, zion, pspdat
    2    1    0    0      2001   0.00000      pspcod,pspxc,lmax,lloc,mmax,r2well
 rloc=   0.0050000
  cc1=   0.0000000; cc2=   0.0000000; cc3=   0.0000000; cc4=   0.0000000
  rrs=   0.0000000; h1s=   0.0000000; h2s=   0.0000000
  rrp=   0.0000000; h1p=   0.0000000
-  Local part computed in reciprocal space.

 pspatm : COMMENT -
  the projectors are not normalized,
  so that the KB energies are not consistent with 
  definition in PRB44, 8503 (1991). 
  However, this does not influence the results obtained hereafter.
 pspatm: epsatm=    0.00015708
         --- l  ekb(1:nproj) -->
 pspatm: atomic psp has been read  and splines computed

   1.57079633E-04                                ecore*ucvol(ha*bohr**3)
--------------------------------------------------------------------------------

P newkpt: treating      1 bands with npw=    9633 for ikpt=   1 by node    0
P newkpt: treating      1 bands with npw=    9633 for ikpt=   1 by node    0

_setup2: Arith. and geom. avg. npw (full set) are    9633.000    9633.000

================================================================================

     iter   Etot(hartree)      deltaE(h)  residm     vres2
 ETOT  1 -0.47770218739062    -4.777E-01 3.701E-03 4.067E+02
 ETOT  2 -0.47895966665649    -1.257E-03 5.638E-08 1.157E+02
 ETOT  3 -0.47922290644327    -2.632E-04 1.642E-04 2.664E-01
 ETOT  4 -0.47923033865136    -7.432E-06 1.030E-07 4.802E-02
 ETOT  5 -0.47923173522692    -1.397E-06 4.960E-08 6.371E-04
 ETOT  6 -0.47923173743702    -2.210E-09 3.771E-11 1.803E-04

 Compute gradient of the electron density
 and also Compute Laplacian of the electron density
--------------------------------------------------------------------------------

 Result for gradient of the electron density for each direction (1,2,3):

 1rst direction:
--------------------------------------------------------------------------------
 Gradient of the electronic density [el/Bohr^4]
,     Maximum=    3.3638E-01  at reduced coord.    0.9630    0.0000    0.0000
,     Minimum=   -3.3638E-01  at reduced coord.    0.0370    0.0000    0.0000
,  Integrated=    0.0000E+00
 Spin up density      [el/Bohr^4]
,     Maximum=    3.3638E-01  at reduced coord.    0.9630    0.0000    0.0000
,     Minimum=   -3.3638E-01  at reduced coord.    0.0370    0.0000    0.0000
,  Integrated=    0.0000E+00
 Spin down density    [el/Bohr^4]
,     Maximum=    0.0000E+00  at reduced coord.    0.9815    0.9815    0.9815
,     Minimum=    0.0000E+00  at reduced coord.    0.0000    0.0000    0.0000
,  Integrated=    0.0000E+00
 Magnetization (spin up - spin down) [el/Bohr^4]
,     Maximum=    3.3638E-01  at reduced coord.    0.9630    0.0000    0.0000
,     Minimum=   -3.3638E-01  at reduced coord.    0.0370    0.0000    0.0000
,  Integrated=    0.0000E+00
 Relative magnetization (=zeta, between -1 and 1)
,     Maximum=    1.0000E+00  at reduced coord.    0.9815    0.9815    0.9815
,     Minimum=    0.0000E+00  at reduced coord.    0.0000    0.0000    0.0000
--------------------------------------------------------------------------------

 2nd direction:
--------------------------------------------------------------------------------
 Gradient of the electronic density [el/Bohr^4]
,     Maximum=    3.3638E-01  at reduced coord.    0.0000    0.9630    0.0000
,     Minimum=   -3.3638E-01  at reduced coord.    0.0000    0.0370    0.0000
,  Integrated=    0.0000E+00
 Spin up density      [el/Bohr^4]
,     Maximum=    3.3638E-01  at reduced coord.    0.0000    0.9630    0.0000
,     Minimum=   -3.3638E-01  at reduced coord.    0.0000    0.0370    0.0000
,  Integrated=    0.0000E+00
 Spin down density    [el/Bohr^4]
,     Maximum=    0.0000E+00  at reduced coord.    0.9815    0.9815    0.9815
,     Minimum=    0.0000E+00  at reduced coord.    0.0000    0.0000    0.0000
,  Integrated=    0.0000E+00
 Magnetization (spin up - spin down) [el/Bohr^4]
,     Maximum=    3.3638E-01  at reduced coord.    0.0000    0.9630    0.0000
,     Minimum=   -3.3638E-01  at reduced coord.    0.0000    0.0370    0.0000
,  Integrated=    0.0000E+00
 Relative magnetization (=zeta, between -1 and 1)
,     Maximum=    1.0000E+00  at reduced coord.    0.9815    0.9815    0.9815
,     Minimum=    0.0000E+00  at reduced coord.    0.0000    0.0000    0.0000
--------------------------------------------------------------------------------

 3rd direction:
--------------------------------------------------------------------------------
 Gradient of the electronic density [el/Bohr^4]
,     Maximum=    3.3638E-01  at reduced coord.    0.0000    0.0000    0.9630
,     Minimum=   -3.3638E-01  at reduced coord.    0.0000    0.0000    0.0370
,  Integrated=    0.0000E+00
 Spin up density      [el/Bohr^4]
,     Maximum=    3.3638E-01  at reduced coord.    0.0000    0.0000    0.9630
,     Minimum=   -3.3638E-01  at reduced coord.    0.0000    0.0000    0.0370
,  Integrated=    0.0000E+00
 Spin down density    [el/Bohr^4]
,     Maximum=    0.0000E+00  at reduced coord.    0.9815    0.9815    0.9815
,     Minimum=    0.0000E+00  at reduced coord.    0.0000    0.0000    0.0000
,  Integrated=    0.0000E+00
 Magnetization (spin up - spin down) [el/Bohr^4]
,     Maximum=    3.3638E-01  at reduced coord.    0.0000    0.0000    0.9630
,     Minimum=   -3.3638E-01  at reduced coord.    0.0000    0.0000    0.0370
,  Integrated=    0.0000E+00
 Relative magnetization (=zeta, between -1 and 1)
,     Maximum=    1.0000E+00  at reduced coord.    0.9815    0.9815    0.9815
,     Minimum=    0.0000E+00  at reduced coord.    0.0000    0.0000    0.0000
--------------------------------------------------------------------------------

 Result for Laplacian of the electron density :

--------------------------------------------------------------------------------
 Laplacian of the electronic density [el/Bohr^5]
,     Maximum=    2.7589E-02  at reduced coord.    0.9630    0.0000    0.8519
,     Minimum=   -6.3960E+00  at reduced coord.    0.0000    0.0000    0.0000
,  Integrated=    0.0000E+00
 Spin up density      [el/Bohr^5]
,     Maximum=    2.7589E-02  at reduced coord.    0.9630    0.0000    0.8519
,     Minimum=   -6.3960E+00  at reduced coord.    0.0000    0.0000    0.0000
,  Integrated=    0.0000E+00
 Spin down density    [el/Bohr^5]
,     Maximum=    0.0000E+00  at reduced coord.    0.9815    0.9815    0.9815
,     Minimum=    0.0000E+00  at reduced coord.    0.0000    0.0000    0.0000
,  Integrated=    0.0000E+00
 Magnetization (spin up - spin down) [el/Bohr^5]
,     Maximum=    2.7589E-02  at reduced coord.    0.9630    0.0000    0.8519
,     Minimum=   -6.3960E+00  at reduced coord.    0.0000    0.0000    0.0000
,  Integrated=    0.0000E+00
 Relative magnetization (=zeta, between -1 and 1)
,     Maximum=    1.0000E+00  at reduced coord.    0.9815    0.9815    0.9815
,     Minimum=    1.0000E+00  at reduced coord.    0.0000    0.0000    0.0000
--------------------------------------------------------------------------------
--------------------------------------------------------------------------------

 Compute kinetic energy density

Result for kinetic energy density :

--------------------------------------------------------------------------------
 Total kinetic energy density [Ha/Bohr^3]
,     Maximum=    8.4782E-02  at reduced coord.    0.9815    0.9815    0.9630
,     Minimum=    1.2764E-05  at reduced coord.    0.5000    0.5000    0.5000
,  Integrated=    4.5450E-01
 Spin up density      [Ha/Bohr^3]
,     Maximum=    8.4782E-02  at reduced coord.    0.9815    0.9815    0.9630
,     Minimum=    1.2764E-05  at reduced coord.    0.5000    0.5000    0.5000
,  Integrated=    4.5450E-01
 Spin down density    [Ha/Bohr^3]
,     Maximum=    0.0000E+00  at reduced coord.    0.9815    0.9815    0.9815
,     Minimum=    0.0000E+00  at reduced coord.    0.0000    0.0000    0.0000
,  Integrated=    0.0000E+00
 Magnetization (spin up - spin down) [Ha/Bohr^3]
,     Maximum=    8.4782E-02  at reduced coord.    0.9815    0.9815    0.9630
,     Minimum=    1.2764E-05  at reduced coord.    0.5000    0.5000    0.5000
,  Integrated=    4.5450E-01
 Relative magnetization (=zeta, between -1 and 1)
,     Maximum=    1.0000E+00  at reduced coord.    0.9815    0.9815    0.9815
,     Minimum=    1.0000E+00  at reduced coord.    0.0000    0.0000    0.0000
--------------------------------------------------------------------------------

 Cartesian components of stress tensor (hartree/bohr^3)
  sigma(1 1)=  1.21871209E-05  sigma(3 2)=  0.00000000E+00
  sigma(2 2)=  1.21870496E-05  sigma(3 1)=  0.00000000E+00
  sigma(3 3)=  1.21871966E-05  sigma(2 1)=  0.00000000E+00


 scprqt:  WARNING -
  nstep=    6 was not enough SCF cycles to converge;
  maximum residual=  3.771E-11 exceeds tolwfr=  1.000E-14

================================================================================

 ----iterations are completed or convergence reached----

 Mean square residual over all n,k,spin=   3.3331E-11; max=  3.7706E-11
   0.2500  0.2500  0.2500    1  3.77058E-11 kpt; spin; max resid(k); each band:
  3.77E-11
   0.2500  0.2500  0.2500    2  2.89553E-11 kpt; spin; max resid(k); each band:
  2.90E-11
 reduced coordinates (array xred) for    1 atoms
       0.000000000000      0.000000000000      0.000000000000
 rms dE/dt=  0.0000E+00; max dE/dt=  0.0000E+00; dE/dt below (all hartree)
    1       0.000000000000      0.000000000000      0.000000000000

 cartesian coordinates (angstrom) at end:
    1      0.00000000000000     0.00000000000000     0.00000000000000

 cartesian forces (hartree/bohr) at end:
    1     -0.00000000000000    -0.00000000000000    -0.00000000000000
 frms,max,avg= 0.0000000E+00 0.0000000E+00   0.000E+00  0.000E+00  0.000E+00 h/b

 cartesian forces (eV/Angstrom) at end:
    1     -0.00000000000000    -0.00000000000000    -0.00000000000000
 frms,max,avg= 0.0000000E+00 0.0000000E+00   0.000E+00  0.000E+00  0.000E+00 e/A
 length scales=  7.000000000000  7.000000000000  7.000000000000 bohr
              =  3.704240460130  3.704240460130  3.704240460130 angstroms
 prteigrs : about to open file t21o_EIG
 Fermi (or HOMO) energy (hartree) =  -0.25196   Average Vxc (hartree)=  -0.11596
 Eigenvalues (hartree) for nkpt=   1  k points, SPIN UP:
 kpt#   1, nband=  1, wtk=  1.00000, kpt=  0.2500  0.2500  0.2500 (reduced coord)
  -0.25196
 Eigenvalues (hartree) for nkpt=   1  k points, SPIN DOWN:
 kpt#   1, nband=  1, wtk=  1.00000, kpt=  0.2500  0.2500  0.2500 (reduced coord)
  -0.08142
 Total charge density [el/Bohr^3]
,     Maximum=    2.3397E-01  at reduced coord.    0.0000    0.0000    0.0000
,Next maximum=    2.1717E-01  at reduced coord.    0.9815    0.0000    0.0000
,     Minimum=    4.0156E-05  at reduced coord.    0.5000    0.5000    0.5000
,Next minimum=    4.0304E-05  at reduced coord.    0.5000    0.5000    0.4815
,  Integrated=    1.0000E+00
 Spin up density      [el/Bohr^3]
,     Maximum=    2.3397E-01  at reduced coord.    0.0000    0.0000    0.0000
,Next maximum=    2.1717E-01  at reduced coord.    0.9815    0.0000    0.0000
,     Minimum=    4.0156E-05  at reduced coord.    0.5000    0.5000    0.5000
,Next minimum=    4.0304E-05  at reduced coord.    0.5000    0.5000    0.4815
,  Integrated=    1.0000E+00
 Spin down density    [el/Bohr^3]
,     Maximum=    0.0000E+00  at reduced coord.    0.9815    0.9815    0.9815
,Next maximum=    0.0000E+00  at reduced coord.    0.9630    0.9815    0.9815
,     Minimum=    0.0000E+00  at reduced coord.    0.0000    0.0000    0.0000
,Next minimum=    0.0000E+00  at reduced coord.    0.0185    0.0000    0.0000
,  Integrated=    0.0000E+00
 Magnetization (spin up - spin down) [el/Bohr^3]
,     Maximum=    2.3397E-01  at reduced coord.    0.0000    0.0000    0.0000
,Next maximum=    2.1717E-01  at reduced coord.    0.9815    0.0000    0.0000
,     Minimum=    4.0156E-05  at reduced coord.    0.5000    0.5000    0.5000
,Next minimum=    4.0304E-05  at reduced coord.    0.5000    0.5000    0.4815
,  Integrated=    1.0000E+00
 Relative magnetization (=zeta, between -1 and 1)
,     Maximum=    1.0000E+00  at reduced coord.    0.9815    0.9815    0.9815
,Next maximum=    1.0000E+00  at reduced coord.    0.9630    0.9815    0.9815
,     Minimum=    1.0000E+00  at reduced coord.    0.0000    0.0000    0.0000
,Next minimum=    1.0000E+00  at reduced coord.    0.0185    0.0000    0.0000

--------------------------------------------------------------------------------
 Components of total free energy (in Hartree) :

    Kinetic energy  =  4.54497967399411E-01
    Hartree energy  =  1.12433174983460E-01
    XC energy       = -2.75560330381787E-01
    Ewald energy    = -2.02664105677187E-01
    PspCore energy  =  4.57958112768191E-07
    Loc. psp. energy= -5.67938901719026E-01
    NL   psp  energy=  0.00000000000000E+00
    >>>>>>>>> Etotal= -4.79231737437016E-01

 Other information on the energy :
    Total energy(eV)= -1.30405587652934E+01 ; Band energy (Ha)=  -2.5195725941E-01
--------------------------------------------------------------------------------

 Cartesian components of stress tensor (hartree/bohr^3)
  sigma(1 1)=  1.21871209E-05  sigma(3 2)=  0.00000000E+00
  sigma(2 2)=  1.21870496E-05  sigma(3 1)=  0.00000000E+00
  sigma(3 3)=  1.21871966E-05  sigma(2 1)=  0.00000000E+00

-Cartesian components of stress tensor (GPa)         [Pressure= -3.5856E-01 GPa]
- sigma(1 1)=  3.58557415E-01  sigma(3 2)=  0.00000000E+00
- sigma(2 2)=  3.58555319E-01  sigma(3 1)=  0.00000000E+00
- sigma(3 3)=  3.58559642E-01  sigma(2 1)=  0.00000000E+00

== END DATASET(S) ==============================================================
================================================================================
  
 -outvars: echo values of variables after computation  --------
            acell      7.0000000000E+00  7.0000000000E+00  7.0000000000E+00 Bohr
              amu      1.00794000E+00
           diemac      1.00000000E+00
           diemix      5.00000000E-01
             ecut      7.00000000E+01 Hartree
           etotal     -4.7923173744E-01
            fcart     -0.0000000000E+00 -0.0000000000E+00 -0.0000000000E+00
-          fftalg         112
             iscf           3
              kpt      2.50000000E-01  2.50000000E-01  2.50000000E-01
           kptopt           0
P           mkmem           1
            natom           1
            nband           1
            ngfft          54      54      54
             nkpt           1
            nline           3
           nspden           2
           nsppol           2
            nstep           6
             nsym           8
           ntypat           1
              occ      1.000000
                       0.000000
          prtgden           1
          prtkden           1
          prtlden           1
          spgroup          47
           strten      1.2187120893E-05  1.2187049625E-05  1.2187196572E-05
                       0.0000000000E+00  0.0000000000E+00  0.0000000000E+00
           symrel      1  0  0   0  1  0   0  0  1      -1  0  0   0  1  0   0  0  1
                       1  0  0   0 -1  0   0  0  1      -1  0  0   0 -1  0   0  0  1
                       1  0  0   0  1  0   0  0 -1      -1  0  0   0  1  0   0  0 -1
                       1  0  0   0 -1  0   0  0 -1      -1  0  0   0 -1  0   0  0 -1
           timopt          -1
           tolwfr      1.00000000E-14
            typat      1
          usekden           1
            znucl        1.00000

================================================================================

 Test the timer : 
  a combined call timab(*,1,tsec) + timab(*,2,tsec) is 
- CPU time =    7.0396E-07 sec,    Wall time =    7.0445E-07 sec

- Total cpu        time (s,m,h):          3.7        0.06      0.001
- Total wall clock time (s,m,h):          3.7        0.06      0.001
-
- For major independent code sections, cpu and wall times (sec),
-  as well as % of the time and number of calls for node 0-
-<BEGIN_TIMER mpi_nprocs = 1, omp_nthreads = 1, mpi_rank = 0>
- cpu_time =            3.7, wall_time =            3.7
-
- routine                        cpu     %       wall     %      number of calls  Gflops 
-                                                                  (-1=no count)
- fourwf%(pot)                   1.905  51.4      1.907  51.4            320      -1.00    
- xc:pot/=fourdp                 0.298   8.0      0.300   8.1              7      -1.00    
- fourdp                         0.278   7.5      0.278   7.5             76      -1.00    
- mkrho/=                        0.225   6.1      0.223   6.0             28      -1.00    
- symrhg(no FFT)                 0.204   5.5      0.202   5.4             39      -1.00    
- timing timab                   0.137   3.7      0.137   3.7             14      -1.00    
- invars2                        0.112   3.0      0.114   3.1              1      -1.00    
- fourwf%(den)                   0.086   2.3      0.088   2.4             27      -1.00    
- getghc-other                   0.044   1.2      0.047   1.3             -1      -1.00    
- abinit(2)                      0.026   0.7      0.027   0.7              1      -1.00    
- stress                         0.012   0.3      0.011   0.3              1      -1.00    
- forces                         0.009   0.2      0.009   0.2              1      -1.00    
- setsym                         0.009   0.2      0.009   0.2              1      -1.00    
- vtorho(MPI)                    0.008   0.2      0.009   0.2              6      -1.00    
- projbd                         0.008   0.2      0.005   0.1             96      -1.00    
- nonlop(apply)                  0.003   0.1      0.002   0.1             64      -1.00    
- ewald2 (+vdw_dftd2)            0.002   0.1      0.001   0.0              1      -1.00    
- vtowfk(ssdiag)                 0.002   0.1      0.003   0.1             -1      -1.00    
- ewald                          0.002   0.1      0.002   0.0              1      -1.00    
- pspini                         0.001   0.0      0.001   0.0              1      -1.00    
- newkpt(excl. rwwf   )          0.001   0.0      0.001   0.0             -1      -1.00    
- kpgsph                         0.000   0.0      0.000   0.0              2      -1.00    
- vtowfk  (1)                    0.000   0.0      0.000   0.0             12      -1.00    
- scfcv-scprqt                   0.000   0.0      0.000   0.0              6      -1.00    
- status                         0.000   0.0      0.000   0.0             27      -1.00    
- nonlop(forstr)                 0.000   0.0      0.000   0.0              1      -1.00    
- vtowfk3(contrib)               0.000   0.0      0.000   0.0             -1      -1.00    
- cgwf3-O(npw)                   0.000   0.0      0.000   0.0             -1      -1.00    
- vtowfk(contrib)                0.000   0.0      0.001   0.0             12      -1.00    
- inwffil(excl. calls)           0.000   0.0      0.000   0.0              1      -1.00    
- others (75)                    0.000   0.0      0.000   0.0             -1      -1.00    
-<END_TIMER>
-
- subtotal                       3.371  91.0      3.377  90.9

- For major independent code sections, cpu and wall times (sec),
- as well as % of the total time and number of calls 

-<BEGIN_TIMER mpi_nprocs = 1, omp_nthreads = 1, mpi_rank = world>
- cpu_time =           3.7, wall_time =           3.7
-
- routine                         cpu     %       wall     %      number of calls Gflops 
-                                                                  (-1=no count)
- fourwf%(pot)                   1.905  51.4      1.907  51.4            320      -1.00    
- xc:pot/=fourdp                 0.298   8.0      0.300   8.1              7      -1.00    
- fourdp                         0.278   7.5      0.278   7.5             76      -1.00    
- mkrho/=                        0.225   6.1      0.223   6.0             28      -1.00    
- symrhg(no FFT)                 0.204   5.5      0.202   5.4             39      -1.00    
- timing timab                   0.137   3.7      0.137   3.7             14      -1.00    
- invars2                        0.112   3.0      0.114   3.1              1      -1.00    
- fourwf%(den)                   0.086   2.3      0.088   2.4             27      -1.00    
- getghc-other                   0.044   1.2      0.047   1.3             -1      -1.00    
- abinit(2)                      0.026   0.7      0.027   0.7              1      -1.00    
- stress                         0.012   0.3      0.011   0.3              1      -1.00    
- forces                         0.009   0.2      0.009   0.2              1      -1.00    
- setsym                         0.009   0.2      0.009   0.2              1      -1.00    
- vtorho(MPI)                    0.008   0.2      0.009   0.2              6      -1.00    
- projbd                         0.008   0.2      0.005   0.1             96      -1.00    
- nonlop(apply)                  0.003   0.1      0.002   0.1             64      -1.00    
- ewald2 (+vdw_dftd2)            0.002   0.1      0.001   0.0              1      -1.00    
- vtowfk(ssdiag)                 0.002   0.1      0.003   0.1             -1      -1.00    
- ewald                          0.002   0.1      0.002   0.0              1      -1.00    
- pspini                         0.001   0.0      0.001   0.0              1      -1.00    
- newkpt(excl. rwwf   )          0.001   0.0      0.001   0.0             -1      -1.00    
- kpgsph                         0.000   0.0      0.000   0.0              2      -1.00    
- vtowfk  (1)                    0.000   0.0      0.000   0.0             12      -1.00    
- scfcv-scprqt                   0.000   0.0      0.000   0.0              6      -1.00    
- status                         0.000   0.0      0.000   0.0             27      -1.00    
- nonlop(forstr)                 0.000   0.0      0.000   0.0              1      -1.00    
- vtowfk3(contrib)               0.000   0.0      0.000   0.0             -1      -1.00    
- cgwf3-O(npw)                   0.000   0.0      0.000   0.0             -1      -1.00    
- vtowfk(contrib)                0.000   0.0      0.001   0.0             12      -1.00    
- inwffil(excl. calls)           0.000   0.0      0.000   0.0              1      -1.00    
- others (75)                    0.000   0.0      0.000   0.0             -1      -1.00    
-<END_TIMER>

- subtotal                       3.371  91.0      3.377  90.9

 Partitioning of abinit
- abinit                         3.705 100.0      3.713 100.0              1
 
- abinit(1)                      0.010   0.3      0.010   0.3              1
- abinit(2)                      0.026   0.7      0.027   0.7              1
- indefo+macroin+invars2m        0.113   3.0      0.114   3.1              1
- abinit(4)                      0.012   0.3      0.011   0.3              1
- abinit(5)                      0.005   0.1      0.007   0.2              1
- driver                         3.399  91.7      3.405  91.7              1
- abinit(6)                      0.003   0.1      0.003   0.1              1
- timing timab                   0.137   3.7      0.137   3.7             14

- subtotal                       3.705 100.0      3.713 100.0

 Partitioning of driver
- driver                         3.399  91.7      3.405  91.7              1
 
- gstateimg                      3.398  91.7      3.404  91.7              1

- subtotal                       3.399  91.7      3.405  91.7

 Partitioning of gstateimg+gstate
- gstateimg                      3.398  91.7      3.404  91.7              1
 
- gstate->kpgsph                 0.012   0.3      0.013   0.3              2
- gstate  (2)                    0.025   0.7      0.024   0.7              1
- gstate(...scfcv)               3.351  90.4      3.357  90.4              1
- gstate  (3)                    0.009   0.2      0.009   0.3              1

- subtotal                       3.398  91.7      3.404  91.7

 Partitioning of scfcv
- scfcv                          3.351  90.4      3.357  90.4              1
 
- scfcv   (1)                    0.002   0.1      0.002   0.1              1
- scfcv(iniloop, setvtr  )       0.071   1.9      0.073   2.0              6
- scfcv(vtorho(f))               2.651  71.5      2.655  71.5              6
- scfcv(rhotov)                  0.338   9.1      0.337   9.1              6
- scfcv(mix pot)                 0.053   1.4      0.052   1.4              6
- scfcv(afterscfloop)            0.175   4.7      0.175   4.7              1
- scfcv(outscfcv)                0.061   1.6      0.061   1.7              1

- subtotal                       3.351  90.4      3.357  90.4

 Partitioning of rhotov
- rhotov                         0.338   9.1      0.337   9.1              6
 
- rhotov(rhohxc)                 0.308   8.3      0.306   8.3              6
- rhotov(dotprod_vn)             0.000   0.0      0.002   0.1              6
- rhotov(other)                  0.030   0.8      0.029   0.8              6

- subtotal                       0.338   9.1      0.337   9.1

 Partitioning of vtorho
- vtorho                         2.651  71.5      2.655  71.5              6
 
- vtorho(bef. spin loop)         0.006   0.2      0.005   0.1              6
- vtorho(bef. kpt  loop)         0.027   0.7      0.027   0.7             12
- vtorho(bef. vtowfk)            0.012   0.3      0.012   0.3             12
- vtowfk                         2.017  54.4      2.023  54.5             12
- vtorho(aft. kpt loop)          0.005   0.1      0.003   0.1             12
- vtorho(MPI)                    0.008   0.2      0.009   0.2              6
- vtorho(mkrho 2)                0.575  15.5      0.574  15.5             12
- (other)                        0.001   0.0      0.001   0.0             -1

- subtotal                       2.651  71.5      2.655  71.5

 Partitioning of vtowfk
- vtowfk                         2.017  54.4      2.023  54.5             12
 
- cgwf                           1.996  53.9      2.000  53.9             16
- vtowfk(subdiago)               0.002   0.1      0.002   0.0             16
- vtowfk(2)                      0.000   0.0      0.001   0.0             -1
- fourwf%vtowfk                  0.019   0.5      0.019   0.5              6
- vtowfk(3)                      0.000   0.0      0.001   0.0             -1

- subtotal                       2.017  54.4      2.023  54.5

 Partitioning of cgwf
- cgwf                           1.996  53.9      2.000  53.9             16
 
- getghc%cgwf                    1.952  52.7      1.956  52.7             64
- cgwf-O(npw)                    0.036   1.0      0.039   1.1             -1
- projbd%cgwf                    0.008   0.2      0.005   0.1             96

- subtotal                       1.996  53.9      2.000  53.9

 Partitioning of getghc
- getghc                         1.952  52.7      1.956  52.7             64
 
- fourwf%getghc                  1.905  51.4      1.907  51.4            320
- nonlop%getghc                  0.003   0.1      0.002   0.1             64
- getghc-other                   0.044   1.2      0.047   1.3             -1

- subtotal                       1.952  52.7      1.956  52.7

 Partitioning of fourwf (upwards partitioning)
- fourwf                         1.991  53.7      1.995  53.7            347
 
- fourwf%getghc                  1.905  51.4      1.907  51.4            320
- fourwf%vtowfk                  0.019   0.5      0.019   0.5              6
- fourwf%mkrho                   0.067   1.8      0.069   1.9             21

- subtotal                       1.991  53.7      1.995  53.7

 Partitioning of mkrho (upwards partitioning)
- mkrho                          0.407  11.0      0.407  11.0              7
 
- mkrho%vtorho                   0.350   9.4      0.350   9.4              6
- mkrho%afterscfloop             0.057   1.5      0.057   1.5              1

- subtotal                       0.407  11.0      0.407  11.0

 Partitioning of inwffil
- inwffil                        0.001   0.0      0.001   0.0              1
 
- inwffil(call newkpt)           0.001   0.0      0.001   0.0              1

- subtotal                       0.001   0.0      0.001   0.0

 Partitioning of newkpt
- newkpt                         0.001   0.0      0.001   0.0              1
 
- newkpt(call wfconv)            0.001   0.0      0.001   0.0              2

- subtotal                       0.001   0.0      0.001   0.0

 Partitioning of newvtr
- newvtr                         0.053   1.4      0.052   1.4              6
 
- newvtr(before selection)       0.005   0.1      0.004   0.1              6
- newvtr(call prcref_PMA)        0.006   0.2      0.006   0.2              6
- newvtr(aft. prcref_PMA)        0.025   0.7      0.025   0.7              6
- newvtr(mean potential)         0.004   0.1      0.004   0.1              6
- (other)                        0.013   0.4      0.014   0.4             -1

- subtotal                       0.053   1.4      0.052   1.4

 Partitioning of  fourdp (upwards partitioning)
- fourdp                         0.278   7.5      0.278   7.5             76
 
- fourdp%(other)                 0.278   7.5      0.278   7.5             76

- subtotal                       0.278   7.5      0.278   7.5

 Partitioning of afterscfloop
- afterscfloop                   0.175   4.7      0.175   4.7              1
 
- afterscfloop(grad/lapl)        0.090   2.4      0.090   2.4              1
- afterscfloop(kin.en.den)       0.063   1.7      0.063   1.7              1
- afterscfloop(forstr)           0.022   0.6      0.022   0.6              1

- subtotal                       0.175   4.7      0.175   4.7

 Partitioning of forstr
- forstr                         0.022   0.6      0.022   0.6              1
 
- forstr(forstrnps)              0.001   0.0      0.002   0.0              1
- forstr(forces)                 0.009   0.2      0.009   0.2              1
- forstr(stress)                 0.012   0.3      0.011   0.3              1

- subtotal                       0.022   0.6      0.022   0.6

 Partitioning of forstrnps
- forstrnps                      0.001   0.0      0.002   0.0              1
 
- forstrnps(bef.loop band)       0.001   0.0      0.001   0.0              2

- subtotal                       0.001   0.0      0.002   0.0

 Partitioning of outscfcv
- outscfcv                       0.061   1.6      0.061   1.6              1
 
- outscfcv([PAW]prtden)          0.010   0.3      0.010   0.3              1
- outscfcv(prt[g,k,l]den)        0.050   1.3      0.050   1.3              1

- subtotal                       0.060   1.6      0.060   1.6
-
-Synchronisation (=leave_test) and MPI calls 
- communic.MPI                   0.000   0.0      0.000   0.0             95
-
- forstrnps:synchr               0.000   0.0      0.000   0.0              2
- mkrho :MPIrhor                 0.000   0.0      0.000   0.0             21
-
- subtotal                       0.000   0.0      0.000   0.0

 Additional information
- timana(1)                      0.000   0.0      0.000   0.0              1
- total timab                    0.138   3.7      0.138   3.7         195985
- fourwf                         1.991  53.7      1.995  53.7            347
- mklocl(2)                      0.006   0.2      0.006   0.2              1
- status                         0.000   0.0      0.000   0.0             27
- nonlop(forstr)                 0.000   0.0      0.000   0.0              1
- nonlop(total)                  0.003   0.1      0.002   0.1             65
- xc:fourdp                      0.029   0.8      0.029   0.8              8


 Detailed analysis of some time consuming routines 
                                  tcpu    ncalls  tcpu/ncalls    ndata tcpu/ncalls/ndata
                                 (sec)                (msec)              (microsec)
- fourwf%(pot)                   1.905       320       5.952    314928       0.019
- fourwf%(den)                   0.086        27       3.185    157464       0.020
- fourdp                         0.278        76       3.657    157464       0.023
- nonlop(apply)                  0.003        64       0.047      9633       0.005
- nonlop(forces)                 0.000         0
- nonlop(forstr)                 0.000         1       0.000      9633       0.000
- projbd                         0.008        96       0.083      9633       0.009
- xc:pot/=fourdp                 0.298         7      42.565    314928       0.135

================================================================================

 Suggested references for the acknowledgment of ABINIT usage.

 The users of ABINIT have little formal obligations with respect to the ABINIT group
 (those specified in the GNU General Public License, http://www.gnu.org/copyleft/gpl.txt).
 However, it is common practice in the scientific literature,
 to acknowledge the efforts of people that have made the research possible.
 In this spirit, please find below suggested citations of work written by ABINIT developers,
 corresponding to implementations inside of ABINIT that you have used in the present run.
 Note also that it will be of great value to readers of publications presenting these results,
 to read papers enabling them to understand the theoretical formalism and details
 of the ABINIT implementation.
 For information on why they are suggested, see also http://www.abinit.org/about/?text=acknowledgments.

 [1] ABINIT : First-principles approach of materials and nanosystem properties.
 X. Gonze, B. Amadon, P.-M. Anglade, J.-M. Beuken, F. Bottin, P. Boulanger, F. Bruneval,
 D. Caliste, R. Caracas, M. Cote, T. Deutsch, L. Genovese, Ph. Ghosez, M. Giantomassi
 S. Goedecker, D.R. Hamann, P. Hermet, F. Jollet, G. Jomard, S. Leroux, M. Mancini, S. Mazevet,
 M.J.T. Oliveira, G. Onida, Y. Pouillon, T. Rangel, G.-M. Rignanese, D. Sangalli, R. Shaltaf,
 M. Torrent, M.J. Verstraete, G. Zerah, J.W. Zwanziger
 Computer Phys. Comm. 180, 2582-2615 (2009).
 Comment : the third generic paper describing the ABINIT project.
 Note that a version of this paper, that is not formatted for Computer Phys. Comm. 
 is available at http://www.abinit.org/about/ABINIT_CPC_v10.pdf .
 The licence allows the authors to put it on the Web.

 [2] A brief introduction to the ABINIT software package.
 X. Gonze, G.-M. Rignanese, M. Verstraete, J.-M. Beuken, Y. Pouillon, R. Caracas, F. Jollet,
 M. Torrent, G. Zerah, M. Mikami, Ph. Ghosez, M. Veithen, J.-Y. Raty, V. Olevano, F. Bruneval,
 L. Reining, R. Godby, G. Onida, D.R. Hamann, and D.C. Allan.
 Z. Kristallogr. 220, 558-562 (2005).
 Comment : the second generic paper describing the ABINIT project. Note that this paper
 should be cited especially if you are using the GW part of ABINIT, as several authors
 of this part are not in the list of authors of the first or third paper.
 The .pdf of the latter paper is available at http://www.abinit.org/about/zfk_0505-06_558-562.pdf.
 Note that it should not redistributed (Copyright by Oldenburg Wissenshaftverlag,
 the licence allows the authors to put it on the Web).


 And optionally :

 [3] First-principles computation of material properties : the ABINIT software project. 
 X. Gonze, J.-M. Beuken, R. Caracas, F. Detraux, M. Fuchs, G.-M. Rignanese, L. Sindic,
 M. Verstraete, G. Zerah, F. Jollet, M. Torrent, A. Roy, M. Mikami, Ph. Ghosez, J.-Y. Raty, D.C. Allan.
 Computational Materials Science 25, 478-492 (2002). http://dx.doi.org/10.1016/S0927-0256(02)00325-7
 Comment : the original paper describing the ABINIT project.

 [4] Fast radix 2, 3, 4 and 5 kernels for Fast Fourier Transformations
 on computers with overlapping multiply-add instructions.
 S. Goedecker, SIAM J. on Scientific Computing 18, 1605 (1997).
-
- Proc.   0 individual time (sec): cpu=          3.7  wall=          3.7

================================================================================

 Calculation completed.
.Delivered    7 WARNINGs and   5 COMMENTs to log file.
+Overall time at end (sec) : cpu=          3.7  wall=          3.7
