
.Version 7.5.1 of ABINIT 
.(MPI version, prepared for a x86_64_linux_gnu4.6 computer) 

.Copyright (C) 1998-2014 ABINIT group . 
 ABINIT comes with ABSOLUTELY NO WARRANTY.
 It is free software, and you are welcome to redistribute it
 under certain conditions (GNU General Public License,
 see ~abinit/COPYING or http://www.gnu.org/copyleft/gpl.txt).

 ABINIT is a project of the Universite Catholique de Louvain,
 Corning Inc. and other collaborators, see ~abinit/doc/developers/contributors.txt .
 Please read ~abinit/doc/users/acknowledgments.html for suggested
 acknowledgments of the ABINIT effort.
 For more information, see http://www.abinit.org .

.Starting date : Sat 27 Jul 2013.
- ( at 21h58 )
  
- input  file    -> /home/buildbot/ABINIT/buda_gcc46_cuda/torrent_7.5.1-public/tests/gpu/Input/t02.in
- output file    -> t02.out
- root for input  files -> t02i
- root for output files -> t02o


 DATASET    1 : space group P6_3/m m c (#194); Bravais hP (primitive hexag.)
================================================================================
 Values of the parameters that define the memory need for DATASET  1.
   intxc =         0  ionmov =         0    iscf =         7 xclevel =         1
  lmnmax =         2   lnmax =         2   mband =        14  mffmem =         1
P  mgfft =        18   mkmem =        36 mpssoang=         3     mpw =       106
  mqgrid =      3001   natom =         2    nfft =      2592    nkpt =        36
  nloalg =         4  nspden =         1 nspinor =         1  nsppol =         1
    nsym =        24  n1xccc =      2501  ntypat =         1  occopt =         7
================================================================================
P This job should need less than                       3.032 Mbytes of memory.
  Rough estimation (10% accuracy) of disk space for files :
_ WF disk file :      0.817 Mbytes ; DEN or POT disk file :      0.022 Mbytes.
================================================================================


 DATASET    2 : space group P6_3/m m c (#194); Bravais hP (primitive hexag.)
================================================================================
 Values of the parameters that define the memory need for DATASET  2.
   intxc =         0  ionmov =         0    iscf =         7 xclevel =         1
_ lmnmax =         8   lnmax =         2   mband =        14  mffmem =         1
P  mgfft =        18   mkmem =        36 mpssoang=         3     mpw =       106
  mqgrid =      3001   natom =         2    nfft =      2592    nkpt =        36
  nloalg =         4  nspden =         1 nspinor =         1  nsppol =         1
    nsym =        24  n1xccc =      2501  ntypat =         1  occopt =         7
================================================================================
P This job should need less than                       3.297 Mbytes of memory.
  Rough estimation (10% accuracy) of disk space for files :
_ WF disk file :      0.817 Mbytes ; DEN or POT disk file :      0.022 Mbytes.
================================================================================

--------------------------------------------------------------------------------
------------- Echo of variables that govern the present computation ------------
--------------------------------------------------------------------------------
-
- outvars: echo of selected default values                                      
-   accesswff0 =  0 , fftalg0 =112 , wfoptalg0 =  0
-
- outvars: echo of global parameters not present in the input file              
-  max_nthreads =    0
-
 -outvars: echo values of preprocessed input variables --------
        accesswff           1
            acell      4.6200000000E+00  4.6200000000E+00  7.5200000000E+00 Bohr
              amu      5.58470000E+01
      chksymbreak           0
             ecut      6.00000000E+00 Hartree
-          fftalg         401
      fft_opt_lob           2
           getwfk1          0
           getwfk2         -1
           iprcch           6
           jdtset        1    2
              kpt      8.33333333E-02  8.33333333E-02  8.33333333E-02
                       2.50000000E-01  8.33333333E-02  8.33333333E-02
                       4.16666667E-01  8.33333333E-02  8.33333333E-02
                      -4.16666667E-01  8.33333333E-02  8.33333333E-02
                      -2.50000000E-01  8.33333333E-02  8.33333333E-02
                      -8.33333333E-02  8.33333333E-02  8.33333333E-02
                       2.50000000E-01  2.50000000E-01  8.33333333E-02
                       4.16666667E-01  2.50000000E-01  8.33333333E-02
                      -4.16666667E-01  2.50000000E-01  8.33333333E-02
                      -2.50000000E-01  2.50000000E-01  8.33333333E-02
                       4.16666667E-01  4.16666667E-01  8.33333333E-02
                      -4.16666667E-01  4.16666667E-01  8.33333333E-02
                       8.33333333E-02  8.33333333E-02  2.50000000E-01
                       2.50000000E-01  8.33333333E-02  2.50000000E-01
                       4.16666667E-01  8.33333333E-02  2.50000000E-01
                      -4.16666667E-01  8.33333333E-02  2.50000000E-01
                      -2.50000000E-01  8.33333333E-02  2.50000000E-01
                      -8.33333333E-02  8.33333333E-02  2.50000000E-01
                       2.50000000E-01  2.50000000E-01  2.50000000E-01
                       4.16666667E-01  2.50000000E-01  2.50000000E-01
                      -4.16666667E-01  2.50000000E-01  2.50000000E-01
                      -2.50000000E-01  2.50000000E-01  2.50000000E-01
                       4.16666667E-01  4.16666667E-01  2.50000000E-01
                      -4.16666667E-01  4.16666667E-01  2.50000000E-01
                       8.33333333E-02  8.33333333E-02  4.16666667E-01
                       2.50000000E-01  8.33333333E-02  4.16666667E-01
                       4.16666667E-01  8.33333333E-02  4.16666667E-01
                      -4.16666667E-01  8.33333333E-02  4.16666667E-01
                      -2.50000000E-01  8.33333333E-02  4.16666667E-01
                      -8.33333333E-02  8.33333333E-02  4.16666667E-01
                       2.50000000E-01  2.50000000E-01  4.16666667E-01
                       4.16666667E-01  2.50000000E-01  4.16666667E-01
                      -4.16666667E-01  2.50000000E-01  4.16666667E-01
                      -2.50000000E-01  2.50000000E-01  4.16666667E-01
                       4.16666667E-01  4.16666667E-01  4.16666667E-01
                      -4.16666667E-01  4.16666667E-01  4.16666667E-01
         kptrlatt        6    0    0      0    6    0      0    0    6
          kptrlen      2.77200000E+01
P           mkmem          36
            natom           2
            nband          14
           ndtset           2
            ngfft          12      12      18
             nkpt          36
            nstep          15
             nsym          24
           ntypat           1
              occ      2.000000  2.000000  2.000000  2.000000  2.000000  2.000000
                       2.000000  2.000000  0.000000  0.000000  0.000000  0.000000
                       0.000000  0.000000
                       2.000000  2.000000  2.000000  2.000000  2.000000  2.000000
                       2.000000  2.000000  0.000000  0.000000  0.000000  0.000000
                       0.000000  0.000000
                       2.000000  2.000000  2.000000  2.000000  2.000000  2.000000
                       2.000000  2.000000  0.000000  0.000000  0.000000  0.000000
                       0.000000  0.000000
                       2.000000  2.000000  2.000000  2.000000  2.000000  2.000000
                       2.000000  2.000000  0.000000  0.000000  0.000000  0.000000
                       0.000000  0.000000
                       2.000000  2.000000  2.000000  2.000000  2.000000  2.000000
                       2.000000  2.000000  0.000000  0.000000  0.000000  0.000000
                       0.000000  0.000000
                       2.000000  2.000000  2.000000  2.000000  2.000000  2.000000
                       2.000000  2.000000  0.000000  0.000000  0.000000  0.000000
                       0.000000  0.000000
                       2.000000  2.000000  2.000000  2.000000  2.000000  2.000000
                       2.000000  2.000000  0.000000  0.000000  0.000000  0.000000
                       0.000000  0.000000
                       2.000000  2.000000  2.000000  2.000000  2.000000  2.000000
                       2.000000  2.000000  0.000000  0.000000  0.000000  0.000000
                       0.000000  0.000000
                       2.000000  2.000000  2.000000  2.000000  2.000000  2.000000
                       2.000000  2.000000  0.000000  0.000000  0.000000  0.000000
                       0.000000  0.000000
                       2.000000  2.000000  2.000000  2.000000  2.000000  2.000000
                       2.000000  2.000000  0.000000  0.000000  0.000000  0.000000
                       0.000000  0.000000
                       2.000000  2.000000  2.000000  2.000000  2.000000  2.000000
                       2.000000  2.000000  0.000000  0.000000  0.000000  0.000000
                       0.000000  0.000000
                       2.000000  2.000000  2.000000  2.000000  2.000000  2.000000
                       2.000000  2.000000  0.000000  0.000000  0.000000  0.000000
                       0.000000  0.000000
                       2.000000  2.000000  2.000000  2.000000  2.000000  2.000000
                       2.000000  2.000000  0.000000  0.000000  0.000000  0.000000
                       0.000000  0.000000
                       2.000000  2.000000  2.000000  2.000000  2.000000  2.000000
                       2.000000  2.000000  0.000000  0.000000  0.000000  0.000000
                       0.000000  0.000000
                       2.000000  2.000000  2.000000  2.000000  2.000000  2.000000
                       2.000000  2.000000  0.000000  0.000000  0.000000  0.000000
                       0.000000  0.000000
                       2.000000  2.000000  2.000000  2.000000  2.000000  2.000000
                       2.000000  2.000000  0.000000  0.000000  0.000000  0.000000
                       0.000000  0.000000
                       2.000000  2.000000  2.000000  2.000000  2.000000  2.000000
                       2.000000  2.000000  0.000000  0.000000  0.000000  0.000000
                       0.000000  0.000000
                       2.000000  2.000000  2.000000  2.000000  2.000000  2.000000
                       2.000000  2.000000  0.000000  0.000000  0.000000  0.000000
                       0.000000  0.000000
                       2.000000  2.000000  2.000000  2.000000  2.000000  2.000000
                       2.000000  2.000000  0.000000  0.000000  0.000000  0.000000
                       0.000000  0.000000
                       2.000000  2.000000  2.000000  2.000000  2.000000  2.000000
                       2.000000  2.000000  0.000000  0.000000  0.000000  0.000000
                       0.000000  0.000000
                       2.000000  2.000000  2.000000  2.000000  2.000000  2.000000
                       2.000000  2.000000  0.000000  0.000000  0.000000  0.000000
                       0.000000  0.000000
                       2.000000  2.000000  2.000000  2.000000  2.000000  2.000000
                       2.000000  2.000000  0.000000  0.000000  0.000000  0.000000
                       0.000000  0.000000
                       2.000000  2.000000  2.000000  2.000000  2.000000  2.000000
                       2.000000  2.000000  0.000000  0.000000  0.000000  0.000000
                       0.000000  0.000000
                       2.000000  2.000000  2.000000  2.000000  2.000000  2.000000
                       2.000000  2.000000  0.000000  0.000000  0.000000  0.000000
                       0.000000  0.000000
                       2.000000  2.000000  2.000000  2.000000  2.000000  2.000000
                       2.000000  2.000000  0.000000  0.000000  0.000000  0.000000
                       0.000000  0.000000
                       2.000000  2.000000  2.000000  2.000000  2.000000  2.000000
                       2.000000  2.000000  0.000000  0.000000  0.000000  0.000000
                       0.000000  0.000000
                       2.000000  2.000000  2.000000  2.000000  2.000000  2.000000
                       2.000000  2.000000  0.000000  0.000000  0.000000  0.000000
                       0.000000  0.000000
                       2.000000  2.000000  2.000000  2.000000  2.000000  2.000000
                       2.000000  2.000000  0.000000  0.000000  0.000000  0.000000
                       0.000000  0.000000
                       2.000000  2.000000  2.000000  2.000000  2.000000  2.000000
                       2.000000  2.000000  0.000000  0.000000  0.000000  0.000000
                       0.000000  0.000000
                       2.000000  2.000000  2.000000  2.000000  2.000000  2.000000
                       2.000000  2.000000  0.000000  0.000000  0.000000  0.000000
                       0.000000  0.000000
                       2.000000  2.000000  2.000000  2.000000  2.000000  2.000000
                       2.000000  2.000000  0.000000  0.000000  0.000000  0.000000
                       0.000000  0.000000
                       2.000000  2.000000  2.000000  2.000000  2.000000  2.000000
                       2.000000  2.000000  0.000000  0.000000  0.000000  0.000000
                       0.000000  0.000000
                       2.000000  2.000000  2.000000  2.000000  2.000000  2.000000
                       2.000000  2.000000  0.000000  0.000000  0.000000  0.000000
                       0.000000  0.000000
                       2.000000  2.000000  2.000000  2.000000  2.000000  2.000000
                       2.000000  2.000000  0.000000  0.000000  0.000000  0.000000
                       0.000000  0.000000
                       2.000000  2.000000  2.000000  2.000000  2.000000  2.000000
                       2.000000  2.000000  0.000000  0.000000  0.000000  0.000000
                       0.000000  0.000000
                       2.000000  2.000000  2.000000  2.000000  2.000000  2.000000
                       2.000000  2.000000  0.000000  0.000000  0.000000  0.000000
                       0.000000  0.000000
           occopt           7
-          ortalg          -2
        paral_kgb           1
           prtden           0
           prteig           0
            prtwf1          1
            prtwf2          0
            rprim      8.6602540378E-01  5.0000000000E-01  0.0000000000E+00
                      -8.6602540378E-01  5.0000000000E-01  0.0000000000E+00
                       0.0000000000E+00  0.0000000000E+00  1.0000000000E+00
           shiftk      5.00000000E-01  5.00000000E-01  5.00000000E-01
          spgroup         194
           symrel      1  0  0   0  1  0   0  0  1      -1  0  0   0 -1  0   0  0 -1
                       0  1  0   1  0  0   0  0  1       0 -1  0  -1  0  0   0  0 -1
                       1  1  0  -1  0  0   0  0  1      -1 -1  0   1  0  0   0  0 -1
                      -1  0  0   1  1  0   0  0  1       1  0  0  -1 -1  0   0  0 -1
                       0  1  0  -1 -1  0   0  0  1       0 -1  0   1  1  0   0  0 -1
                      -1 -1  0   0  1  0   0  0  1       1  1  0   0 -1  0   0  0 -1
                      -1  0  0   0 -1  0   0  0  1       1  0  0   0  1  0   0  0 -1
                       0 -1  0  -1  0  0   0  0  1       0  1  0   1  0  0   0  0 -1
                      -1 -1  0   1  0  0   0  0  1       1  1  0  -1  0  0   0  0 -1
                       1  0  0  -1 -1  0   0  0  1      -1  0  0   1  1  0   0  0 -1
                       0 -1  0   1  1  0   0  0  1       0  1  0  -1 -1  0   0  0 -1
                       1  1  0   0 -1  0   0  0  1      -1 -1  0   0  1  0   0  0 -1
            tnons      0.0000000  0.0000000  0.0000000     0.0000000  0.0000000  0.0000000
                       0.0000000  0.0000000  0.5000000     0.0000000  0.0000000  0.5000000
                       0.0000000  0.0000000  0.5000000     0.0000000  0.0000000  0.5000000
                       0.0000000  0.0000000  0.0000000     0.0000000  0.0000000  0.0000000
                       0.0000000  0.0000000  0.0000000     0.0000000  0.0000000  0.0000000
                       0.0000000  0.0000000  0.5000000     0.0000000  0.0000000  0.5000000
                       0.0000000  0.0000000  0.5000000     0.0000000  0.0000000  0.5000000
                       0.0000000  0.0000000  0.0000000     0.0000000  0.0000000  0.0000000
                       0.0000000  0.0000000  0.0000000     0.0000000  0.0000000  0.0000000
                       0.0000000  0.0000000  0.5000000     0.0000000  0.0000000  0.5000000
                       0.0000000  0.0000000  0.5000000     0.0000000  0.0000000  0.5000000
                       0.0000000  0.0000000  0.0000000     0.0000000  0.0000000  0.0000000
           tolvrs      1.00000000E-07
           tsmear      1.00000000E-02 Hartree
            typat      1  1
-          useylm1          0
-          useylm2          1
-    use_gpu_cuda1          0
-    use_gpu_cuda2          1
-        wfoptalg          14
              wtk        0.01852    0.03704    0.03704    0.03704    0.03704    0.01852
                         0.01852    0.03704    0.03704    0.01852    0.01852    0.01852
                         0.01852    0.03704    0.03704    0.03704    0.03704    0.01852
                         0.01852    0.03704    0.03704    0.01852    0.01852    0.01852
                         0.01852    0.03704    0.03704    0.03704    0.03704    0.01852
                         0.01852    0.03704    0.03704    0.01852    0.01852    0.01852
           xangst     -7.0575259484E-01  1.2223993518E+00  9.9485315215E-01
                       7.0575259484E-01  1.2223993518E+00  2.9845594564E+00
            xcart     -1.3336791218E+00  2.3100000000E+00  1.8800000000E+00
                       1.3336791218E+00  2.3100000000E+00  5.6400000000E+00
             xred      3.3333333333E-01  6.6666666667E-01  2.5000000000E-01
                       6.6666666667E-01  3.3333333333E-01  7.5000000000E-01
            znucl       26.00000

================================================================================

 chkinp: Checking input parameters for consistency, jdtset=   1.

 chkinp: Checking input parameters for consistency, jdtset=   2.

================================================================================
== DATASET  1 ==================================================================
-   nproc =    1

 Exchange-correlation functional for the present dataset will be:
  LDA: new Teter (4/93) with spin-polarized option - ixc=1
 Citation for XC functional:
  S. Goedecker, M. Teter, J. Huetter, PRB 54, 1703 (1996)

 Real(R)+Recip(G) space primitive vectors, cartesian coordinates (Bohr,Bohr^-1):
 R(1)=  4.0010374  2.3100000  0.0000000  G(1)=  0.1249676  0.2164502  0.0000000
 R(2)= -4.0010374  2.3100000  0.0000000  G(2)= -0.1249676  0.2164502  0.0000000
 R(3)=  0.0000000  0.0000000  7.5200000  G(3)=  0.0000000  0.0000000  0.1329787
 Unit cell volume ucvol=  1.3900564E+02 bohr^3
 Angles (23,13,12)=  9.00000000E+01  9.00000000E+01  1.20000000E+02 degrees

 getcut: wavevector=  0.0000  0.0000  0.0000  ngfft=  12  12  18
         ecut(hartree)=      6.000   => boxcut(ratio)=   2.17077

--- Pseudopotential description ------------------------------------------------
- pspini: atom type   1  psp file is /home/buildbot/ABINIT/buda_gcc46_cuda/torrent_7.5.1-public/tests/Psps_for_tests/26fe.pspnc
- pspatm: opening atomic psp file    /home/buildbot/ABINIT/buda_gcc46_cuda/torrent_7.5.1-public/tests/Psps_for_tests/26fe.pspnc
-  Troullier-Martins psp for element  Fe        Thu Oct 27 17:35:05 EDT 1994
- 26.00000   8.00000    940714                znucl, zion, pspdat
    1    1    2    0      2001   0.00000      pspcod,pspxc,lmax,lloc,mmax,r2well
    0   4.333  10.868    0   2.2918558        l,e99.0,e99.9,nproj,rcpsp
   0.00000000   0.00000000   0.00000000   0.00000000     rms, ekb1, ekb2, epsatm
    1   1.213   4.197    1   2.8345121        l,e99.0,e99.9,nproj,rcpsp
   0.00000000   0.00000000   0.00000000   0.00000000     rms, ekb1, ekb2, epsatm
    2  18.664  23.972    1   2.2918558        l,e99.0,e99.9,nproj,rcpsp
   0.00000000   0.00000000   0.00000000   0.00000000     rms, ekb1, ekb2, epsatm
    1.56404770202776    2.06158206779471    6.88331421535388   rchrg,fchrg,qchrg
 pspatm: epsatm=   62.03296659
         --- l  ekb(1:nproj) -->
             1    1.561134
             2   -8.115829
 pspatm: atomic psp has been read  and splines computed

   1.98505493E+03                                ecore*ucvol(ha*bohr**3)
--------------------------------------------------------------------------------

P newkpt: treating     14 bands with npw=     103 for ikpt=   1 by node    0
P newkpt: treating     14 bands with npw=      98 for ikpt=   2 by node    0
P newkpt: treating     14 bands with npw=      96 for ikpt=   3 by node    0
P newkpt: treating     14 bands with npw=      97 for ikpt=   4 by node    0
P newkpt: treating     14 bands with npw=      98 for ikpt=   5 by node    0
P newkpt: treating     14 bands with npw=     100 for ikpt=   6 by node    0
P newkpt: treating     14 bands with npw=      94 for ikpt=   7 by node    0
P newkpt: treating     14 bands with npw=      96 for ikpt=   8 by node    0
P newkpt: treating     14 bands with npw=      97 for ikpt=   9 by node    0
P newkpt: treating     14 bands with npw=     100 for ikpt=  10 by node    0
P newkpt: treating     14 bands with npw=      97 for ikpt=  11 by node    0
P newkpt: treating     14 bands with npw=      96 for ikpt=  12 by node    0
P newkpt: treating     14 bands with npw=     100 for ikpt=  13 by node    0
P newkpt: treating     14 bands with npw=      98 for ikpt=  14 by node    0
P newkpt: treating     14 bands with npw=      93 for ikpt=  15 by node    0
P newkpt: treating     14 bands with npw=      96 for ikpt=  16 by node    0
P newkpt: treating     14 bands with npw=     100 for ikpt=  17 by node    0
P newkpt: treating     14 bands with npw=     102 for ikpt=  18 by node    0
P newkpt: treating     14 bands with npw=      97 for ikpt=  19 by node    0
P newkpt: treating     14 bands with npw=      97 for ikpt=  20 by node    0
P newkpt: treating     14 bands with npw=      98 for ikpt=  21 by node    0
P newkpt: treating     14 bands with npw=     100 for ikpt=  22 by node    0
P newkpt: treating     14 bands with npw=      93 for ikpt=  23 by node    0
P newkpt: treating     14 bands with npw=      96 for ikpt=  24 by node    0
P newkpt: treating     14 bands with npw=     104 for ikpt=  25 by node    0
P newkpt: treating     14 bands with npw=      98 for ikpt=  26 by node    0
P newkpt: treating     14 bands with npw=      93 for ikpt=  27 by node    0
P newkpt: treating     14 bands with npw=      96 for ikpt=  28 by node    0
P newkpt: treating     14 bands with npw=     101 for ikpt=  29 by node    0
P newkpt: treating     14 bands with npw=     106 for ikpt=  30 by node    0
P newkpt: treating     14 bands with npw=      98 for ikpt=  31 by node    0
P newkpt: treating     14 bands with npw=      99 for ikpt=  32 by node    0
P newkpt: treating     14 bands with npw=      98 for ikpt=  33 by node    0
P newkpt: treating     14 bands with npw=      99 for ikpt=  34 by node    0
P newkpt: treating     14 bands with npw=      96 for ikpt=  35 by node    0
P newkpt: treating     14 bands with npw=      90 for ikpt=  36 by node    0

_setup2: Arith. and geom. avg. npw (full set) are      97.574      97.533

================================================================================

     iter   Etot(hartree)      deltaE(h)  residm     vres2
 ETOT  1  -38.929466125536    -3.893E+01 1.743E-03 1.598E+02
 ETOT  2  -39.179693064069    -2.502E-01 8.289E-04 6.741E-02
 ETOT  3  -39.179773063097    -8.000E-05 1.007E-04 2.290E-04
 ETOT  4  -39.179774436953    -1.374E-06 6.646E-05 6.821E-07
 ETOT  5  -39.179774443547    -6.595E-09 2.174E-05 1.284E-08

 At SCF step    5       vres2   =  1.28E-08 < tolvrs=  1.00E-07 =>converged.

 Cartesian components of stress tensor (hartree/bohr^3)
  sigma(1 1)=  2.89275799E-03  sigma(3 2)=  0.00000000E+00
  sigma(2 2)=  2.89275799E-03  sigma(3 1)=  0.00000000E+00
  sigma(3 3)=  7.33174263E-03  sigma(2 1)=  0.00000000E+00

================================================================================

 ----iterations are completed or convergence reached----

 Mean square residual over all n,k,spin=   1.1179E-07; max=  2.1738E-05
   0.0833  0.0833  0.0833    1  3.15804E-07 kpt; spin; max resid(k); each band:
  9.07E-16 4.19E-14 4.76E-15 7.08E-13 2.84E-14 3.04E-13 2.08E-12 1.27E-12
  1.78E-13 6.44E-13 6.48E-14 5.76E-09 8.27E-08 3.16E-07
   0.2500  0.0833  0.0833    1  2.04001E-07 kpt; spin; max resid(k); each band:
  5.75E-15 1.35E-13 1.46E-13 2.01E-13 2.68E-13 2.90E-13 1.12E-12 5.03E-13
  3.58E-13 2.31E-13 2.50E-13 3.59E-11 8.60E-11 2.04E-07
   0.4167  0.0833  0.0833    1  1.06044E-08 kpt; spin; max resid(k); each band:
  3.19E-13 1.43E-13 7.69E-13 7.57E-14 2.39E-12 1.25E-12 1.35E-13 2.23E-13
  7.62E-13 2.79E-13 1.11E-12 2.04E-11 1.04E-09 1.06E-08
  -0.4167  0.0833  0.0833    1  2.17375E-05 kpt; spin; max resid(k); each band:
  1.26E-14 6.35E-13 1.04E-12 7.79E-13 1.37E-12 6.40E-13 1.95E-12 1.06E-12
  3.87E-13 8.13E-13 8.21E-13 2.74E-09 1.97E-10 2.17E-05
  -0.2500  0.0833  0.0833    1  6.02900E-09 kpt; spin; max resid(k); each band:
  2.61E-15 5.74E-14 2.02E-14 3.09E-13 2.45E-13 3.29E-13 1.39E-12 8.82E-13
  9.67E-13 3.71E-13 1.13E-13 7.89E-11 2.62E-10 6.03E-09
  -0.0833  0.0833  0.0833    1  4.16721E-07 kpt; spin; max resid(k); each band:
  8.84E-16 1.76E-14 6.40E-16 3.03E-12 2.40E-13 1.03E-12 9.46E-14 5.60E-13
  1.04E-13 1.52E-13 9.89E-14 1.62E-08 9.33E-08 4.17E-07
   0.2500  0.2500  0.0833    1  1.56370E-06 kpt; spin; max resid(k); each band:
  1.24E-14 9.34E-13 2.70E-15 6.17E-13 1.68E-13 4.91E-15 3.41E-13 6.09E-13
  7.92E-14 1.30E-13 2.52E-13 8.43E-12 1.30E-08 1.56E-06
   0.4167  0.2500  0.0833    1  1.24980E-05 kpt; spin; max resid(k); each band:
  5.02E-13 2.63E-12 7.54E-13 1.46E-12 1.80E-12 2.89E-12 1.71E-12 3.90E-13
  1.13E-12 1.31E-12 1.93E-12 2.98E-11 9.97E-10 1.25E-05
  -0.4167  0.2500  0.0833    1  1.81097E-06 kpt; spin; max resid(k); each band:
  7.03E-15 1.39E-13 2.65E-13 1.72E-13 1.74E-13 1.84E-12 6.63E-13 1.97E-13
  7.11E-13 8.48E-13 4.20E-13 9.57E-10 1.65E-08 1.81E-06
  -0.2500  0.2500  0.0833    1  3.40078E-09 kpt; spin; max resid(k); each band:
  3.50E-15 9.78E-14 9.86E-14 2.99E-13 3.20E-13 5.43E-14 1.60E-12 1.21E-12
  1.89E-13 1.20E-13 3.77E-13 1.11E-11 2.78E-11 3.40E-09
   0.4167  0.4167  0.0833    1  1.62727E-05 kpt; spin; max resid(k); each band:
  1.84E-15 1.43E-13 2.39E-13 1.78E-13 7.16E-14 2.42E-13 4.05E-14 9.50E-14
  8.00E-14 1.48E-13 1.08E-13 6.34E-10 6.62E-07 1.63E-05
  -0.4167  0.4167  0.0833    1  7.08631E-08 kpt; spin; max resid(k); each band:
  2.97E-14 6.27E-13 2.82E-13 4.73E-13 2.50E-12 9.45E-13 3.96E-15 9.93E-14
  3.31E-15 4.51E-13 5.13E-13 6.08E-12 1.95E-10 7.09E-08
   0.0833  0.0833  0.2500    1  1.01039E-08 kpt; spin; max resid(k); each band:
  6.50E-16 3.78E-15 1.85E-15 1.50E-12 4.63E-14 4.05E-13 7.26E-13 1.42E-13
  4.03E-13 3.95E-13 4.53E-14 8.77E-11 3.72E-10 1.01E-08
   0.2500  0.0833  0.2500    1  1.38305E-09 kpt; spin; max resid(k); each band:
  4.65E-15 7.37E-15 7.66E-14 2.72E-13 6.06E-13 8.33E-13 4.83E-13 1.31E-13
  1.34E-13 3.04E-13 6.31E-13 2.60E-13 3.64E-12 1.38E-09
   0.4167  0.0833  0.2500    1  2.26394E-08 kpt; spin; max resid(k); each band:
  3.93E-13 2.45E-13 9.95E-13 5.71E-13 2.26E-13 4.05E-13 6.37E-13 3.25E-13
  3.46E-13 7.30E-13 4.33E-13 5.68E-13 2.16E-12 2.26E-08
  -0.4167  0.0833  0.2500    1  1.15213E-08 kpt; spin; max resid(k); each band:
  1.43E-14 3.35E-14 4.15E-13 2.66E-13 3.00E-13 6.56E-13 4.69E-13 1.17E-13
  1.50E-13 7.67E-13 7.18E-13 2.35E-12 6.59E-11 1.15E-08
  -0.2500  0.0833  0.2500    1  9.80435E-10 kpt; spin; max resid(k); each band:
  1.66E-15 4.78E-15 2.13E-14 4.08E-13 1.84E-13 2.29E-13 4.89E-13 2.40E-13
  3.38E-13 2.46E-13 3.30E-13 1.08E-12 6.53E-11 9.80E-10
  -0.0833  0.0833  0.2500    1  1.01141E-07 kpt; spin; max resid(k); each band:
  5.83E-16 2.44E-15 1.37E-15 9.82E-13 6.93E-13 1.99E-13 2.85E-13 1.85E-13
  1.63E-13 1.88E-13 7.60E-14 1.34E-09 1.01E-07 8.47E-08
   0.2500  0.2500  0.2500    1  7.00338E-10 kpt; spin; max resid(k); each band:
  1.41E-14 9.26E-14 1.10E-13 6.27E-15 2.27E-13 1.21E-14 3.36E-14 9.84E-14
  4.05E-14 7.26E-14 3.49E-13 5.10E-13 3.64E-10 7.00E-10
   0.4167  0.2500  0.2500    1  1.11117E-07 kpt; spin; max resid(k); each band:
  5.91E-13 3.16E-12 1.28E-12 1.14E-12 1.37E-12 6.04E-13 5.35E-13 6.42E-13
  2.16E-12 5.17E-13 7.20E-13 7.92E-12 5.71E-11 1.11E-07
  -0.4167  0.2500  0.2500    1  1.71910E-08 kpt; spin; max resid(k); each band:
  5.71E-15 7.12E-15 1.82E-12 9.28E-13 7.10E-13 2.28E-12 4.39E-13 3.94E-13
  6.31E-13 4.27E-13 3.15E-13 1.57E-12 8.52E-12 1.72E-08
  -0.2500  0.2500  0.2500    1  9.86897E-12 kpt; spin; max resid(k); each band:
  2.72E-15 6.27E-15 6.66E-14 3.01E-13 7.48E-13 3.72E-13 4.37E-13 1.10E-13
  1.10E-13 1.66E-13 3.01E-13 5.66E-13 1.38E-12 9.87E-12
   0.4167  0.4167  0.2500    1  1.45370E-08 kpt; spin; max resid(k); each band:
  4.84E-15 2.04E-13 1.27E-13 4.43E-14 2.32E-14 3.87E-13 2.50E-13 4.27E-14
  1.34E-13 1.69E-13 5.47E-13 6.65E-13 3.36E-09 1.45E-08
  -0.4167  0.4167  0.2500    1  1.47242E-07 kpt; spin; max resid(k); each band:
  4.51E-14 3.18E-13 2.90E-13 4.44E-13 4.39E-13 3.03E-13 6.11E-14 2.44E-14
  1.49E-13 2.90E-13 3.38E-13 3.64E-12 5.07E-11 1.47E-07
   0.0833  0.0833  0.4167    1  2.91310E-11 kpt; spin; max resid(k); each band:
  1.00E-15 1.66E-15 1.18E-14 2.79E-13 9.08E-14 3.42E-14 1.87E-13 2.08E-13
  9.66E-14 5.65E-13 1.50E-13 6.86E-13 9.95E-13 2.91E-11
   0.2500  0.0833  0.4167    1  2.47093E-12 kpt; spin; max resid(k); each band:
  3.52E-15 3.19E-15 6.47E-13 1.18E-12 8.66E-13 4.84E-13 2.02E-13 1.57E-13
  2.86E-13 5.70E-13 4.11E-13 3.69E-13 7.55E-13 2.47E-12
   0.4167  0.0833  0.4167    1  8.90032E-10 kpt; spin; max resid(k); each band:
  5.27E-13 8.48E-13 3.63E-13 3.63E-13 1.87E-13 2.33E-13 3.00E-13 2.87E-13
  4.49E-13 3.13E-12 8.92E-13 7.34E-13 5.53E-12 8.90E-10
  -0.4167  0.0833  0.4167    1  5.08115E-11 kpt; spin; max resid(k); each band:
  1.31E-14 1.50E-14 2.94E-13 2.97E-13 1.53E-13 1.61E-13 2.43E-13 2.02E-13
  2.51E-13 8.46E-13 5.02E-13 3.47E-13 4.65E-13 5.08E-11
  -0.2500  0.0833  0.4167    1  4.59250E-12 kpt; spin; max resid(k); each band:
  1.74E-15 1.78E-15 1.72E-13 3.74E-12 1.83E-12 5.55E-13 2.72E-13 1.15E-13
  6.40E-13 3.14E-13 3.70E-13 9.87E-13 5.60E-13 4.59E-12
  -0.0833  0.0833  0.4167    1  2.34989E-12 kpt; spin; max resid(k); each band:
  4.35E-16 1.23E-15 1.31E-15 2.85E-14 7.84E-14 8.44E-14 4.93E-14 6.94E-14
  4.46E-14 9.59E-14 6.04E-13 3.49E-14 1.41E-13 2.35E-12
   0.2500  0.2500  0.4167    1  5.26240E-12 kpt; spin; max resid(k); each band:
  1.57E-14 1.53E-14 1.05E-12 1.42E-12 4.84E-13 2.97E-13 9.90E-14 5.73E-13
  3.91E-13 1.22E-12 7.30E-13 5.26E-12 2.30E-13 1.58E-12
   0.4167  0.2500  0.4167    1  3.12249E-09 kpt; spin; max resid(k); each band:
  6.63E-13 1.21E-12 2.15E-12 1.94E-12 8.22E-13 6.33E-13 1.05E-12 3.27E-13
  2.17E-12 9.15E-13 3.70E-13 5.17E-13 2.15E-10 3.12E-09
  -0.4167  0.2500  0.4167    1  6.26258E-12 kpt; spin; max resid(k); each band:
  5.18E-15 5.18E-15 1.80E-12 1.14E-12 7.62E-13 6.82E-13 2.11E-13 1.83E-13
  2.43E-13 2.15E-13 7.94E-13 5.02E-13 1.24E-12 6.26E-12
  -0.2500  0.2500  0.4167    1  3.42070E-12 kpt; spin; max resid(k); each band:
  2.18E-15 1.99E-15 4.35E-13 5.49E-13 1.55E-12 5.59E-13 1.83E-13 6.62E-14
  3.83E-13 3.77E-13 1.43E-13 3.92E-13 3.61E-14 3.42E-12
   0.4167  0.4167  0.4167    1  1.80790E-11 kpt; spin; max resid(k); each band:
  8.34E-14 3.91E-13 2.08E-13 8.65E-14 2.76E-14 1.68E-14 4.93E-14 1.71E-13
  3.26E-13 1.22E-12 3.73E-13 1.86E-13 1.81E-11 9.93E-12
  -0.4167  0.4167  0.4167    1  2.81609E-10 kpt; spin; max resid(k); each band:
  3.92E-14 5.29E-14 1.18E-13 1.53E-13 5.46E-14 7.59E-14 1.46E-13 5.99E-14
  7.28E-14 1.03E-12 4.55E-13 1.15E-13 4.68E-13 2.82E-10
 reduced coordinates (array xred) for    2 atoms
       0.333333333333      0.666666666667      0.250000000000
       0.666666666667      0.333333333333      0.750000000000
 rms dE/dt=  0.0000E+00; max dE/dt=  0.0000E+00; dE/dt below (all hartree)
    1       0.000000000000      0.000000000000      0.000000000000
    2       0.000000000000      0.000000000000      0.000000000000

 cartesian coordinates (angstrom) at end:
    1     -0.70575259484372     1.22239935184290     0.99485315214920
    2      0.70575259484372     1.22239935184290     2.98455945644760

 cartesian forces (hartree/bohr) at end:
    1     -0.00000000000000    -0.00000000000000    -0.00000000000000
    2     -0.00000000000000    -0.00000000000000    -0.00000000000000
 frms,max,avg= 0.0000000E+00 0.0000000E+00   0.000E+00  0.000E+00  0.000E+00 h/b

 cartesian forces (eV/Angstrom) at end:
    1     -0.00000000000000    -0.00000000000000    -0.00000000000000
    2     -0.00000000000000    -0.00000000000000    -0.00000000000000
 frms,max,avg= 0.0000000E+00 0.0000000E+00   0.000E+00  0.000E+00  0.000E+00 e/A
 length scales=  4.620000000000  4.620000000000  7.520000000000 bohr
              =  2.444798703686  2.444798703686  3.979412608597 angstroms
 Fermi (or HOMO) energy (hartree) =   0.30214   Average Vxc (hartree)=  -0.60806
 Eigenvalues (hartree) for nkpt=  36  k points:
 kpt#   1, nband= 14, wtk=  0.01852, kpt=  0.0833  0.0833  0.0833 (reduced coord)
  -0.59092  -0.30740  -0.19895   0.14012   0.16419   0.24843   0.27853   0.28051
   0.31169   0.33039   0.46086   0.65896   0.68523   0.72233
      occupation numbers for kpt#   1
   2.00000   2.00000   2.00000   2.00000   2.00000   2.00000   1.99916   1.99778
   0.17708   0.00006   0.00000   0.00000   0.00000   0.00000
 kpt#   2, nband= 14, wtk=  0.03704, kpt=  0.2500  0.0833  0.0833 (reduced coord)
  -0.50174  -0.22938  -0.14006  -0.04145   0.08354   0.16451   0.24414   0.27540
   0.35722   0.38476   0.44555   0.61371   0.65408   0.70148
      occupation numbers for kpt#   2
   2.00000   2.00000   2.00000   2.00000   2.00000   2.00000   2.00000   1.99984
   0.00000   0.00000   0.00000   0.00000   0.00000   0.00000
 kpt#   3, nband= 14, wtk=  0.03704, kpt=  0.4167  0.0833  0.0833 (reduced coord)
  -0.35631  -0.25401  -0.11004  -0.05557  -0.01258   0.04046   0.17291   0.20470
   0.34958   0.36720   0.56204   0.64131   0.67822   0.71914
      occupation numbers for kpt#   3
   2.00000   2.00000   2.00000   2.00000   2.00000   2.00000   2.00000   2.00000
   0.00000   0.00000   0.00000   0.00000   0.00000   0.00000
 kpt#   4, nband= 14, wtk=  0.03704, kpt= -0.4167  0.0833  0.0833 (reduced coord)
  -0.43412  -0.17538  -0.15691  -0.08430   0.03853   0.08005   0.21778   0.23421
   0.36414   0.37130   0.51452   0.64239   0.66678   0.71931
      occupation numbers for kpt#   4
   2.00000   2.00000   2.00000   2.00000   2.00000   2.00000   2.00000   2.00000
   0.00000   0.00000   0.00000   0.00000   0.00000   0.00000
 kpt#   5, nband= 14, wtk=  0.03704, kpt= -0.2500  0.0833  0.0833 (reduced coord)
  -0.55463  -0.27399  -0.17322   0.06615   0.12209   0.23116   0.27012   0.30555
   0.34060   0.40049   0.43936   0.65627   0.66245   0.67904
      occupation numbers for kpt#   5
   2.00000   2.00000   2.00000   2.00000   2.00000   2.00000   1.99999   0.62945
   0.00000   0.00000   0.00000   0.00000   0.00000   0.00000
 kpt#   6, nband= 14, wtk=  0.01852, kpt= -0.0833  0.0833  0.0833 (reduced coord)
  -0.60931  -0.32458  -0.21244   0.19869   0.22636   0.25741   0.26436   0.30008
   0.35582   0.37071   0.48435   0.66743   0.68188   0.70995
      occupation numbers for kpt#   6
   2.00000   2.00000   2.00000   2.00000   2.00000   2.00000   2.00000   1.22976
   0.00000   0.00000   0.00000   0.00000   0.00000   0.00000
 kpt#   7, nband= 14, wtk=  0.01852, kpt=  0.2500  0.2500  0.0833 (reduced coord)
  -0.38424  -0.14665  -0.11669  -0.11582  -0.00749   0.09340   0.10523   0.21593
   0.27974   0.47090   0.56404   0.61693   0.70524   0.74651
      occupation numbers for kpt#   7
   2.00000   2.00000   2.00000   2.00000   2.00000   2.00000   2.00000   2.00000
   1.99847   0.00000   0.00000   0.00000   0.00000   0.00000
 kpt#   8, nband= 14, wtk=  0.03704, kpt=  0.4167  0.2500  0.0833 (reduced coord)
  -0.30716  -0.21544  -0.13990  -0.06293   0.01219   0.05171   0.08955   0.14779
   0.23794   0.52138   0.57226   0.64898   0.67001   0.75450
      occupation numbers for kpt#   8
   2.00000   2.00000   2.00000   2.00000   2.00000   2.00000   2.00000   2.00000
   2.00000   0.00000   0.00000   0.00000   0.00000   0.00000
 kpt#   9, nband= 14, wtk=  0.03704, kpt= -0.4167  0.2500  0.0833 (reduced coord)
  -0.45036  -0.18715  -0.11536  -0.07286   0.00170   0.12467   0.17274   0.24775
   0.35249   0.38963   0.48747   0.63269   0.69170   0.71425
      occupation numbers for kpt#   9
   2.00000   2.00000   2.00000   2.00000   2.00000   2.00000   2.00000   2.00000
   0.00000   0.00000   0.00000   0.00000   0.00000   0.00000
 kpt#  10, nband= 14, wtk=  0.01852, kpt= -0.2500  0.2500  0.0833 (reduced coord)
  -0.53685  -0.25827  -0.16157   0.00706   0.13388   0.20055   0.25891   0.28526
   0.35229   0.38477   0.42331   0.61660   0.64235   0.67545
      occupation numbers for kpt#  10
   2.00000   2.00000   2.00000   2.00000   2.00000   2.00000   2.00000   1.98304
   0.00000   0.00000   0.00000   0.00000   0.00000   0.00000
 kpt#  11, nband= 14, wtk=  0.01852, kpt=  0.4167  0.4167  0.0833 (reduced coord)
  -0.30932  -0.26919  -0.08855  -0.06353  -0.02445   0.05025   0.11690   0.16212
   0.30312   0.45865   0.56765   0.67380   0.69296   0.73611
      occupation numbers for kpt#  11
   2.00000   2.00000   2.00000   2.00000   2.00000   2.00000   2.00000   2.00000
   0.89067   0.00000   0.00000   0.00000   0.00000   0.00000
 kpt#  12, nband= 14, wtk=  0.01852, kpt= -0.4167  0.4167  0.0833 (reduced coord)
  -0.40206  -0.21255  -0.14807  -0.06641   0.01045   0.06591   0.23752   0.26073
   0.27851   0.38200   0.59730   0.61213   0.65270   0.72298
      occupation numbers for kpt#  12
   2.00000   2.00000   2.00000   2.00000   2.00000   2.00000   2.00000   2.00000
   1.99917   0.00000   0.00000   0.00000   0.00000   0.00000
 kpt#  13, nband= 14, wtk=  0.01852, kpt=  0.0833  0.0833  0.2500 (reduced coord)
  -0.57014  -0.39508  -0.09914   0.15993   0.18304   0.21558   0.26747   0.30448
   0.40127   0.40146   0.45379   0.63339   0.66361   0.66552
      occupation numbers for kpt#  13
   2.00000   2.00000   2.00000   2.00000   2.00000   2.00000   2.00000   0.74154
   0.00000   0.00000   0.00000   0.00000   0.00000   0.00000
 kpt#  14, nband= 14, wtk=  0.03704, kpt=  0.2500  0.0833  0.2500 (reduced coord)
  -0.48201  -0.31365  -0.06501  -0.01105   0.07216   0.13957   0.21694   0.29162
   0.38133   0.38672   0.48452   0.55329   0.63661   0.67386
      occupation numbers for kpt#  14
   2.00000   2.00000   2.00000   2.00000   2.00000   2.00000   2.00000   1.86347
   0.00000   0.00000   0.00000   0.00000   0.00000   0.00000
 kpt#  15, nband= 14, wtk=  0.03704, kpt=  0.4167  0.0833  0.2500 (reduced coord)
  -0.33788  -0.23852  -0.18181  -0.10187   0.02803   0.10718   0.21124   0.23305
   0.36263   0.38216   0.52224   0.58847   0.65438   0.71727
      occupation numbers for kpt#  15
   2.00000   2.00000   2.00000   2.00000   2.00000   2.00000   2.00000   2.00000
   0.00000   0.00000   0.00000   0.00000   0.00000   0.00000
 kpt#  16, nband= 14, wtk=  0.03704, kpt= -0.4167  0.0833  0.2500 (reduced coord)
  -0.41528  -0.25259  -0.14317  -0.02940   0.01630   0.10908   0.20107   0.27345
   0.36900   0.40557   0.47938   0.59250   0.64123   0.68168
      occupation numbers for kpt#  16
   2.00000   2.00000   2.00000   2.00000   2.00000   2.00000   2.00000   1.99995
   0.00000   0.00000   0.00000   0.00000   0.00000   0.00000
 kpt#  17, nband= 14, wtk=  0.03704, kpt= -0.2500  0.0833  0.2500 (reduced coord)
  -0.53428  -0.36178  -0.07971   0.07981   0.13084   0.19073   0.23949   0.29442
   0.38516   0.41340   0.43517   0.58922   0.63563   0.66513
      occupation numbers for kpt#  17
   2.00000   2.00000   2.00000   2.00000   2.00000   2.00000   2.00000   1.72536
   0.00000   0.00000   0.00000   0.00000   0.00000   0.00000
 kpt#  18, nband= 14, wtk=  0.01852, kpt= -0.0833  0.0833  0.2500 (reduced coord)
  -0.58838  -0.41222  -0.10659   0.19390   0.21325   0.21379   0.23111   0.26460
   0.40130   0.41729   0.48704   0.64899   0.67019   0.68452
      occupation numbers for kpt#  18
   2.00000   2.00000   2.00000   2.00000   2.00000   2.00000   2.00000   2.00000
   0.00000   0.00000   0.00000   0.00000   0.00000   0.00000
 kpt#  19, nband= 14, wtk=  0.01852, kpt=  0.2500  0.2500  0.2500 (reduced coord)
  -0.36579  -0.21027  -0.11507  -0.10168   0.03330   0.03561   0.09335   0.27162
   0.32952   0.44810   0.55030   0.57370   0.66024   0.66810
      occupation numbers for kpt#  19
   2.00000   2.00000   2.00000   2.00000   2.00000   2.00000   2.00000   1.99998
   0.00011   0.00000   0.00000   0.00000   0.00000   0.00000
 kpt#  20, nband= 14, wtk=  0.03704, kpt=  0.4167  0.2500  0.2500 (reduced coord)
  -0.28977  -0.19921  -0.14378  -0.11592  -0.05156   0.01940   0.14858   0.23178
   0.31268   0.47593   0.53199   0.61607   0.63681   0.70540
      occupation numbers for kpt#  20
   2.00000   2.00000   2.00000   2.00000   2.00000   2.00000   2.00000   2.00000
   0.13628   0.00000   0.00000   0.00000   0.00000   0.00000
 kpt#  21, nband= 14, wtk=  0.03704, kpt= -0.4167  0.2500  0.2500 (reduced coord)
  -0.43123  -0.26716  -0.08628  -0.03414   0.04117   0.08058   0.13954   0.29287
   0.36316   0.41761   0.49185   0.56999   0.61920   0.68564
      occupation numbers for kpt#  21
   2.00000   2.00000   2.00000   2.00000   2.00000   2.00000   2.00000   1.81041
   0.00000   0.00000   0.00000   0.00000   0.00000   0.00000
 kpt#  22, nband= 14, wtk=  0.01852, kpt= -0.2500  0.2500  0.2500 (reduced coord)
  -0.51667  -0.34564  -0.07358   0.02787   0.11745   0.17777   0.26128   0.31232
   0.34597   0.40502   0.44895   0.56130   0.62528   0.65363
      occupation numbers for kpt#  22
   2.00000   2.00000   2.00000   2.00000   2.00000   2.00000   2.00000   0.15011
   0.00000   0.00000   0.00000   0.00000   0.00000   0.00000
 kpt#  23, nband= 14, wtk=  0.01852, kpt=  0.4167  0.4167  0.2500 (reduced coord)
  -0.29013  -0.25352  -0.13403  -0.12223  -0.02844   0.09760   0.15475   0.19556
   0.36266   0.46604   0.51733   0.58959   0.70052   0.70831
      occupation numbers for kpt#  23
   2.00000   2.00000   2.00000   2.00000   2.00000   2.00000   2.00000   2.00000
   0.00000   0.00000   0.00000   0.00000   0.00000   0.00000
 kpt#  24, nband= 14, wtk=  0.01852, kpt= -0.4167  0.4167  0.2500 (reduced coord)
  -0.38368  -0.22426  -0.19681  -0.06718   0.02482   0.11939   0.24541   0.28043
   0.29834   0.36221   0.51894   0.60948   0.63045   0.70072
      occupation numbers for kpt#  24
   2.00000   2.00000   2.00000   2.00000   2.00000   2.00000   2.00000   1.99786
   1.40898   0.00000   0.00000   0.00000   0.00000   0.00000
 kpt#  25, nband= 14, wtk=  0.01852, kpt=  0.0833  0.0833  0.4167 (reduced coord)
  -0.52950  -0.47041  -0.00018   0.10441   0.17601   0.18895   0.23923   0.24909
   0.44014   0.45599   0.47407   0.53129   0.59458   0.63714
      occupation numbers for kpt#  25
   2.00000   2.00000   2.00000   2.00000   2.00000   2.00000   2.00000   2.00000
   0.00000   0.00000   0.00000   0.00000   0.00000   0.00000
 kpt#  26, nband= 14, wtk=  0.03704, kpt=  0.2500  0.0833  0.4167 (reduced coord)
  -0.44325  -0.38639  -0.01923   0.02225   0.06652   0.12707   0.22206   0.27042
   0.39348   0.41249   0.51300   0.54771   0.57657   0.63677
      occupation numbers for kpt#  26
   2.00000   2.00000   2.00000   2.00000   2.00000   2.00000   2.00000   1.99999
   0.00000   0.00000   0.00000   0.00000   0.00000   0.00000
 kpt#  27, nband= 14, wtk=  0.03704, kpt=  0.4167  0.0833  0.4167 (reduced coord)
  -0.30189  -0.25050  -0.20535  -0.15941   0.07364   0.11784   0.23490   0.26854
   0.38420   0.42320   0.44174   0.49688   0.64908   0.68383
      occupation numbers for kpt#  27
   2.00000   2.00000   2.00000   2.00000   2.00000   2.00000   2.00000   2.00000
   0.00000   0.00000   0.00000   0.00000   0.00000   0.00000
 kpt#  28, nband= 14, wtk=  0.03704, kpt= -0.4167  0.0833  0.4167 (reduced coord)
  -0.37787  -0.32300  -0.11349  -0.06950   0.06935   0.11842   0.21734   0.27117
   0.38149   0.40621   0.47195   0.54958   0.60237   0.65035
      occupation numbers for kpt#  28
   2.00000   2.00000   2.00000   2.00000   2.00000   2.00000   2.00000   1.99999
   0.00000   0.00000   0.00000   0.00000   0.00000   0.00000
 kpt#  29, nband= 14, wtk=  0.03704, kpt= -0.2500  0.0833  0.4167 (reduced coord)
  -0.49436  -0.43604   0.01414   0.10044   0.11214   0.13157   0.23711   0.25692
   0.41395   0.43722   0.47368   0.52498   0.59012   0.64244
      occupation numbers for kpt#  29
   2.00000   2.00000   2.00000   2.00000   2.00000   2.00000   2.00000   2.00000
   0.00000   0.00000   0.00000   0.00000   0.00000   0.00000
 kpt#  30, nband= 14, wtk=  0.01852, kpt= -0.0833  0.0833  0.4167 (reduced coord)
  -0.54739  -0.48821  -0.01171   0.08982   0.21585   0.22365   0.24259   0.26990
   0.46100   0.47473   0.48922   0.57681   0.57752   0.60674
      occupation numbers for kpt#  30
   2.00000   2.00000   2.00000   2.00000   2.00000   2.00000   2.00000   1.99999
   0.00000   0.00000   0.00000   0.00000   0.00000   0.00000
 kpt#  31, nband= 14, wtk=  0.01852, kpt=  0.2500  0.2500  0.4167 (reduced coord)
  -0.32927  -0.27585  -0.08720  -0.07743  -0.01823  -0.01500   0.19783   0.28678
   0.36340   0.45582   0.48925   0.57124   0.60215   0.62437
      occupation numbers for kpt#  31
   2.00000   2.00000   2.00000   2.00000   2.00000   2.00000   2.00000   1.97016
   0.00000   0.00000   0.00000   0.00000   0.00000   0.00000
 kpt#  32, nband= 14, wtk=  0.03704, kpt=  0.4167  0.2500  0.4167 (reduced coord)
  -0.25451  -0.20417  -0.16629  -0.12601  -0.07786  -0.03798   0.24328   0.30296
   0.36052   0.40929   0.47472   0.53193   0.63964   0.68003
      occupation numbers for kpt#  32
   2.00000   2.00000   2.00000   2.00000   2.00000   2.00000   2.00000   0.90837
   0.00000   0.00000   0.00000   0.00000   0.00000   0.00000
 kpt#  33, nband= 14, wtk=  0.03704, kpt= -0.4167  0.2500  0.4167 (reduced coord)
  -0.39350  -0.33817  -0.05427  -0.02087   0.03512   0.06856   0.17111   0.26398
   0.39263   0.45542   0.51317   0.54752   0.57160   0.62879
      occupation numbers for kpt#  33
   2.00000   2.00000   2.00000   2.00000   2.00000   2.00000   2.00000   2.00000
   0.00000   0.00000   0.00000   0.00000   0.00000   0.00000
 kpt#  34, nband= 14, wtk=  0.01852, kpt= -0.2500  0.2500  0.4167 (reduced coord)
  -0.47702  -0.41939   0.01007   0.06657   0.07834   0.13260   0.26983   0.29859
   0.35662   0.40322   0.49387   0.55295   0.57474   0.65430
      occupation numbers for kpt#  34
   2.00000   2.00000   2.00000   2.00000   2.00000   2.00000   2.00000   1.38494
   0.00000   0.00000   0.00000   0.00000   0.00000   0.00000
 kpt#  35, nband= 14, wtk=  0.01852, kpt=  0.4167  0.4167  0.4167 (reduced coord)
  -0.25331  -0.22415  -0.19834  -0.18000   0.00020   0.04663   0.23666   0.26293
   0.41669   0.43163   0.44759   0.49844   0.64757   0.66221
      occupation numbers for kpt#  35
   2.00000   2.00000   2.00000   2.00000   2.00000   2.00000   2.00000   2.00000
   0.00000   0.00000   0.00000   0.00000   0.00000   0.00000
 kpt#  36, nband= 14, wtk=  0.01852, kpt= -0.4167  0.4167  0.4167 (reduced coord)
  -0.34681  -0.29291  -0.16500  -0.11836   0.09900   0.13756   0.27269   0.28957
   0.32774   0.40957   0.44420   0.54257   0.65156   0.71479
      occupation numbers for kpt#  36
   2.00000   2.00000   2.00000   2.00000   2.00000   2.00000   1.99997   1.92463
   0.00029   0.00000   0.00000   0.00000   0.00000   0.00000
 Total charge density [el/Bohr^3]
,     Maximum=    1.5898E-01  at reduced coord.    0.5000    0.5000    0.8333
,Next maximum=    1.5898E-01  at reduced coord.    0.0000    0.5000    0.8333
,     Minimum=    3.0745E-02  at reduced coord.    0.3333    0.6667    0.2222
,Next minimum=    3.0745E-02  at reduced coord.    0.3333    0.6667    0.2778
,  Integrated=    1.6000E+01

--------------------------------------------------------------------------------
 Components of total free energy (in Hartree) :

    Kinetic energy  =  1.41465836120845E+01
    Hartree energy  =  1.16095510292011E-01
    XC energy       = -1.77759619211243E+01
    Ewald energy    = -4.49573070568508E+01
    PspCore energy  =  1.42803912328804E+01
    Loc. psp. energy= -7.25072000168753E-01
    NL   psp  energy= -4.26316343933869E+00
    >>>>> Internal E= -3.91784340622256E+01

    -kT*entropy     = -1.34038132166142E-03
    >>>>>>>>> Etotal= -3.91797744435473E+01

 Other information on the energy :
    Total energy(eV)= -1.06613588193158E+03 ; Band energy (Ha)=  -4.1339793281E-01
--------------------------------------------------------------------------------

 Cartesian components of stress tensor (hartree/bohr^3)
  sigma(1 1)=  2.89275799E-03  sigma(3 2)=  0.00000000E+00
  sigma(2 2)=  2.89275799E-03  sigma(3 1)=  0.00000000E+00
  sigma(3 3)=  7.33174263E-03  sigma(2 1)=  0.00000000E+00

-Cartesian components of stress tensor (GPa)         [Pressure= -1.2864E+02 GPa]
- sigma(1 1)=  8.51078640E+01  sigma(3 2)=  0.00000000E+00
- sigma(2 2)=  8.51078640E+01  sigma(3 1)=  0.00000000E+00
- sigma(3 3)=  2.15707279E+02  sigma(2 1)=  0.00000000E+00

================================================================================
== DATASET  2 ==================================================================
-   nproc =    1

 mkfilename : getwfk/=0, take file _WFK from output of DATASET   1.

 Exchange-correlation functional for the present dataset will be:
  LDA: new Teter (4/93) with spin-polarized option - ixc=1
 Citation for XC functional:
  S. Goedecker, M. Teter, J. Huetter, PRB 54, 1703 (1996)

 Real(R)+Recip(G) space primitive vectors, cartesian coordinates (Bohr,Bohr^-1):
 R(1)=  4.0010374  2.3100000  0.0000000  G(1)=  0.1249676  0.2164502  0.0000000
 R(2)= -4.0010374  2.3100000  0.0000000  G(2)= -0.1249676  0.2164502  0.0000000
 R(3)=  0.0000000  0.0000000  7.5200000  G(3)=  0.0000000  0.0000000  0.1329787
 Unit cell volume ucvol=  1.3900564E+02 bohr^3
 Angles (23,13,12)=  9.00000000E+01  9.00000000E+01  1.20000000E+02 degrees

 getcut: wavevector=  0.0000  0.0000  0.0000  ngfft=  12  12  18
         ecut(hartree)=      6.000   => boxcut(ratio)=   2.17077

--- Pseudopotential description ------------------------------------------------
- pspini: atom type   1  psp file is /home/buildbot/ABINIT/buda_gcc46_cuda/torrent_7.5.1-public/tests/Psps_for_tests/26fe.pspnc
- pspatm: opening atomic psp file    /home/buildbot/ABINIT/buda_gcc46_cuda/torrent_7.5.1-public/tests/Psps_for_tests/26fe.pspnc
-  Troullier-Martins psp for element  Fe        Thu Oct 27 17:35:05 EDT 1994
- 26.00000   8.00000    940714                znucl, zion, pspdat
    1    1    2    0      2001   0.00000      pspcod,pspxc,lmax,lloc,mmax,r2well
    0   4.333  10.868    0   2.2918558        l,e99.0,e99.9,nproj,rcpsp
   0.00000000   0.00000000   0.00000000   0.00000000     rms, ekb1, ekb2, epsatm
    1   1.213   4.197    1   2.8345121        l,e99.0,e99.9,nproj,rcpsp
   0.00000000   0.00000000   0.00000000   0.00000000     rms, ekb1, ekb2, epsatm
    2  18.664  23.972    1   2.2918558        l,e99.0,e99.9,nproj,rcpsp
   0.00000000   0.00000000   0.00000000   0.00000000     rms, ekb1, ekb2, epsatm
    1.56404770202776    2.06158206779471    6.88331421535388   rchrg,fchrg,qchrg
 pspatm: epsatm=   62.03296659
         --- l  ekb(1:nproj) -->
             1    1.561134
             2   -8.115829
 pspatm: atomic psp has been read  and splines computed

--------------------------------------------------------------------------------

-inwffil : will read wavefunctions from disk file t02o_DS1_WFK
P newkpt: treating     14 bands with npw=     103 for ikpt=   1 by node    0
P newkpt: treating     14 bands with npw=      98 for ikpt=   2 by node    0
P newkpt: treating     14 bands with npw=      96 for ikpt=   3 by node    0
P newkpt: treating     14 bands with npw=      97 for ikpt=   4 by node    0
P newkpt: treating     14 bands with npw=      98 for ikpt=   5 by node    0
P newkpt: treating     14 bands with npw=     100 for ikpt=   6 by node    0
P newkpt: treating     14 bands with npw=      94 for ikpt=   7 by node    0
P newkpt: treating     14 bands with npw=      96 for ikpt=   8 by node    0
P newkpt: treating     14 bands with npw=      97 for ikpt=   9 by node    0
P newkpt: treating     14 bands with npw=     100 for ikpt=  10 by node    0
P newkpt: treating     14 bands with npw=      97 for ikpt=  11 by node    0
P newkpt: treating     14 bands with npw=      96 for ikpt=  12 by node    0
P newkpt: treating     14 bands with npw=     100 for ikpt=  13 by node    0
P newkpt: treating     14 bands with npw=      98 for ikpt=  14 by node    0
P newkpt: treating     14 bands with npw=      93 for ikpt=  15 by node    0
P newkpt: treating     14 bands with npw=      96 for ikpt=  16 by node    0
P newkpt: treating     14 bands with npw=     100 for ikpt=  17 by node    0
P newkpt: treating     14 bands with npw=     102 for ikpt=  18 by node    0
P newkpt: treating     14 bands with npw=      97 for ikpt=  19 by node    0
P newkpt: treating     14 bands with npw=      97 for ikpt=  20 by node    0
P newkpt: treating     14 bands with npw=      98 for ikpt=  21 by node    0
P newkpt: treating     14 bands with npw=     100 for ikpt=  22 by node    0
P newkpt: treating     14 bands with npw=      93 for ikpt=  23 by node    0
P newkpt: treating     14 bands with npw=      96 for ikpt=  24 by node    0
P newkpt: treating     14 bands with npw=     104 for ikpt=  25 by node    0
P newkpt: treating     14 bands with npw=      98 for ikpt=  26 by node    0
P newkpt: treating     14 bands with npw=      93 for ikpt=  27 by node    0
P newkpt: treating     14 bands with npw=      96 for ikpt=  28 by node    0
P newkpt: treating     14 bands with npw=     101 for ikpt=  29 by node    0
P newkpt: treating     14 bands with npw=     106 for ikpt=  30 by node    0
P newkpt: treating     14 bands with npw=      98 for ikpt=  31 by node    0
P newkpt: treating     14 bands with npw=      99 for ikpt=  32 by node    0
P newkpt: treating     14 bands with npw=      98 for ikpt=  33 by node    0
P newkpt: treating     14 bands with npw=      99 for ikpt=  34 by node    0
P newkpt: treating     14 bands with npw=      96 for ikpt=  35 by node    0
P newkpt: treating     14 bands with npw=      90 for ikpt=  36 by node    0

_setup2: Arith. and geom. avg. npw (full set) are      97.574      97.533

================================================================================

     iter   Etot(hartree)      deltaE(h)  residm     vres2
 ETOT  1  -39.179774443599    -3.918E+01 1.347E-05 2.964E-09

 At SCF step    1       vres2   =  2.96E-09 < tolvrs=  1.00E-07 =>converged.

 Cartesian components of stress tensor (hartree/bohr^3)
  sigma(1 1)=  2.89263809E-03  sigma(3 2)=  0.00000000E+00
  sigma(2 2)=  2.89263809E-03  sigma(3 1)=  0.00000000E+00
  sigma(3 3)=  7.33188391E-03  sigma(2 1)=  0.00000000E+00

================================================================================

 ----iterations are completed or convergence reached----

 Mean square residual over all n,k,spin=   4.8261E-08; max=  1.3467E-05
   0.0833  0.0833  0.0833    1  3.38642E-07 kpt; spin; max resid(k); each band:
  1.59E-21 3.07E-18 5.68E-19 7.87E-18 1.28E-18 1.85E-17 6.78E-17 2.08E-17
  5.76E-18 4.38E-18 2.55E-17 6.22E-11 2.38E-09 3.39E-07
   0.2500  0.0833  0.0833    1  7.05347E-09 kpt; spin; max resid(k); each band:
  1.49E-20 1.46E-17 3.06E-18 5.54E-18 9.14E-18 3.93E-18 4.86E-17 1.68E-17
  6.90E-17 2.39E-17 1.99E-17 5.45E-14 3.97E-13 7.05E-09
   0.4167  0.0833  0.0833    1  4.29388E-10 kpt; spin; max resid(k); each band:
  2.47E-18 2.03E-18 4.51E-18 5.60E-18 7.84E-17 5.37E-18 6.41E-18 1.46E-16
  4.19E-17 3.67E-18 1.57E-16 9.22E-14 1.40E-11 4.29E-10
  -0.4167  0.0833  0.0833    1  3.26656E-06 kpt; spin; max resid(k); each band:
  1.75E-19 2.88E-17 1.42E-17 1.32E-17 4.68E-17 2.18E-17 4.68E-17 3.97E-17
  1.75E-17 9.22E-17 4.05E-17 1.33E-11 2.56E-12 3.27E-06
  -0.2500  0.0833  0.0833    1  5.75440E-11 kpt; spin; max resid(k); each band:
  2.99E-20 3.57E-18 8.24E-19 1.15E-17 5.08E-18 4.83E-18 6.86E-17 3.38E-17
  4.42E-17 1.65E-17 7.75E-17 1.46E-13 1.10E-12 5.75E-11
  -0.0833  0.0833  0.0833    1  3.78806E-08 kpt; spin; max resid(k); each band:
  1.67E-21 1.02E-18 2.22E-19 4.74E-17 3.20E-18 1.17E-17 5.15E-18 3.69E-18
  5.59E-17 1.05E-17 3.28E-18 1.87E-10 1.84E-09 3.79E-08
   0.2500  0.2500  0.0833    1  3.18873E-07 kpt; spin; max resid(k); each band:
  6.27E-20 1.87E-18 3.18E-20 9.20E-19 7.95E-18 1.37E-19 8.56E-18 6.32E-19
  1.03E-18 1.57E-18 4.92E-17 1.16E-14 4.24E-10 3.19E-07
   0.4167  0.2500  0.0833    1  6.57351E-06 kpt; spin; max resid(k); each band:
  2.10E-18 3.97E-17 1.65E-17 3.11E-17 7.42E-17 2.85E-17 4.85E-17 1.02E-17
  2.04E-17 1.86E-17 8.45E-17 1.05E-13 7.50E-12 6.57E-06
  -0.4167  0.2500  0.0833    1  2.49402E-07 kpt; spin; max resid(k); each band:
  1.76E-20 5.11E-17 1.86E-17 5.47E-18 2.15E-17 3.51E-17 9.30E-18 2.82E-17
  2.10E-16 5.51E-17 1.20E-16 2.84E-12 4.78E-10 2.49E-07
  -0.2500  0.2500  0.0833    1  2.47039E-11 kpt; spin; max resid(k); each band:
  3.27E-20 4.24E-18 1.20E-18 5.08E-18 5.92E-18 2.11E-18 1.49E-16 3.98E-18
  1.12E-17 4.72E-18 8.09E-18 1.43E-14 9.49E-14 2.47E-11
   0.4167  0.4167  0.0833    1  1.34668E-05 kpt; spin; max resid(k); each band:
  6.27E-20 1.08E-19 8.20E-19 6.02E-18 8.94E-20 2.96E-18 1.81E-19 4.05E-18
  3.03E-18 2.13E-18 4.99E-17 1.31E-11 3.67E-08 1.35E-05
  -0.4167  0.4167  0.0833    1  6.37658E-09 kpt; spin; max resid(k); each band:
  3.81E-19 7.09E-18 1.79E-17 1.68E-17 2.82E-17 8.92E-18 7.11E-20 4.96E-18
  1.10E-19 1.28E-17 4.15E-16 1.46E-14 1.73E-12 6.38E-09
   0.0833  0.0833  0.2500    1  4.16854E-11 kpt; spin; max resid(k); each band:
  1.68E-21 2.24E-19 4.11E-19 4.99E-18 8.39E-18 1.02E-18 3.94E-17 1.89E-18
  7.59E-18 2.74E-18 3.93E-17 1.35E-13 1.57E-12 4.17E-11
   0.2500  0.0833  0.2500    1  8.74077E-12 kpt; spin; max resid(k); each band:
  7.93E-21 9.08E-19 3.59E-18 4.89E-18 2.83E-17 1.60E-17 1.68E-17 1.18E-17
  9.13E-18 2.79E-17 1.86E-17 1.43E-17 2.15E-15 8.74E-12
   0.4167  0.0833  0.2500    1  1.01678E-10 kpt; spin; max resid(k); each band:
  3.06E-18 9.35E-19 2.76E-17 1.10E-17 1.33E-17 2.87E-18 1.40E-17 2.49E-18
  1.16E-17 8.75E-18 2.80E-17 1.16E-16 1.07E-15 1.02E-10
  -0.4167  0.0833  0.2500    1  6.54627E-11 kpt; spin; max resid(k); each band:
  2.09E-19 5.31E-19 3.70E-18 3.87E-18 1.40E-17 8.61E-18 2.59E-17 1.04E-17
  7.53E-17 7.78E-18 3.51E-17 4.76E-16 8.78E-14 6.55E-11
  -0.2500  0.0833  0.2500    1  4.94968E-12 kpt; spin; max resid(k); each band:
  2.71E-20 4.35E-19 9.79E-19 3.48E-17 1.42E-17 7.26E-18 1.98E-17 9.62E-18
  3.61E-17 1.76E-17 2.48E-17 6.62E-17 7.10E-14 4.95E-12
  -0.0833  0.0833  0.2500    1  3.28647E-09 kpt; spin; max resid(k); each band:
  8.24E-21 4.34E-20 2.92E-19 3.35E-17 7.16E-18 2.49E-18 2.73E-18 1.44E-17
  3.39E-17 4.02E-18 3.64E-17 1.19E-11 2.06E-09 3.29E-09
   0.2500  0.2500  0.2500    1  3.89395E-12 kpt; spin; max resid(k); each band:
  1.25E-19 4.47E-19 1.82E-18 3.28E-19 3.06E-17 5.19E-19 1.06E-17 3.39E-17
  2.18E-18 9.22E-18 3.59E-17 4.23E-17 1.43E-12 3.89E-12
   0.4167  0.2500  0.2500    1  6.59480E-09 kpt; spin; max resid(k); each band:
  6.97E-18 5.94E-17 9.39E-18 4.66E-17 6.16E-17 1.59E-17 3.67E-17 1.83E-17
  1.37E-17 3.84E-17 4.46E-17 1.57E-14 2.21E-13 6.59E-09
  -0.4167  0.2500  0.2500    1  2.60776E-10 kpt; spin; max resid(k); each band:
  4.13E-20 2.01E-18 2.61E-17 3.26E-18 3.65E-17 1.56E-17 9.24E-18 3.07E-17
  1.91E-17 6.51E-18 1.14E-17 1.70E-16 4.68E-15 2.61E-10
  -0.2500  0.2500  0.2500    1  1.99907E-14 kpt; spin; max resid(k); each band:
  4.08E-20 6.68E-19 1.96E-18 4.53E-18 3.57E-17 1.19E-17 3.49E-17 3.90E-18
  7.04E-18 9.29E-18 1.84E-17 4.16E-17 1.04E-15 2.00E-14
   0.4167  0.4167  0.2500    1  4.53722E-10 kpt; spin; max resid(k); each band:
  9.04E-20 5.46E-19 2.37E-18 5.87E-19 5.77E-19 3.11E-17 1.58E-18 1.25E-18
  1.28E-17 2.57E-18 3.21E-17 1.76E-16 9.70E-11 4.54E-10
  -0.4167  0.4167  0.2500    1  2.89049E-09 kpt; spin; max resid(k); each band:
  7.95E-19 2.14E-18 1.81E-18 7.07E-18 1.16E-17 4.51E-18 1.81E-18 2.68E-19
  7.75E-18 5.25E-18 6.72E-18 2.13E-15 1.03E-13 2.89E-09
   0.0833  0.0833  0.4167    1  1.69028E-14 kpt; spin; max resid(k); each band:
  2.39E-20 6.38E-20 7.42E-19 2.48E-17 1.31E-18 5.66E-18 1.05E-17 1.30E-17
  1.47E-17 2.99E-18 1.43E-18 1.07E-17 1.37E-16 1.69E-14
   0.2500  0.0833  0.4167    1  1.67469E-15 kpt; spin; max resid(k); each band:
  1.12E-20 6.84E-20 2.25E-17 2.26E-17 1.53E-17 1.41E-17 1.43E-17 6.04E-18
  1.77E-17 1.03E-17 9.84E-17 3.22E-17 1.66E-17 1.67E-15
   0.4167  0.0833  0.4167    1  4.36006E-12 kpt; spin; max resid(k); each band:
  6.51E-18 1.21E-17 3.35E-18 4.66E-18 6.77E-18 4.96E-18 1.50E-18 3.25E-18
  4.32E-18 1.18E-17 3.19E-18 6.35E-18 5.23E-15 4.36E-12
  -0.4167  0.0833  0.4167    1  1.01324E-13 kpt; spin; max resid(k); each band:
  3.31E-19 3.23E-19 1.02E-18 2.86E-18 6.54E-18 4.75E-18 4.52E-18 3.10E-18
  5.17E-18 6.21E-18 7.25E-18 8.24E-17 1.12E-16 1.01E-13
  -0.2500  0.0833  0.4167    1  2.62807E-15 kpt; spin; max resid(k); each band:
  4.24E-20 6.35E-20 9.34E-18 4.98E-16 3.03E-17 3.03E-17 1.63E-16 3.80E-17
  6.42E-17 6.93E-17 7.92E-18 1.45E-16 1.92E-16 2.63E-15
  -0.0833  0.0833  0.4167    1  5.05886E-16 kpt; spin; max resid(k); each band:
  7.26E-21 6.60E-21 5.70E-19 9.18E-19 2.43E-18 1.16E-18 1.42E-18 4.19E-18
  4.05E-18 1.67E-18 1.10E-16 2.45E-18 5.19E-17 5.06E-16
   0.2500  0.2500  0.4167    1  4.87170E-16 kpt; spin; max resid(k); each band:
  3.54E-19 5.82E-19 2.41E-17 1.73E-17 2.22E-18 1.03E-17 1.91E-17 1.88E-17
  1.05E-17 1.22E-17 1.09E-17 4.87E-16 2.69E-17 4.49E-16
   0.4167  0.2500  0.4167    1  3.60534E-11 kpt; spin; max resid(k); each band:
  1.55E-17 1.46E-17 1.86E-17 2.40E-17 8.88E-18 8.63E-18 2.57E-17 1.07E-17
  7.37E-18 2.11E-17 1.84E-17 2.83E-17 5.79E-13 3.61E-11
  -0.4167  0.2500  0.4167    1  2.51910E-15 kpt; spin; max resid(k); each band:
  4.72E-20 3.49E-20 4.58E-17 1.30E-17 4.61E-17 2.06E-17 1.87E-17 3.26E-17
  3.89E-17 1.96E-17 6.77E-17 6.99E-17 9.75E-17 2.52E-15
  -0.2500  0.2500  0.4167    1  2.37557E-15 kpt; spin; max resid(k); each band:
  2.80E-20 4.17E-20 1.85E-17 8.54E-17 3.70E-17 1.09E-17 9.73E-18 2.51E-18
  1.63E-17 2.43E-17 5.65E-18 8.43E-17 1.18E-17 2.38E-15
   0.4167  0.4167  0.4167    1  5.71913E-14 kpt; spin; max resid(k); each band:
  3.09E-19 8.86E-18 5.09E-19 1.33E-18 2.97E-18 1.23E-18 7.31E-19 9.49E-19
  1.49E-17 3.36E-16 2.30E-18 1.07E-17 5.72E-14 4.43E-14
  -0.4167  0.4167  0.4167    1  1.02301E-12 kpt; spin; max resid(k); each band:
  1.28E-18 2.21E-18 9.33E-19 1.62E-18 8.76E-18 8.71E-19 8.62E-19 1.08E-19
  1.41E-18 1.30E-17 2.50E-18 9.86E-18 1.37E-16 1.02E-12
 reduced coordinates (array xred) for    2 atoms
       0.333333333333      0.666666666667      0.250000000000
       0.666666666667      0.333333333333      0.750000000000
 rms dE/dt=  2.1254E-30; max dE/dt=  0.0000E+00; dE/dt below (all hartree)
    1      -0.000000000000     -0.000000000000      0.000000000000
    2      -0.000000000000     -0.000000000000      0.000000000000

 cartesian coordinates (angstrom) at end:
    1     -0.70575259484372     1.22239935184290     0.99485315214920
    2      0.70575259484372     1.22239935184290     2.98455945644760

 cartesian forces (hartree/bohr) at end:
    1      0.00000000000000     0.00000000000000    -0.00000000000000
    2     -0.00000000000000    -0.00000000000000    -0.00000000000000
 frms,max,avg= 1.6539514E-31 2.6288546E-31   0.000E+00  0.000E+00  0.000E+00 h/b

 cartesian forces (eV/Angstrom) at end:
    1      0.00000000000000     0.00000000000000    -0.00000000000000
    2     -0.00000000000000    -0.00000000000000    -0.00000000000000
 frms,max,avg= 8.5049594E-30 1.3518113E-29   0.000E+00  0.000E+00  0.000E+00 e/A
 length scales=  4.620000000000  4.620000000000  7.520000000000 bohr
              =  2.444798703686  2.444798703686  3.979412608597 angstroms
 Fermi (or HOMO) energy (hartree) =   0.30214   Average Vxc (hartree)=  -0.60806
 Eigenvalues (hartree) for nkpt=  36  k points:
 kpt#   1, nband= 14, wtk=  0.01852, kpt=  0.0833  0.0833  0.0833 (reduced coord)
  -0.59092  -0.30740  -0.19895   0.14012   0.16419   0.24843   0.27853   0.28051
   0.31169   0.33039   0.46086   0.65896   0.68523   0.72231
      occupation numbers for kpt#   1
   2.00000   2.00000   2.00000   2.00000   2.00000   2.00000   1.99916   1.99778
   0.17711   0.00006   0.00000   0.00000   0.00000   0.00000
 kpt#   2, nband= 14, wtk=  0.03704, kpt=  0.2500  0.0833  0.0833 (reduced coord)
  -0.50174  -0.22938  -0.14006  -0.04145   0.08354   0.16450   0.24413   0.27540
   0.35722   0.38476   0.44555   0.61371   0.65408   0.70147
      occupation numbers for kpt#   2
   2.00000   2.00000   2.00000   2.00000   2.00000   2.00000   2.00000   1.99984
   0.00000   0.00000   0.00000   0.00000   0.00000   0.00000
 kpt#   3, nband= 14, wtk=  0.03704, kpt=  0.4167  0.0833  0.0833 (reduced coord)
  -0.35632  -0.25401  -0.11004  -0.05557  -0.01258   0.04046   0.17291   0.20470
   0.34958   0.36720   0.56204   0.64131   0.67822   0.71914
      occupation numbers for kpt#   3
   2.00000   2.00000   2.00000   2.00000   2.00000   2.00000   2.00000   2.00000
   0.00000   0.00000   0.00000   0.00000   0.00000   0.00000
 kpt#   4, nband= 14, wtk=  0.03704, kpt= -0.4167  0.0833  0.0833 (reduced coord)
  -0.43412  -0.17538  -0.15691  -0.08430   0.03853   0.08005   0.21778   0.23421
   0.36414   0.37130   0.51452   0.64238   0.66678   0.71795
      occupation numbers for kpt#   4
   2.00000   2.00000   2.00000   2.00000   2.00000   2.00000   2.00000   2.00000
   0.00000   0.00000   0.00000   0.00000   0.00000   0.00000
 kpt#   5, nband= 14, wtk=  0.03704, kpt= -0.2500  0.0833  0.0833 (reduced coord)
  -0.55463  -0.27399  -0.17323   0.06615   0.12209   0.23116   0.27012   0.30555
   0.34060   0.40049   0.43936   0.65627   0.66245   0.67904
      occupation numbers for kpt#   5
   2.00000   2.00000   2.00000   2.00000   2.00000   2.00000   1.99999   0.62947
   0.00000   0.00000   0.00000   0.00000   0.00000   0.00000
 kpt#   6, nband= 14, wtk=  0.01852, kpt= -0.0833  0.0833  0.0833 (reduced coord)
  -0.60931  -0.32458  -0.21244   0.19869   0.22636   0.25741   0.26436   0.30008
   0.35582   0.37071   0.48435   0.66743   0.68187   0.70993
      occupation numbers for kpt#   6
   2.00000   2.00000   2.00000   2.00000   2.00000   2.00000   2.00000   1.22970
   0.00000   0.00000   0.00000   0.00000   0.00000   0.00000
 kpt#   7, nband= 14, wtk=  0.01852, kpt=  0.2500  0.2500  0.0833 (reduced coord)
  -0.38424  -0.14665  -0.11669  -0.11582  -0.00749   0.09340   0.10523   0.21593
   0.27974   0.47090   0.56403   0.61693   0.70524   0.74638
      occupation numbers for kpt#   7
   2.00000   2.00000   2.00000   2.00000   2.00000   2.00000   2.00000   2.00000
   1.99847   0.00000   0.00000   0.00000   0.00000   0.00000
 kpt#   8, nband= 14, wtk=  0.03704, kpt=  0.4167  0.2500  0.0833 (reduced coord)
  -0.30716  -0.21544  -0.13990  -0.06293   0.01219   0.05171   0.08955   0.14779
   0.23794   0.52137   0.57226   0.64898   0.67001   0.75376
      occupation numbers for kpt#   8
   2.00000   2.00000   2.00000   2.00000   2.00000   2.00000   2.00000   2.00000
   2.00000   0.00000   0.00000   0.00000   0.00000   0.00000
 kpt#   9, nband= 14, wtk=  0.03704, kpt= -0.4167  0.2500  0.0833 (reduced coord)
  -0.45036  -0.18715  -0.11536  -0.07286   0.00170   0.12467   0.17273   0.24775
   0.35249   0.38962   0.48747   0.63269   0.69170   0.71413
      occupation numbers for kpt#   9
   2.00000   2.00000   2.00000   2.00000   2.00000   2.00000   2.00000   2.00000
   0.00000   0.00000   0.00000   0.00000   0.00000   0.00000
 kpt#  10, nband= 14, wtk=  0.01852, kpt= -0.2500  0.2500  0.0833 (reduced coord)
  -0.53685  -0.25827  -0.16157   0.00706   0.13388   0.20055   0.25891   0.28526
   0.35229   0.38477   0.42332   0.61660   0.64235   0.67545
      occupation numbers for kpt#  10
   2.00000   2.00000   2.00000   2.00000   2.00000   2.00000   2.00000   1.98304
   0.00000   0.00000   0.00000   0.00000   0.00000   0.00000
 kpt#  11, nband= 14, wtk=  0.01852, kpt=  0.4167  0.4167  0.0833 (reduced coord)
  -0.30932  -0.26919  -0.08855  -0.06354  -0.02446   0.05025   0.11690   0.16211
   0.30311   0.45865   0.56765   0.67380   0.69293   0.73407
      occupation numbers for kpt#  11
   2.00000   2.00000   2.00000   2.00000   2.00000   2.00000   2.00000   2.00000
   0.89067   0.00000   0.00000   0.00000   0.00000   0.00000
 kpt#  12, nband= 14, wtk=  0.01852, kpt= -0.4167  0.4167  0.0833 (reduced coord)
  -0.40207  -0.21255  -0.14807  -0.06641   0.01045   0.06591   0.23752   0.26072
   0.27851   0.38200   0.59730   0.61213   0.65269   0.72298
      occupation numbers for kpt#  12
   2.00000   2.00000   2.00000   2.00000   2.00000   2.00000   2.00000   2.00000
   1.99917   0.00000   0.00000   0.00000   0.00000   0.00000
 kpt#  13, nband= 14, wtk=  0.01852, kpt=  0.0833  0.0833  0.2500 (reduced coord)
  -0.57014  -0.39508  -0.09914   0.15993   0.18304   0.21558   0.26747   0.30448
   0.40127   0.40146   0.45379   0.63339   0.66361   0.66552
      occupation numbers for kpt#  13
   2.00000   2.00000   2.00000   2.00000   2.00000   2.00000   2.00000   0.74151
   0.00000   0.00000   0.00000   0.00000   0.00000   0.00000
 kpt#  14, nband= 14, wtk=  0.03704, kpt=  0.2500  0.0833  0.2500 (reduced coord)
  -0.48201  -0.31365  -0.06501  -0.01105   0.07216   0.13956   0.21694   0.29162
   0.38133   0.38672   0.48452   0.55329   0.63660   0.67385
      occupation numbers for kpt#  14
   2.00000   2.00000   2.00000   2.00000   2.00000   2.00000   2.00000   1.86347
   0.00000   0.00000   0.00000   0.00000   0.00000   0.00000
 kpt#  15, nband= 14, wtk=  0.03704, kpt=  0.4167  0.0833  0.2500 (reduced coord)
  -0.33788  -0.23852  -0.18181  -0.10188   0.02803   0.10718   0.21124   0.23305
   0.36263   0.38216   0.52224   0.58847   0.65438   0.71727
      occupation numbers for kpt#  15
   2.00000   2.00000   2.00000   2.00000   2.00000   2.00000   2.00000   2.00000
   0.00000   0.00000   0.00000   0.00000   0.00000   0.00000
 kpt#  16, nband= 14, wtk=  0.03704, kpt= -0.4167  0.0833  0.2500 (reduced coord)
  -0.41528  -0.25259  -0.14317  -0.02940   0.01630   0.10908   0.20107   0.27345
   0.36900   0.40557   0.47938   0.59250   0.64123   0.68168
      occupation numbers for kpt#  16
   2.00000   2.00000   2.00000   2.00000   2.00000   2.00000   2.00000   1.99995
   0.00000   0.00000   0.00000   0.00000   0.00000   0.00000
 kpt#  17, nband= 14, wtk=  0.03704, kpt= -0.2500  0.0833  0.2500 (reduced coord)
  -0.53428  -0.36178  -0.07971   0.07981   0.13084   0.19073   0.23949   0.29442
   0.38516   0.41339   0.43516   0.58922   0.63563   0.66513
      occupation numbers for kpt#  17
   2.00000   2.00000   2.00000   2.00000   2.00000   2.00000   2.00000   1.72537
   0.00000   0.00000   0.00000   0.00000   0.00000   0.00000
 kpt#  18, nband= 14, wtk=  0.01852, kpt= -0.0833  0.0833  0.2500 (reduced coord)
  -0.58838  -0.41222  -0.10659   0.19390   0.21325   0.21379   0.23111   0.26460
   0.40130   0.41729   0.48704   0.64899   0.67018   0.68452
      occupation numbers for kpt#  18
   2.00000   2.00000   2.00000   2.00000   2.00000   2.00000   2.00000   2.00000
   0.00000   0.00000   0.00000   0.00000   0.00000   0.00000
 kpt#  19, nband= 14, wtk=  0.01852, kpt=  0.2500  0.2500  0.2500 (reduced coord)
  -0.36579  -0.21027  -0.11507  -0.10168   0.03330   0.03560   0.09335   0.27162
   0.32952   0.44810   0.55030   0.57370   0.66024   0.66810
      occupation numbers for kpt#  19
   2.00000   2.00000   2.00000   2.00000   2.00000   2.00000   2.00000   1.99998
   0.00011   0.00000   0.00000   0.00000   0.00000   0.00000
 kpt#  20, nband= 14, wtk=  0.03704, kpt=  0.4167  0.2500  0.2500 (reduced coord)
  -0.28977  -0.19921  -0.14378  -0.11592  -0.05156   0.01940   0.14858   0.23178
   0.31268   0.47593   0.53199   0.61607   0.63681   0.70540
      occupation numbers for kpt#  20
   2.00000   2.00000   2.00000   2.00000   2.00000   2.00000   2.00000   2.00000
   0.13628   0.00000   0.00000   0.00000   0.00000   0.00000
 kpt#  21, nband= 14, wtk=  0.03704, kpt= -0.4167  0.2500  0.2500 (reduced coord)
  -0.43123  -0.26716  -0.08628  -0.03414   0.04117   0.08058   0.13954   0.29287
   0.36316   0.41761   0.49184   0.56999   0.61920   0.68564
      occupation numbers for kpt#  21
   2.00000   2.00000   2.00000   2.00000   2.00000   2.00000   2.00000   1.81041
   0.00000   0.00000   0.00000   0.00000   0.00000   0.00000
 kpt#  22, nband= 14, wtk=  0.01852, kpt= -0.2500  0.2500  0.2500 (reduced coord)
  -0.51667  -0.34564  -0.07358   0.02787   0.11745   0.17776   0.26128   0.31232
   0.34597   0.40502   0.44895   0.56130   0.62528   0.65363
      occupation numbers for kpt#  22
   2.00000   2.00000   2.00000   2.00000   2.00000   2.00000   2.00000   0.15012
   0.00000   0.00000   0.00000   0.00000   0.00000   0.00000
 kpt#  23, nband= 14, wtk=  0.01852, kpt=  0.4167  0.4167  0.2500 (reduced coord)
  -0.29013  -0.25352  -0.13404  -0.12223  -0.02844   0.09760   0.15475   0.19556
   0.36266   0.46604   0.51733   0.58959   0.70052   0.70831
      occupation numbers for kpt#  23
   2.00000   2.00000   2.00000   2.00000   2.00000   2.00000   2.00000   2.00000
   0.00000   0.00000   0.00000   0.00000   0.00000   0.00000
 kpt#  24, nband= 14, wtk=  0.01852, kpt= -0.4167  0.4167  0.2500 (reduced coord)
  -0.38368  -0.22426  -0.19681  -0.06718   0.02482   0.11939   0.24541   0.28043
   0.29834   0.36221   0.51894   0.60948   0.63045   0.70071
      occupation numbers for kpt#  24
   2.00000   2.00000   2.00000   2.00000   2.00000   2.00000   2.00000   1.99786
   1.40902   0.00000   0.00000   0.00000   0.00000   0.00000
 kpt#  25, nband= 14, wtk=  0.01852, kpt=  0.0833  0.0833  0.4167 (reduced coord)
  -0.52950  -0.47041  -0.00018   0.10441   0.17601   0.18895   0.23923   0.24909
   0.44014   0.45599   0.47407   0.53129   0.59458   0.63714
      occupation numbers for kpt#  25
   2.00000   2.00000   2.00000   2.00000   2.00000   2.00000   2.00000   2.00000
   0.00000   0.00000   0.00000   0.00000   0.00000   0.00000
 kpt#  26, nband= 14, wtk=  0.03704, kpt=  0.2500  0.0833  0.4167 (reduced coord)
  -0.44325  -0.38639  -0.01923   0.02225   0.06652   0.12706   0.22206   0.27042
   0.39347   0.41249   0.51300   0.54771   0.57657   0.63676
      occupation numbers for kpt#  26
   2.00000   2.00000   2.00000   2.00000   2.00000   2.00000   2.00000   1.99999
   0.00000   0.00000   0.00000   0.00000   0.00000   0.00000
 kpt#  27, nband= 14, wtk=  0.03704, kpt=  0.4167  0.0833  0.4167 (reduced coord)
  -0.30189  -0.25050  -0.20535  -0.15942   0.07364   0.11784   0.23490   0.26854
   0.38420   0.42320   0.44174   0.49688   0.64908   0.68383
      occupation numbers for kpt#  27
   2.00000   2.00000   2.00000   2.00000   2.00000   2.00000   2.00000   2.00000
   0.00000   0.00000   0.00000   0.00000   0.00000   0.00000
 kpt#  28, nband= 14, wtk=  0.03704, kpt= -0.4167  0.0833  0.4167 (reduced coord)
  -0.37787  -0.32300  -0.11349  -0.06950   0.06935   0.11842   0.21734   0.27117
   0.38149   0.40621   0.47195   0.54958   0.60237   0.65035
      occupation numbers for kpt#  28
   2.00000   2.00000   2.00000   2.00000   2.00000   2.00000   2.00000   1.99999
   0.00000   0.00000   0.00000   0.00000   0.00000   0.00000
 kpt#  29, nband= 14, wtk=  0.03704, kpt= -0.2500  0.0833  0.4167 (reduced coord)
  -0.49436  -0.43604   0.01414   0.10044   0.11214   0.13157   0.23711   0.25692
   0.41395   0.43722   0.47368   0.52498   0.59012   0.64244
      occupation numbers for kpt#  29
   2.00000   2.00000   2.00000   2.00000   2.00000   2.00000   2.00000   2.00000
   0.00000   0.00000   0.00000   0.00000   0.00000   0.00000
 kpt#  30, nband= 14, wtk=  0.01852, kpt= -0.0833  0.0833  0.4167 (reduced coord)
  -0.54739  -0.48821  -0.01171   0.08982   0.21585   0.22365   0.24259   0.26990
   0.46100   0.47473   0.48922   0.57681   0.57752   0.60674
      occupation numbers for kpt#  30
   2.00000   2.00000   2.00000   2.00000   2.00000   2.00000   2.00000   1.99999
   0.00000   0.00000   0.00000   0.00000   0.00000   0.00000
 kpt#  31, nband= 14, wtk=  0.01852, kpt=  0.2500  0.2500  0.4167 (reduced coord)
  -0.32927  -0.27585  -0.08720  -0.07742  -0.01824  -0.01500   0.19783   0.28678
   0.36340   0.45582   0.48925   0.57124   0.60215   0.62437
      occupation numbers for kpt#  31
   2.00000   2.00000   2.00000   2.00000   2.00000   2.00000   2.00000   1.97016
   0.00000   0.00000   0.00000   0.00000   0.00000   0.00000
 kpt#  32, nband= 14, wtk=  0.03704, kpt=  0.4167  0.2500  0.4167 (reduced coord)
  -0.25451  -0.20417  -0.16629  -0.12601  -0.07786  -0.03798   0.24328   0.30296
   0.36052   0.40929   0.47472   0.53193   0.63964   0.68003
      occupation numbers for kpt#  32
   2.00000   2.00000   2.00000   2.00000   2.00000   2.00000   2.00000   0.90836
   0.00000   0.00000   0.00000   0.00000   0.00000   0.00000
 kpt#  33, nband= 14, wtk=  0.03704, kpt= -0.4167  0.2500  0.4167 (reduced coord)
  -0.39350  -0.33817  -0.05427  -0.02087   0.03512   0.06856   0.17111   0.26398
   0.39263   0.45542   0.51317   0.54752   0.57160   0.62879
      occupation numbers for kpt#  33
   2.00000   2.00000   2.00000   2.00000   2.00000   2.00000   2.00000   2.00000
   0.00000   0.00000   0.00000   0.00000   0.00000   0.00000
 kpt#  34, nband= 14, wtk=  0.01852, kpt= -0.2500  0.2500  0.4167 (reduced coord)
  -0.47702  -0.41939   0.01007   0.06657   0.07834   0.13260   0.26983   0.29859
   0.35662   0.40322   0.49387   0.55295   0.57474   0.65430
      occupation numbers for kpt#  34
   2.00000   2.00000   2.00000   2.00000   2.00000   2.00000   2.00000   1.38493
   0.00000   0.00000   0.00000   0.00000   0.00000   0.00000
 kpt#  35, nband= 14, wtk=  0.01852, kpt=  0.4167  0.4167  0.4167 (reduced coord)
  -0.25331  -0.22415  -0.19834  -0.18000   0.00020   0.04663   0.23666   0.26293
   0.41669   0.43163   0.44759   0.49843   0.64757   0.66221
      occupation numbers for kpt#  35
   2.00000   2.00000   2.00000   2.00000   2.00000   2.00000   2.00000   2.00000
   0.00000   0.00000   0.00000   0.00000   0.00000   0.00000
 kpt#  36, nband= 14, wtk=  0.01852, kpt= -0.4167  0.4167  0.4167 (reduced coord)
  -0.34681  -0.29291  -0.16500  -0.11836   0.09900   0.13756   0.27269   0.28957
   0.32774   0.40957   0.44420   0.54257   0.65156   0.71479
      occupation numbers for kpt#  36
   2.00000   2.00000   2.00000   2.00000   2.00000   2.00000   1.99997   1.92464
   0.00029   0.00000   0.00000   0.00000   0.00000   0.00000
 Total charge density [el/Bohr^3]
,     Maximum=    1.5898E-01  at reduced coord.    0.5000    0.5000    0.8333
,Next maximum=    1.5898E-01  at reduced coord.    0.0000    0.5000    0.8333
,     Minimum=    3.0745E-02  at reduced coord.    0.3333    0.6667    0.2222
,Next minimum=    3.0745E-02  at reduced coord.    0.3333    0.6667    0.2778
,  Integrated=    1.6000E+01

--------------------------------------------------------------------------------
 Components of total free energy (in Hartree) :

    Kinetic energy  =  1.41465907814489E+01
    Hartree energy  =  1.16096645689065E-01
    XC energy       = -1.77759642527534E+01
[...]
                       2.000000  1.999950  0.000000  0.000000  0.000000  0.000000
                       0.000000  0.000000
                       2.000000  2.000000  2.000000  2.000000  2.000000  2.000000
                       2.000000  1.725363  0.000000  0.000000  0.000000  0.000000
                       0.000000  0.000000
                       2.000000  2.000000  2.000000  2.000000  2.000000  2.000000
                       2.000000  2.000000  0.000000  0.000000  0.000000  0.000000
                       0.000000  0.000000
                       2.000000  2.000000  2.000000  2.000000  2.000000  2.000000
                       2.000000  1.999984  0.000108  0.000000  0.000000  0.000000
                       0.000000  0.000000
                       2.000000  2.000000  2.000000  2.000000  2.000000  2.000000
                       2.000000  2.000000  0.136280  0.000000  0.000000  0.000000
                       0.000000  0.000000
                       2.000000  2.000000  2.000000  2.000000  2.000000  2.000000
                       2.000000  1.810414  0.000000  0.000000  0.000000  0.000000
                       0.000000  0.000000
                       2.000000  2.000000  2.000000  2.000000  2.000000  2.000000
                       2.000000  0.150113  0.000000  0.000000  0.000000  0.000000
                       0.000000  0.000000
                       2.000000  2.000000  2.000000  2.000000  2.000000  2.000000
                       2.000000  2.000000  0.000000  0.000000  0.000000  0.000000
                       0.000000  0.000000
                       2.000000  2.000000  2.000000  2.000000  2.000000  2.000000
                       2.000000  1.997863  1.408978  0.000000  0.000000  0.000000
                       0.000000  0.000000
                       2.000000  2.000000  2.000000  2.000000  2.000000  2.000000
                       2.000000  2.000000  0.000000  0.000000  0.000000  0.000000
                       0.000000  0.000000
                       2.000000  2.000000  2.000000  2.000000  2.000000  2.000000
                       2.000000  1.999993  0.000000  0.000000  0.000000  0.000000
                       0.000000  0.000000
                       2.000000  2.000000  2.000000  2.000000  2.000000  2.000000
                       2.000000  1.999998  0.000000  0.000000  0.000000  0.000000
                       0.000000  0.000000
                       2.000000  2.000000  2.000000  2.000000  2.000000  2.000000
                       2.000000  1.999988  0.000000  0.000000  0.000000  0.000000
                       0.000000  0.000000
                       2.000000  2.000000  2.000000  2.000000  2.000000  2.000000
                       2.000000  2.000000  0.000000  0.000000  0.000000  0.000000
                       0.000000  0.000000
                       2.000000  2.000000  2.000000  2.000000  2.000000  2.000000
                       2.000000  1.999995  0.000000  0.000000  0.000000  0.000000
                       0.000000  0.000000
                       2.000000  2.000000  2.000000  2.000000  2.000000  2.000000
                       2.000000  1.970160  0.000000  0.000000  0.000000  0.000000
                       0.000000  0.000000
                       2.000000  2.000000  2.000000  2.000000  2.000000  2.000000
                       2.000000  0.908371  0.000000  0.000000  0.000000  0.000000
                       0.000000  0.000000
                       2.000000  2.000000  2.000000  2.000000  2.000000  2.000000
                       2.000000  2.000000  0.000000  0.000000  0.000000  0.000000
                       0.000000  0.000000
                       2.000000  2.000000  2.000000  2.000000  2.000000  2.000000
                       1.999995  1.384942  0.000000  0.000000  0.000000  0.000000
                       0.000000  0.000000
                       2.000000  2.000000  2.000000  2.000000  2.000000  2.000000
                       2.000000  2.000000  0.000000  0.000000  0.000000  0.000000
                       0.000000  0.000000
                       2.000000  2.000000  2.000000  2.000000  2.000000  2.000000
                       1.999969  1.924635  0.000294  0.000000  0.000000  0.000000
                       0.000000  0.000000
              occ2     2.000000  2.000000  2.000000  2.000000  2.000000  2.000000
                       1.999160  1.997783  0.177107  0.000065  0.000000  0.000000
                       0.000000  0.000000
                       2.000000  2.000000  2.000000  2.000000  2.000000  2.000000
                       2.000000  1.999844  0.000000  0.000000  0.000000  0.000000
                       0.000000  0.000000
                       2.000000  2.000000  2.000000  2.000000  2.000000  2.000000
                       2.000000  2.000000  0.000000  0.000000  0.000000  0.000000
                       0.000000  0.000000
                       2.000000  2.000000  2.000000  2.000000  2.000000  2.000000
                       2.000000  2.000000  0.000000  0.000000  0.000000  0.000000
                       0.000000  0.000000
                       2.000000  2.000000  2.000000  2.000000  2.000000  2.000000
                       1.999994  0.629473  0.000000  0.000000  0.000000  0.000000
                       0.000000  0.000000
                       2.000000  2.000000  2.000000  2.000000  2.000000  2.000000
                       2.000000  1.229698  0.000000  0.000000  0.000000  0.000000
                       0.000000  0.000000
                       2.000000  2.000000  2.000000  2.000000  2.000000  2.000000
                       2.000000  2.000000  1.998470  0.000000  0.000000  0.000000
                       0.000000  0.000000
                       2.000000  2.000000  2.000000  2.000000  2.000000  2.000000
                       2.000000  2.000000  2.000000  0.000000  0.000000  0.000000
                       0.000000  0.000000
                       2.000000  2.000000  2.000000  2.000000  2.000000  2.000000
                       2.000000  2.000000  0.000000  0.000000  0.000000  0.000000
                       0.000000  0.000000
                       2.000000  2.000000  2.000000  2.000000  2.000000  2.000000
                       2.000000  1.983044  0.000000  0.000000  0.000000  0.000000
                       0.000000  0.000000
                       2.000000  2.000000  2.000000  2.000000  2.000000  2.000000
                       2.000000  2.000000  0.890674  0.000000  0.000000  0.000000
                       0.000000  0.000000
                       2.000000  2.000000  2.000000  2.000000  2.000000  2.000000
                       2.000000  2.000000  1.999171  0.000000  0.000000  0.000000
                       0.000000  0.000000
                       2.000000  2.000000  2.000000  2.000000  2.000000  2.000000
                       1.999999  0.741512  0.000000  0.000000  0.000000  0.000000
                       0.000000  0.000000
                       2.000000  2.000000  2.000000  2.000000  2.000000  2.000000
                       2.000000  1.863472  0.000000  0.000000  0.000000  0.000000
                       0.000000  0.000000
                       2.000000  2.000000  2.000000  2.000000  2.000000  2.000000
                       2.000000  2.000000  0.000000  0.000000  0.000000  0.000000
                       0.000000  0.000000
                       2.000000  2.000000  2.000000  2.000000  2.000000  2.000000
                       2.000000  1.999950  0.000000  0.000000  0.000000  0.000000
                       0.000000  0.000000
                       2.000000  2.000000  2.000000  2.000000  2.000000  2.000000
                       2.000000  1.725366  0.000000  0.000000  0.000000  0.000000
                       0.000000  0.000000
                       2.000000  2.000000  2.000000  2.000000  2.000000  2.000000
                       2.000000  2.000000  0.000000  0.000000  0.000000  0.000000
                       0.000000  0.000000
                       2.000000  2.000000  2.000000  2.000000  2.000000  2.000000
                       2.000000  1.999984  0.000108  0.000000  0.000000  0.000000
                       0.000000  0.000000
                       2.000000  2.000000  2.000000  2.000000  2.000000  2.000000
                       2.000000  2.000000  0.136278  0.000000  0.000000  0.000000
                       0.000000  0.000000
                       2.000000  2.000000  2.000000  2.000000  2.000000  2.000000
                       2.000000  1.810406  0.000000  0.000000  0.000000  0.000000
                       0.000000  0.000000
                       2.000000  2.000000  2.000000  2.000000  2.000000  2.000000
                       2.000000  0.150123  0.000000  0.000000  0.000000  0.000000
                       0.000000  0.000000
                       2.000000  2.000000  2.000000  2.000000  2.000000  2.000000
                       2.000000  2.000000  0.000000  0.000000  0.000000  0.000000
                       0.000000  0.000000
                       2.000000  2.000000  2.000000  2.000000  2.000000  2.000000
                       2.000000  1.997863  1.409017  0.000000  0.000000  0.000000
                       0.000000  0.000000
                       2.000000  2.000000  2.000000  2.000000  2.000000  2.000000
                       2.000000  2.000000  0.000000  0.000000  0.000000  0.000000
                       0.000000  0.000000
                       2.000000  2.000000  2.000000  2.000000  2.000000  2.000000
                       2.000000  1.999993  0.000000  0.000000  0.000000  0.000000
                       0.000000  0.000000
                       2.000000  2.000000  2.000000  2.000000  2.000000  2.000000
                       2.000000  1.999998  0.000000  0.000000  0.000000  0.000000
                       0.000000  0.000000
                       2.000000  2.000000  2.000000  2.000000  2.000000  2.000000
                       2.000000  1.999988  0.000000  0.000000  0.000000  0.000000
                       0.000000  0.000000
                       2.000000  2.000000  2.000000  2.000000  2.000000  2.000000
                       2.000000  2.000000  0.000000  0.000000  0.000000  0.000000
                       0.000000  0.000000
                       2.000000  2.000000  2.000000  2.000000  2.000000  2.000000
                       2.000000  1.999995  0.000000  0.000000  0.000000  0.000000
                       0.000000  0.000000
                       2.000000  2.000000  2.000000  2.000000  2.000000  2.000000
                       2.000000  1.970158  0.000000  0.000000  0.000000  0.000000
                       0.000000  0.000000
                       2.000000  2.000000  2.000000  2.000000  2.000000  2.000000
                       2.000000  0.908356  0.000000  0.000000  0.000000  0.000000
                       0.000000  0.000000
                       2.000000  2.000000  2.000000  2.000000  2.000000  2.000000
                       2.000000  2.000000  0.000000  0.000000  0.000000  0.000000
                       0.000000  0.000000
                       2.000000  2.000000  2.000000  2.000000  2.000000  2.000000
                       1.999995  1.384935  0.000000  0.000000  0.000000  0.000000
                       0.000000  0.000000
                       2.000000  2.000000  2.000000  2.000000  2.000000  2.000000
                       2.000000  2.000000  0.000000  0.000000  0.000000  0.000000
                       0.000000  0.000000
                       2.000000  2.000000  2.000000  2.000000  2.000000  2.000000
                       1.999969  1.924636  0.000294  0.000000  0.000000  0.000000
                       0.000000  0.000000
           occopt           7
-          ortalg          -2
        paral_kgb           1
           prtden           0
           prteig           0
            prtwf1          1
            prtwf2          0
            rprim      8.6602540378E-01  5.0000000000E-01  0.0000000000E+00
                      -8.6602540378E-01  5.0000000000E-01  0.0000000000E+00
                       0.0000000000E+00  0.0000000000E+00  1.0000000000E+00
           shiftk      5.00000000E-01  5.00000000E-01  5.00000000E-01
          spgroup         194
           strten1     2.8927579873E-03  2.8927579873E-03  7.3317426277E-03
                       0.0000000000E+00  0.0000000000E+00  0.0000000000E+00
           strten2     2.8926380866E-03  2.8926380866E-03  7.3318839068E-03
                       0.0000000000E+00  0.0000000000E+00  0.0000000000E+00
           symrel      1  0  0   0  1  0   0  0  1      -1  0  0   0 -1  0   0  0 -1
                       0  1  0   1  0  0   0  0  1       0 -1  0  -1  0  0   0  0 -1
                       1  1  0  -1  0  0   0  0  1      -1 -1  0   1  0  0   0  0 -1
                      -1  0  0   1  1  0   0  0  1       1  0  0  -1 -1  0   0  0 -1
                       0  1  0  -1 -1  0   0  0  1       0 -1  0   1  1  0   0  0 -1
                      -1 -1  0   0  1  0   0  0  1       1  1  0   0 -1  0   0  0 -1
                      -1  0  0   0 -1  0   0  0  1       1  0  0   0  1  0   0  0 -1
                       0 -1  0  -1  0  0   0  0  1       0  1  0   1  0  0   0  0 -1
                      -1 -1  0   1  0  0   0  0  1       1  1  0  -1  0  0   0  0 -1
                       1  0  0  -1 -1  0   0  0  1      -1  0  0   1  1  0   0  0 -1
                       0 -1  0   1  1  0   0  0  1       0  1  0  -1 -1  0   0  0 -1
                       1  1  0   0 -1  0   0  0  1      -1 -1  0   0  1  0   0  0 -1
            tnons      0.0000000  0.0000000  0.0000000     0.0000000  0.0000000  0.0000000
                       0.0000000  0.0000000  0.5000000     0.0000000  0.0000000  0.5000000
                       0.0000000  0.0000000  0.5000000     0.0000000  0.0000000  0.5000000
                       0.0000000  0.0000000  0.0000000     0.0000000  0.0000000  0.0000000
                       0.0000000  0.0000000  0.0000000     0.0000000  0.0000000  0.0000000
                       0.0000000  0.0000000  0.5000000     0.0000000  0.0000000  0.5000000
                       0.0000000  0.0000000  0.5000000     0.0000000  0.0000000  0.5000000
                       0.0000000  0.0000000  0.0000000     0.0000000  0.0000000  0.0000000
                       0.0000000  0.0000000  0.0000000     0.0000000  0.0000000  0.0000000
                       0.0000000  0.0000000  0.5000000     0.0000000  0.0000000  0.5000000
                       0.0000000  0.0000000  0.5000000     0.0000000  0.0000000  0.5000000
                       0.0000000  0.0000000  0.0000000     0.0000000  0.0000000  0.0000000
           tolvrs      1.00000000E-07
           tsmear      1.00000000E-02 Hartree
            typat      1  1
-          useylm1          0
-          useylm2          1
-    use_gpu_cuda1          0
-    use_gpu_cuda2          1
-        wfoptalg          14
              wtk        0.01852    0.03704    0.03704    0.03704    0.03704    0.01852
                         0.01852    0.03704    0.03704    0.01852    0.01852    0.01852
                         0.01852    0.03704    0.03704    0.03704    0.03704    0.01852
                         0.01852    0.03704    0.03704    0.01852    0.01852    0.01852
                         0.01852    0.03704    0.03704    0.03704    0.03704    0.01852
                         0.01852    0.03704    0.03704    0.01852    0.01852    0.01852
           xangst     -7.0575259484E-01  1.2223993518E+00  9.9485315215E-01
                       7.0575259484E-01  1.2223993518E+00  2.9845594564E+00
            xcart     -1.3336791218E+00  2.3100000000E+00  1.8800000000E+00
                       1.3336791218E+00  2.3100000000E+00  5.6400000000E+00
             xred      3.3333333333E-01  6.6666666667E-01  2.5000000000E-01
                       6.6666666667E-01  3.3333333333E-01  7.5000000000E-01
            znucl       26.00000

================================================================================


- Timing analysis has been suppressed with timopt=0



================================================================================

 Suggested references for the acknowledgment of ABINIT usage.

 The users of ABINIT have little formal obligations with respect to the ABINIT group
 (those specified in the GNU General Public License, http://www.gnu.org/copyleft/gpl.txt).
 However, it is common practice in the scientific literature,
 to acknowledge the efforts of people that have made the research possible.
 In this spirit, please find below suggested citations of work written by ABINIT developers,
 corresponding to implementations inside of ABINIT that you have used in the present run.
 Note also that it will be of great value to readers of publications presenting these results,
 to read papers enabling them to understand the theoretical formalism and details
 of the ABINIT implementation.
 For information on why they are suggested, see also http://www.abinit.org/about/?text=acknowledgments.

 [1] Large scale ab initio calculations based on three levels of parallelization
 F. Bottin, S. Leroux, A. Knyazev, G. Zerah, Comput. Mat. Science 42, 329, (2008).
 Comment : in case paral_kgb is non-zero. Strong suggestion to cite this paper in your publications.
 This paper is also available at http://www.arxiv.org/abs/0707.3405

 [2] ABINIT : First-principles approach of materials and nanosystem properties.
 X. Gonze, B. Amadon, P.-M. Anglade, J.-M. Beuken, F. Bottin, P. Boulanger, F. Bruneval,
 D. Caliste, R. Caracas, M. Cote, T. Deutsch, L. Genovese, Ph. Ghosez, M. Giantomassi
 S. Goedecker, D.R. Hamann, P. Hermet, F. Jollet, G. Jomard, S. Leroux, M. Mancini, S. Mazevet,
 M.J.T. Oliveira, G. Onida, Y. Pouillon, T. Rangel, G.-M. Rignanese, D. Sangalli, R. Shaltaf,
 M. Torrent, M.J. Verstraete, G. Zerah, J.W. Zwanziger
 Computer Phys. Comm. 180, 2582-2615 (2009).
 Comment : the third generic paper describing the ABINIT project.
 Note that a version of this paper, that is not formatted for Computer Phys. Comm. 
 is available at http://www.abinit.org/about/ABINIT_CPC_v10.pdf .
 The licence allows the authors to put it on the Web.

 [3] A brief introduction to the ABINIT software package.
 X. Gonze, G.-M. Rignanese, M. Verstraete, J.-M. Beuken, Y. Pouillon, R. Caracas, F. Jollet,
 M. Torrent, G. Zerah, M. Mikami, Ph. Ghosez, M. Veithen, J.-Y. Raty, V. Olevano, F. Bruneval,
 L. Reining, R. Godby, G. Onida, D.R. Hamann, and D.C. Allan.
 Z. Kristallogr. 220, 558-562 (2005).
 Comment : the second generic paper describing the ABINIT project. Note that this paper
 should be cited especially if you are using the GW part of ABINIT, as several authors
 of this part are not in the list of authors of the first or third paper.
 The .pdf of the latter paper is available at http://www.abinit.org/about/zfk_0505-06_558-562.pdf.
 Note that it should not redistributed (Copyright by Oldenburg Wissenshaftverlag,
 the licence allows the authors to put it on the Web).


 And optionally :

 [4] First-principles computation of material properties : the ABINIT software project. 
 X. Gonze, J.-M. Beuken, R. Caracas, F. Detraux, M. Fuchs, G.-M. Rignanese, L. Sindic,
 M. Verstraete, G. Zerah, F. Jollet, M. Torrent, A. Roy, M. Mikami, Ph. Ghosez, J.-Y. Raty, D.C. Allan.
 Computational Materials Science 25, 478-492 (2002). http://dx.doi.org/10.1016/S0927-0256(02)00325-7
 Comment : the original paper describing the ABINIT project.

 [5] Fast radix 2, 3, 4 and 5 kernels for Fast Fourier Transformations
 on computers with overlapping multiply-add instructions.
 S. Goedecker, SIAM J. on Scientific Computing 18, 1605 (1997).
-
- Proc.   0 individual time (sec): cpu=         55.1  wall=         55.4

================================================================================

 Calculation completed.
.Delivered    7 WARNINGs and   7 COMMENTs to log file.
+Overall time at end (sec) : cpu=         55.1  wall=         55.4
