
.Version 7.10.4 of ABINIT 
.(MPI version, prepared for a x86_64_linux_gnu4.7 computer) 

.Copyright (C) 1998-2014 ABINIT group . 
 ABINIT comes with ABSOLUTELY NO WARRANTY.
 It is free software, and you are welcome to redistribute it
 under certain conditions (GNU General Public License,
 see ~abinit/COPYING or http://www.gnu.org/copyleft/gpl.txt).

 ABINIT is a project of the Universite Catholique de Louvain,
 Corning Inc. and other collaborators, see ~abinit/doc/developers/contributors.txt .
 Please read ~abinit/doc/users/acknowledgments.html for suggested
 acknowledgments of the ABINIT effort.
 For more information, see http://www.abinit.org .

.Starting date : Wed 11 Mar 2015.
- ( at 10h19 )
  
- input  file    -> tw90_4.in
- output file    -> tw90_4.out
- root for input  files -> tw90_4i
- root for output files -> tw90_4o


 DATASET    1 : space group Fd -3 m (#227); Bravais cF (face-center cubic)
================================================================================
 Values of the parameters that define the memory need for DATASET  1.
   intxc =         0  ionmov =         0    iscf =         5 xclevel =         1
  lmnmax =         2   lnmax =         2   mband =         5  mffmem =         1
P  mgfft =        16   mkmem =         8 mpssoang=         3     mpw =       150
  mqgrid =      3001   natom =         2    nfft =      4096    nkpt =         8
  nloalg =         4  nspden =         1 nspinor =         1  nsppol =         1
    nsym =        24  n1xccc =      2501  ntypat =         1  occopt =         1
================================================================================
P This job should need less than                       1.651 Mbytes of memory.
  Rough estimation (10% accuracy) of disk space for files :
_ WF disk file :      0.094 Mbytes ; DEN or POT disk file :      0.033 Mbytes.
================================================================================


 DATASET    2 : space group Fd -3 m (#227); Bravais cF (face-center cubic)
================================================================================
 Values of the parameters that define the memory need for DATASET  2.
   intxc =         0  ionmov =         0    iscf =        -2 xclevel =         1
  lmnmax =         2   lnmax =         2   mband =        14  mffmem =         1
P  mgfft =        16   mkmem =         8 mpssoang=         3     mpw =       150
  mqgrid =      3001   natom =         2    nfft =      4096    nkpt =         8
  nloalg =         4  nspden =         1 nspinor =         1  nsppol =         1
    nsym =        24  n1xccc =      2501  ntypat =         1  occopt =         1
================================================================================
P This job should need less than                       1.520 Mbytes of memory.
  Rough estimation (10% accuracy) of disk space for files :
_ WF disk file :      0.258 Mbytes ; DEN or POT disk file :      0.033 Mbytes.
================================================================================


 DATASET    3 : space group Fd -3 m (#227); Bravais cF (face-center cubic)
================================================================================
 Values of the parameters that define the memory need for DATASET  3.
   intxc =         0  ionmov =         0    iscf =        -2 xclevel =         1
  lmnmax =         2   lnmax =         2   mband =        14  mffmem =         1
P  mgfft =        16   mkmem =        64 mpssoang=         3     mpw =       150
  mqgrid =      3001   natom =         2    nfft =      4096    nkpt =        64
  nloalg =         4  nspden =         1 nspinor =         1  nsppol =         1
    nsym =        24  n1xccc =      2501  ntypat =         1  occopt =         1
================================================================================
P This job should need less than                       3.530 Mbytes of memory.
  Rough estimation (10% accuracy) of disk space for files :
_ WF disk file :      2.053 Mbytes ; DEN or POT disk file :      0.033 Mbytes.
================================================================================

--------------------------------------------------------------------------------
------------- Echo of variables that govern the present computation ------------
--------------------------------------------------------------------------------
-
- outvars: echo of selected default values                                      
-   accesswff0 =  0 , fftalg0 =112 , wfoptalg0 =  0
-
- outvars: echo of global parameters not present in the input file              
-  max_nthreads =    0
-
 -outvars: echo values of preprocessed input variables --------
            acell      1.0263000000E+01  1.0263000000E+01  1.0263000000E+01 Bohr
              amu      2.80855000E+01
           diemac1     1.20000000E+01
           diemac2     1.00000000E+06
           diemac3     1.00000000E+06
             ecut      5.00000000E+00 Hartree
           enunit1          2
           enunit2          0
           enunit3          0
-          fftalg         112
           getden1          0
           getden2          1
           getden3          2
           getwfk1          0
           getwfk2          1
           getwfk3          2
             iscf1          5
             iscf2         -2
             iscf3         -2
           istwfk1       2    0    3    0    0    0    7    0
           istwfk2       2    0    3    0    0    0    7    0
           istwfk3       1    0    1    0    0    0    0    0    1    0
                         1    0    0    0    0    0    0    0    0    0
                         0    0    0    0    0    0    0    0    0    0
                         0    0    1    0    1    0    0    0    0    0
                         1    0    1    0    0    0    0    0    0    0
                         0    0    0    0    0    0    0    0    0    0
                         0    0    0    0
           jdtset        1    2    3
              kpt1     0.00000000E+00  0.00000000E+00  0.00000000E+00
                       2.50000000E-01  0.00000000E+00  0.00000000E+00
                       5.00000000E-01  0.00000000E+00  0.00000000E+00
                       2.50000000E-01  2.50000000E-01  0.00000000E+00
                       5.00000000E-01  2.50000000E-01  0.00000000E+00
                      -2.50000000E-01  2.50000000E-01  0.00000000E+00
                       5.00000000E-01  5.00000000E-01  0.00000000E+00
                      -2.50000000E-01  5.00000000E-01  2.50000000E-01
              kpt2     0.00000000E+00  0.00000000E+00  0.00000000E+00
                       2.50000000E-01  0.00000000E+00  0.00000000E+00
                       5.00000000E-01  0.00000000E+00  0.00000000E+00
                       2.50000000E-01  2.50000000E-01  0.00000000E+00
                       5.00000000E-01  2.50000000E-01  0.00000000E+00
                      -2.50000000E-01  2.50000000E-01  0.00000000E+00
                       5.00000000E-01  5.00000000E-01  0.00000000E+00
                      -2.50000000E-01  5.00000000E-01  2.50000000E-01
              kpt3     0.00000000E+00  0.00000000E+00  0.00000000E+00
                       2.50000000E-01  0.00000000E+00  0.00000000E+00
                       5.00000000E-01  0.00000000E+00  0.00000000E+00
                      -2.50000000E-01  0.00000000E+00  0.00000000E+00
                       0.00000000E+00  2.50000000E-01  0.00000000E+00
                       2.50000000E-01  2.50000000E-01  0.00000000E+00
                       5.00000000E-01  2.50000000E-01  0.00000000E+00
                      -2.50000000E-01  2.50000000E-01  0.00000000E+00
                       0.00000000E+00  5.00000000E-01  0.00000000E+00
                       2.50000000E-01  5.00000000E-01  0.00000000E+00
                       5.00000000E-01  5.00000000E-01  0.00000000E+00
                      -2.50000000E-01  5.00000000E-01  0.00000000E+00
                       0.00000000E+00 -2.50000000E-01  0.00000000E+00
                       2.50000000E-01 -2.50000000E-01  0.00000000E+00
                       5.00000000E-01 -2.50000000E-01  0.00000000E+00
                      -2.50000000E-01 -2.50000000E-01  0.00000000E+00
                       0.00000000E+00  0.00000000E+00  2.50000000E-01
                       2.50000000E-01  0.00000000E+00  2.50000000E-01
                       5.00000000E-01  0.00000000E+00  2.50000000E-01
                      -2.50000000E-01  0.00000000E+00  2.50000000E-01
                       0.00000000E+00  2.50000000E-01  2.50000000E-01
                       2.50000000E-01  2.50000000E-01  2.50000000E-01
                       5.00000000E-01  2.50000000E-01  2.50000000E-01
                      -2.50000000E-01  2.50000000E-01  2.50000000E-01
                       0.00000000E+00  5.00000000E-01  2.50000000E-01
                       2.50000000E-01  5.00000000E-01  2.50000000E-01
                       5.00000000E-01  5.00000000E-01  2.50000000E-01
                      -2.50000000E-01  5.00000000E-01  2.50000000E-01
                       0.00000000E+00 -2.50000000E-01  2.50000000E-01
                       2.50000000E-01 -2.50000000E-01  2.50000000E-01
                       5.00000000E-01 -2.50000000E-01  2.50000000E-01
                      -2.50000000E-01 -2.50000000E-01  2.50000000E-01
                       0.00000000E+00  0.00000000E+00  5.00000000E-01
                       2.50000000E-01  0.00000000E+00  5.00000000E-01
                       5.00000000E-01  0.00000000E+00  5.00000000E-01
                      -2.50000000E-01  0.00000000E+00  5.00000000E-01
                       0.00000000E+00  2.50000000E-01  5.00000000E-01
                       2.50000000E-01  2.50000000E-01  5.00000000E-01
                       5.00000000E-01  2.50000000E-01  5.00000000E-01
                      -2.50000000E-01  2.50000000E-01  5.00000000E-01
                       0.00000000E+00  5.00000000E-01  5.00000000E-01
                       2.50000000E-01  5.00000000E-01  5.00000000E-01
                       5.00000000E-01  5.00000000E-01  5.00000000E-01
                      -2.50000000E-01  5.00000000E-01  5.00000000E-01
                       0.00000000E+00 -2.50000000E-01  5.00000000E-01
                       2.50000000E-01 -2.50000000E-01  5.00000000E-01
                       5.00000000E-01 -2.50000000E-01  5.00000000E-01
                      -2.50000000E-01 -2.50000000E-01  5.00000000E-01
                       0.00000000E+00  0.00000000E+00 -2.50000000E-01
                       2.50000000E-01  0.00000000E+00 -2.50000000E-01
                       5.00000000E-01  0.00000000E+00 -2.50000000E-01
                      -2.50000000E-01  0.00000000E+00 -2.50000000E-01
                       0.00000000E+00  2.50000000E-01 -2.50000000E-01
                       2.50000000E-01  2.50000000E-01 -2.50000000E-01
                       5.00000000E-01  2.50000000E-01 -2.50000000E-01
                      -2.50000000E-01  2.50000000E-01 -2.50000000E-01
                       0.00000000E+00  5.00000000E-01 -2.50000000E-01
                       2.50000000E-01  5.00000000E-01 -2.50000000E-01
                       5.00000000E-01  5.00000000E-01 -2.50000000E-01
                      -2.50000000E-01  5.00000000E-01 -2.50000000E-01
                       0.00000000E+00 -2.50000000E-01 -2.50000000E-01
                       2.50000000E-01 -2.50000000E-01 -2.50000000E-01
                       5.00000000E-01 -2.50000000E-01 -2.50000000E-01
                      -2.50000000E-01 -2.50000000E-01 -2.50000000E-01
           kptopt1          1
           kptopt2          1
           kptopt3          3
         kptrlatt        4    0    0      0    4    0      0    0    4
          kptrlen      2.90281476E+01
P           mkmem1          8
P           mkmem2          8
P           mkmem3         64
            natom           2
            nband1          5
            nband2         14
            nband3         14
           nbdbuf1          0
           nbdbuf2          2
           nbdbuf3          2
           ndtset           3
            ngfft          16      16      16
             nkpt1          8
             nkpt2          8
             nkpt3         64
            nstep1        100
            nstep2        200
            nstep3          0
             nsym          24
           ntypat           1
              occ      2.000000  2.000000  2.000000  2.000000  0.000000
        optforces           1
           prtvol1          0
           prtvol2          1
           prtvol3          1
          prtwant1          0
          prtwant2          0
          prtwant3          2
            rprim      0.0000000000E+00  5.0000000000E-01  5.0000000000E-01
                       5.0000000000E-01  0.0000000000E+00  5.0000000000E-01
                       5.0000000000E-01  5.0000000000E-01  0.0000000000E+00
          spgroup         227
        symmorphi           0
           symrel      1  0  0   0  1  0   0  0  1       0 -1  1   0 -1  0   1 -1  0
                      -1  0  0  -1  0  1  -1  1  0       0  1 -1   1  0 -1   0  0 -1
                      -1  0  0  -1  1  0  -1  0  1       0 -1  1   1 -1  0   0 -1  0
                       1  0  0   0  0  1   0  1  0       0  1 -1   0  0 -1   1  0 -1
                      -1  0  1  -1  1  0  -1  0  0       0 -1  0   1 -1  0   0 -1  1
                       1  0 -1   0  0 -1   0  1 -1       0  1  0   0  0  1   1  0  0
                       1  0 -1   0  1 -1   0  0 -1       0 -1  0   0 -1  1   1 -1  0
                      -1  0  1  -1  0  0  -1  1  0       0  1  0   1  0  0   0  0  1
                       0  0 -1   0  1 -1   1  0 -1       1 -1  0   0 -1  1   0 -1  0
                       0  0  1   1  0  0   0  1  0      -1  1  0  -1  0  0  -1  0  1
                       0  0  1   0  1  0   1  0  0       1 -1  0   0 -1  0   0 -1  1
                       0  0 -1   1  0 -1   0  1 -1      -1  1  0  -1  0  1  -1  0  0
           tolvrs1     1.00000000E-10
           tolvrs2     0.00000000E+00
           tolvrs3     0.00000000E+00
           tolwfr1     0.00000000E+00
           tolwfr2     1.00000000E-10
           tolwfr3     1.00000000E-10
            typat      1  1
              wtk1       0.01563    0.12500    0.06250    0.09375    0.37500    0.18750
                         0.04688    0.09375
              wtk2       0.01563    0.12500    0.06250    0.09375    0.37500    0.18750
                         0.04688    0.09375
              wtk3       0.01563    0.01563    0.01563    0.01563    0.01563    0.01563
                         0.01563    0.01563    0.01563    0.01563    0.01563    0.01563
                         0.01563    0.01563    0.01563    0.01563    0.01563    0.01563
                         0.01563    0.01563    0.01563    0.01563    0.01563    0.01563
                         0.01563    0.01563    0.01563    0.01563    0.01563    0.01563
                         0.01563    0.01563    0.01563    0.01563    0.01563    0.01563
                         0.01563    0.01563    0.01563    0.01563    0.01563    0.01563
                         0.01563    0.01563    0.01563    0.01563    0.01563    0.01563
                         0.01563    0.01563    0.01563    0.01563    0.01563    0.01563
                         0.01563    0.01563    0.01563    0.01563    0.01563    0.01563
                         0.01563    0.01563    0.01563    0.01563
        w90iniprj1          1
        w90iniprj2          1
        w90iniprj3          2
        w90prtunk1          0
        w90prtunk2          0
        w90prtunk3          1
           xangst      0.0000000000E+00  0.0000000000E+00  0.0000000000E+00
                       1.3577364229E+00  1.3577364229E+00  1.3577364229E+00
            xcart      0.0000000000E+00  0.0000000000E+00  0.0000000000E+00
                       2.5657500000E+00  2.5657500000E+00  2.5657500000E+00
             xred      0.0000000000E+00  0.0000000000E+00  0.0000000000E+00
                       2.5000000000E-01  2.5000000000E-01  2.5000000000E-01
            znucl       14.00000

================================================================================

 chkinp: Checking input parameters for consistency, jdtset=   1.

 chkinp: Checking input parameters for consistency, jdtset=   2.

 chkinp: Checking input parameters for consistency, jdtset=   3.

================================================================================
== DATASET  1 ==================================================================
-   nproc =    1

 Exchange-correlation functional for the present dataset will be:
  LDA: new Teter (4/93) with spin-polarized option - ixc=1
 Citation for XC functional:
  S. Goedecker, M. Teter, J. Huetter, PRB 54, 1703 (1996)

 Real(R)+Recip(G) space primitive vectors, cartesian coordinates (Bohr,Bohr^-1):
 R(1)=  0.0000000  5.1315000  5.1315000  G(1)= -0.0974374  0.0974374  0.0974374
 R(2)=  5.1315000  0.0000000  5.1315000  G(2)=  0.0974374 -0.0974374  0.0974374
 R(3)=  5.1315000  5.1315000  0.0000000  G(3)=  0.0974374  0.0974374 -0.0974374
 Unit cell volume ucvol=  2.7024832E+02 bohr^3
 Angles (23,13,12)=  6.00000000E+01  6.00000000E+01  6.00000000E+01 degrees

 getcut: wavevector=  0.0000  0.0000  0.0000  ngfft=  16  16  16
         ecut(hartree)=      5.000   => boxcut(ratio)=   2.19033

--- Pseudopotential description ------------------------------------------------
- pspini: atom type   1  psp file is /home/gonze/ABINIT/ABINITv7.10.4/trunk/7.10.4-private/tests/Psps_for_tests/14si.pspnc
- pspatm: opening atomic psp file    /home/gonze/ABINIT/ABINITv7.10.4/trunk/7.10.4-private/tests/Psps_for_tests/14si.pspnc
-  Troullier-Martins psp for element  Si        Thu Oct 27 17:31:21 EDT 1994
- 14.00000   4.00000    940714                znucl, zion, pspdat
    1    1    2    2      2001   0.00000      pspcod,pspxc,lmax,lloc,mmax,r2well
    0   5.907  14.692    1   2.0872718        l,e99.0,e99.9,nproj,rcpsp
   0.00000000   0.00000000   0.00000000   0.00000000     rms, ekb1, ekb2, epsatm
    1   2.617   4.181    1   2.0872718        l,e99.0,e99.9,nproj,rcpsp
   0.00000000   0.00000000   0.00000000   0.00000000     rms, ekb1, ekb2, epsatm
    2   0.000   0.000    0   2.0872718        l,e99.0,e99.9,nproj,rcpsp
   0.00000000   0.00000000   0.00000000   0.00000000     rms, ekb1, ekb2, epsatm
    1.80626423934776    0.22824404341771    1.17378968127746   rchrg,fchrg,qchrg
 pspatm: epsatm=    1.43386982
         --- l  ekb(1:nproj) -->
             0    3.287949
             1    1.849886
 pspatm: atomic psp has been read  and splines computed

   2.29419171E+01                                ecore*ucvol(ha*bohr**3)
--------------------------------------------------------------------------------

P newkpt: treating      5 bands with npw=      69 for ikpt=   1 by node    0
P newkpt: treating      5 bands with npw=     150 for ikpt=   2 by node    0
P newkpt: treating      5 bands with npw=      69 for ikpt=   3 by node    0
P newkpt: treating      5 bands with npw=     149 for ikpt=   4 by node    0
P newkpt: treating      5 bands with npw=     143 for ikpt=   5 by node    0
P newkpt: treating      5 bands with npw=     144 for ikpt=   6 by node    0
P newkpt: treating      5 bands with npw=      75 for ikpt=   7 by node    0
P newkpt: treating      5 bands with npw=     144 for ikpt=   8 by node    0

_setup2: Arith. and geom. avg. npw (full set) are     144.641     144.601

================================================================================

     iter   Etot(hartree)      deltaE(h)  residm     vres2    diffor    maxfor
 ETOT  1  -8.8437771683715    -8.844E+00 1.062E-03 2.899E+00 0.000E+00 0.000E+00
 ETOT  2  -8.8485141358895    -4.737E-03 5.235E-06 8.693E-02 1.271E-29 1.271E-29
 ETOT  3  -8.8485817799916    -6.764E-05 2.043E-06 2.236E-02 1.148E-29 1.189E-29
 ETOT  4  -8.8485958620253    -1.408E-05 1.107E-07 2.473E-03 1.517E-29 3.280E-30
 ETOT  5  -8.8485975144896    -1.652E-06 7.110E-08 2.286E-04 3.280E-30 0.000E+00
 ETOT  6  -8.8485976880264    -1.735E-07 3.670E-09 2.048E-05 0.000E+00 0.000E+00
 ETOT  7  -8.8485977052232    -1.720E-08 5.846E-10 1.904E-06 0.000E+00 0.000E+00
 ETOT  8  -8.8485977070370    -1.814E-09 5.051E-11 1.874E-07 0.000E+00 0.000E+00
 ETOT  9  -8.8485977070916    -5.461E-11 3.881E-12 2.255E-07 0.000E+00 0.000E+00
 ETOT 10  -8.8485977072527    -1.611E-10 3.409E-12 2.544E-08 0.000E+00 0.000E+00
 ETOT 11  -8.8485977072722    -1.957E-11 6.202E-13 7.400E-14 0.000E+00 0.000E+00

 At SCF step   11       vres2   =  7.40E-14 < tolvrs=  1.00E-10 =>converged.

 Cartesian components of stress tensor (hartree/bohr^3)
  sigma(1 1)=  1.50484993E-04  sigma(3 2)=  0.00000000E+00
  sigma(2 2)=  1.50484993E-04  sigma(3 1)=  0.00000000E+00
  sigma(3 3)=  1.50484993E-04  sigma(2 1)=  0.00000000E+00

================================================================================

 ----iterations are completed or convergence reached----

 Mean square residual over all n,k,spin=   1.3801E-13; max=  6.2019E-13
   0.0000  0.0000  0.0000    1  3.52511E-14 kpt; spin; max resid(k); each band:
  1.28E-14 1.70E-14 2.99E-14 1.53E-14 3.53E-14
   0.2500  0.0000  0.0000    1  3.67438E-13 kpt; spin; max resid(k); each band:
  2.47E-13 2.10E-13 3.22E-15 3.22E-15 3.67E-13
   0.5000  0.0000  0.0000    1  5.20472E-13 kpt; spin; max resid(k); each band:
  7.04E-14 4.54E-13 1.92E-15 1.92E-15 5.20E-13
   0.2500  0.2500  0.0000    1  3.36548E-13 kpt; spin; max resid(k); each band:
  3.14E-13 5.30E-14 7.68E-16 7.68E-16 3.37E-13
   0.5000  0.2500  0.0000    1  2.32146E-13 kpt; spin; max resid(k); each band:
  1.79E-13 1.83E-13 1.28E-13 5.28E-16 2.32E-13
  -0.2500  0.2500  0.0000    1  2.10201E-13 kpt; spin; max resid(k); each band:
  1.19E-13 1.49E-13 1.16E-13 9.94E-16 2.10E-13
   0.5000  0.5000  0.0000    1  1.29715E-13 kpt; spin; max resid(k); each band:
  3.79E-14 7.79E-14 6.45E-15 6.45E-15 1.30E-13
  -0.2500  0.5000  0.2500    1  6.20187E-13 kpt; spin; max resid(k); each band:
  4.44E-15 3.38E-15 4.09E-13 2.12E-13 6.20E-13
 reduced coordinates (array xred) for    2 atoms
       0.000000000000      0.000000000000      0.000000000000
       0.250000000000      0.250000000000      0.250000000000
 rms dE/dt=  0.0000E+00; max dE/dt=  0.0000E+00; dE/dt below (all hartree)
    1       0.000000000000      0.000000000000      0.000000000000
    2       0.000000000000      0.000000000000      0.000000000000

 cartesian coordinates (angstrom) at end:
    1      0.00000000000000     0.00000000000000     0.00000000000000
    2      1.35773642293979     1.35773642293979     1.35773642293979

 cartesian forces (hartree/bohr) at end:
    1     -0.00000000000000    -0.00000000000000    -0.00000000000000
    2     -0.00000000000000    -0.00000000000000    -0.00000000000000
 frms,max,avg= 0.0000000E+00 0.0000000E+00   0.000E+00  0.000E+00  0.000E+00 h/b

 cartesian forces (eV/Angstrom) at end:
    1     -0.00000000000000    -0.00000000000000    -0.00000000000000
    2     -0.00000000000000    -0.00000000000000    -0.00000000000000
 frms,max,avg= 0.0000000E+00 0.0000000E+00   0.000E+00  0.000E+00  0.000E+00 e/A
 length scales= 10.263000000000 10.263000000000 10.263000000000 bohr
              =  5.430945691759  5.430945691759  5.430945691759 angstroms
 prteigrs : about to open file tw90_4o_DS1_EIG
 Fermi (or HOMO) energy (hartree) =   0.21539   Average Vxc (hartree)=  -0.35226
 Eigenvalues (hartree) for nkpt=   8  k points:
 kpt#   1, nband=  5, wtk=  0.01563, kpt=  0.0000  0.0000  0.0000 (reduced coord)
  -0.22387   0.21539   0.21539   0.21539   0.30796
 kpt#   2, nband=  5, wtk=  0.12500, kpt=  0.2500  0.0000  0.0000 (reduced coord)
  -0.19540   0.06936   0.18622   0.18622   0.28701
 kpt#   3, nband=  5, wtk=  0.06250, kpt=  0.5000  0.0000  0.0000 (reduced coord)
  -0.13802  -0.04246   0.16975   0.16975   0.27383
 kpt#   4, nband=  5, wtk=  0.09375, kpt=  0.2500  0.2500  0.0000 (reduced coord)
  -0.18476   0.08603   0.14389   0.14389   0.25421
 kpt#   5, nband=  5, wtk=  0.37500, kpt=  0.5000  0.2500  0.0000 (reduced coord)
  -0.12353  -0.01952   0.08261   0.13211   0.26896
 kpt#   6, nband=  5, wtk=  0.18750, kpt= -0.2500  0.2500  0.0000 (reduced coord)
  -0.14882   0.01388   0.07410   0.16492   0.30387
 kpt#   7, nband=  5, wtk=  0.04688, kpt=  0.5000  0.5000  0.0000 (reduced coord)
  -0.07179  -0.07179   0.10783   0.10783   0.23874
 kpt#   8, nband=  5, wtk=  0.09375, kpt= -0.2500  0.5000  0.2500 (reduced coord)
  -0.06519  -0.06519   0.07019   0.07019   0.37260
 Fermi (or HOMO) energy (eV) =   5.86110   Average Vxc (eV)=  -9.58551
 Eigenvalues (   eV  ) for nkpt=   8  k points:
 kpt#   1, nband=  5, wtk=  0.01563, kpt=  0.0000  0.0000  0.0000 (reduced coord)
  -6.09180   5.86110   5.86110   5.86110   8.38004
 kpt#   2, nband=  5, wtk=  0.12500, kpt=  0.2500  0.0000  0.0000 (reduced coord)
  -5.31720   1.88735   5.06720   5.06720   7.81005
 kpt#   3, nband=  5, wtk=  0.06250, kpt=  0.5000  0.0000  0.0000 (reduced coord)
  -3.75570  -1.15533   4.61904   4.61904   7.45123
 kpt#   4, nband=  5, wtk=  0.09375, kpt=  0.2500  0.2500  0.0000 (reduced coord)
  -5.02770   2.34113   3.91547   3.91547   6.91753
 kpt#   5, nband=  5, wtk=  0.37500, kpt=  0.5000  0.2500  0.0000 (reduced coord)
  -3.36148  -0.53121   2.24801   3.59479   7.31870
 kpt#   6, nband=  5, wtk=  0.18750, kpt= -0.2500  0.2500  0.0000 (reduced coord)
  -4.04964   0.37759   2.01637   4.48769   8.26884
 kpt#   7, nband=  5, wtk=  0.04688, kpt=  0.5000  0.5000  0.0000 (reduced coord)
  -1.95357  -1.95357   2.93412   2.93412   6.49645
 kpt#   8, nband=  5, wtk=  0.09375, kpt= -0.2500  0.5000  0.2500 (reduced coord)
  -1.77392  -1.77392   1.91004   1.91004  10.13897
 Total charge density [el/Bohr^3]
,     Maximum=    8.7414E-02  at reduced coord.    0.1250    0.1250    0.6250
,Next maximum=    8.7414E-02  at reduced coord.    0.1250    0.6250    0.1250
,     Minimum=    3.1498E-03  at reduced coord.    0.5000    0.5000    0.5000
,Next minimum=    3.1498E-03  at reduced coord.    0.7500    0.7500    0.7500
,  Integrated=    8.0000E+00

--------------------------------------------------------------------------------
 Components of total free energy (in Hartree) :

    Kinetic energy  =  2.99352950953667E+00
    Hartree energy  =  5.49123849218008E-01
    XC energy       = -3.53431938776634E+00
    Ewald energy    = -8.39800922793231E+00
    PspCore energy  =  8.48919894704955E-02
    Loc. psp. energy= -2.50665026302598E+00
    NL   psp  energy=  1.96283582322721E+00
    >>>>>>>>> Etotal= -8.84859770727224E+00

 Other information on the energy :
    Total energy(eV)= -2.40782588835301E+02 ; Band energy (Ha)=   2.3152754168E-01
--------------------------------------------------------------------------------

 Cartesian components of stress tensor (hartree/bohr^3)
  sigma(1 1)=  1.50484993E-04  sigma(3 2)=  0.00000000E+00
  sigma(2 2)=  1.50484993E-04  sigma(3 1)=  0.00000000E+00
  sigma(3 3)=  1.50484993E-04  sigma(2 1)=  0.00000000E+00

-Cartesian components of stress tensor (GPa)         [Pressure= -4.4274E+00 GPa]
- sigma(1 1)=  4.42742060E+00  sigma(3 2)=  0.00000000E+00
- sigma(2 2)=  4.42742060E+00  sigma(3 1)=  0.00000000E+00
- sigma(3 3)=  4.42742060E+00  sigma(2 1)=  0.00000000E+00

================================================================================
== DATASET  2 ==================================================================
-   nproc =    1

 mkfilename : getwfk/=0, take file _WFK from output of DATASET   1.

 mkfilename : getden/=0, take file _DEN from output of DATASET   1.

 Exchange-correlation functional for the present dataset will be:
  LDA: new Teter (4/93) with spin-polarized option - ixc=1
 Citation for XC functional:
  S. Goedecker, M. Teter, J. Huetter, PRB 54, 1703 (1996)

 Real(R)+Recip(G) space primitive vectors, cartesian coordinates (Bohr,Bohr^-1):
 R(1)=  0.0000000  5.1315000  5.1315000  G(1)= -0.0974374  0.0974374  0.0974374
 R(2)=  5.1315000  0.0000000  5.1315000  G(2)=  0.0974374 -0.0974374  0.0974374
 R(3)=  5.1315000  5.1315000  0.0000000  G(3)=  0.0974374  0.0974374 -0.0974374
 Unit cell volume ucvol=  2.7024832E+02 bohr^3
 Angles (23,13,12)=  6.00000000E+01  6.00000000E+01  6.00000000E+01 degrees

 getcut: wavevector=  0.0000  0.0000  0.0000  ngfft=  16  16  16
         ecut(hartree)=      5.000   => boxcut(ratio)=   2.19033
--------------------------------------------------------------------------------

-inwffil : will read wavefunctions from disk file tw90_4o_DS1_WFK
P newkpt: treating     14 bands with npw=      69 for ikpt=   1 by node    0
P newkpt: treating     14 bands with npw=     150 for ikpt=   2 by node    0
P newkpt: treating     14 bands with npw=      69 for ikpt=   3 by node    0
P newkpt: treating     14 bands with npw=     149 for ikpt=   4 by node    0
P newkpt: treating     14 bands with npw=     143 for ikpt=   5 by node    0
P newkpt: treating     14 bands with npw=     144 for ikpt=   6 by node    0
P newkpt: treating     14 bands with npw=      75 for ikpt=   7 by node    0
P newkpt: treating     14 bands with npw=     144 for ikpt=   8 by node    0


================================================================================
 prteigrs : about to open file tw90_4o_DS2_EIG
 Non-SCF case, kpt    1 (  0.00000  0.00000  0.00000), residuals and eigenvalues=
  5.35E-16  5.02E-16  5.35E-16  5.02E-16  2.18E-13  2.29E-11  5.35E-11  3.39E-12
  3.95E-11  7.12E-12  4.23E-11  8.14E-12  1.02E-11  8.91E-11
 -2.2387E-01  2.1539E-01  2.1539E-01  2.1539E-01  3.0796E-01  3.0796E-01
  3.0796E-01  3.3306E-01  4.9473E-01  5.1604E-01  5.1604E-01  6.2567E-01
  6.2567E-01  6.2567E-01
 Non-SCF case, kpt    2 (  0.25000  0.00000  0.00000), residuals and eigenvalues=
  2.89E-16  7.09E-16  1.76E-16  1.77E-16  1.80E-15  4.22E-12  1.91E-11  3.72E-11
  4.06E-11  7.32E-11  2.10E-11  7.91E-11  5.65E-11  3.07E-10
 -1.9540E-01  6.9359E-02  1.8622E-01  1.8622E-01  2.8701E-01  3.4340E-01
  3.4340E-01  4.6089E-01  4.8732E-01  4.8732E-01  5.3622E-01  6.4131E-01
  7.6203E-01  7.6203E-01
  prteigrs : nnsclo,ikpt=  200    2 max resid (incl. the buffer)=  3.06640E-10
 Non-SCF case, kpt    3 (  0.50000  0.00000  0.00000), residuals and eigenvalues=
  3.30E-16  1.06E-16  1.19E-16  1.17E-16  2.62E-15  9.90E-12  1.23E-11  6.53E-11
  6.23E-11  8.33E-11  2.25E-11  5.00E-11  1.36E-11  1.71E-11
 -1.3802E-01 -4.2458E-02  1.6975E-01  1.6975E-01  2.7383E-01  3.3846E-01
  3.3846E-01  4.9039E-01  6.2227E-01  6.2227E-01  6.2391E-01  6.3506E-01
  6.3506E-01  6.7563E-01
 Non-SCF case, kpt    4 (  0.25000  0.25000  0.00000), residuals and eigenvalues=
  2.05E-16  1.05E-16  6.55E-17  6.56E-17  9.02E-16  8.96E-12  2.80E-11  1.73E-11
  5.18E-11  8.33E-11  6.80E-11  2.80E-11  1.29E-10  2.94E-10
 -1.8476E-01  8.6035E-02  1.4389E-01  1.4389E-01  2.5421E-01  3.2829E-01
  4.2733E-01  4.2733E-01  5.0451E-01  5.5741E-01  6.2206E-01  6.9739E-01
  6.9739E-01  7.1978E-01
  prteigrs : nnsclo,ikpt=  200    4 max resid (incl. the buffer)=  2.93860E-10
 Non-SCF case, kpt    5 (  0.50000  0.25000  0.00000), residuals and eigenvalues=
  5.36E-16  5.22E-16  2.49E-15  3.47E-17  2.97E-15  9.28E-11  5.00E-11  2.03E-11
  5.90E-11  5.29E-11  6.52E-11  4.96E-11  1.44E-11  5.03E-06
 -1.2353E-01 -1.9522E-02  8.2613E-02  1.3211E-01  2.6896E-01  3.7867E-01
  4.2452E-01  4.3471E-01  5.8768E-01  6.1471E-01  6.7506E-01  6.7820E-01
  6.8549E-01  8.3621E-01
  prteigrs : nnsclo,ikpt=  200    5 max resid (incl. the buffer)=  5.03277E-06
 Non-SCF case, kpt    6 ( -0.25000  0.25000  0.00000), residuals and eigenvalues=
  3.66E-16  1.51E-17  1.23E-15  1.09E-16  2.39E-15  2.35E-11  5.03E-11  1.18E-11
  2.94E-11  3.39E-11  1.45E-11  5.00E-11  1.82E-11  9.96E-06
 -1.4882E-01  1.3876E-02  7.4100E-02  1.6492E-01  3.0387E-01  3.9040E-01
  4.0503E-01  4.3533E-01  4.5971E-01  5.6792E-01  6.7550E-01  7.0600E-01
  7.0748E-01  8.2760E-01
  prteigrs : nnsclo,ikpt=  200    6 max resid (incl. the buffer)=  9.95904E-06
 Non-SCF case, kpt    7 (  0.50000  0.50000  0.00000), residuals and eigenvalues=
  5.78E-16  3.70E-17  1.98E-16  1.98E-16  1.34E-11  4.93E-11  3.71E-11  4.91E-12
  1.82E-11  5.36E-11  3.69E-11  2.55E-11  3.16E-11  9.25E-12
 -7.1793E-02 -7.1793E-02  1.0783E-01  1.0783E-01  2.3874E-01  2.3874E-01
  5.8073E-01  5.8073E-01  6.3580E-01  6.3580E-01  6.8044E-01  6.8044E-01
  6.9144E-01  6.9144E-01
 Non-SCF case, kpt    8 ( -0.25000  0.50000  0.25000), residuals and eigenvalues=
  8.38E-17  1.38E-16  6.82E-17  1.26E-15  1.33E-14  4.26E-11  7.34E-11  4.02E-11
  4.03E-11  1.57E-11  4.48E-11  4.75E-11  2.45E-08  2.21E-07
 -6.5191E-02 -6.5191E-02  7.0193E-02  7.0193E-02  3.7260E-01  3.7260E-01
  3.9752E-01  3.9752E-01  6.0966E-01  6.0966E-01  6.9636E-01  6.9636E-01
  8.2534E-01  8.2534E-01
  prteigrs : nnsclo,ikpt=  200    8 max resid (incl. the buffer)=  2.21339E-07
================================================================================

 ----iterations are completed or convergence reached----

 Mean square residual over all n,k,spin=   1.3608E-07; max=  9.9590E-06
   0.0000  0.0000  0.0000    1  8.90576E-11 kpt; spin; max resid(k); each band:
  5.35E-16 5.02E-16 5.35E-16 5.02E-16 2.18E-13 2.29E-11 5.35E-11 3.39E-12
  3.95E-11 7.12E-12 4.23E-11 8.14E-12 1.02E-11 8.91E-11
   0.2500  0.0000  0.0000    1  3.06640E-10 kpt; spin; max resid(k); each band:
  2.89E-16 7.09E-16 1.76E-16 1.77E-16 1.80E-15 4.22E-12 1.91E-11 3.72E-11
  4.06E-11 7.32E-11 2.10E-11 7.91E-11 5.65E-11 3.07E-10
   0.5000  0.0000  0.0000    1  8.33145E-11 kpt; spin; max resid(k); each band:
  3.30E-16 1.06E-16 1.19E-16 1.17E-16 2.62E-15 9.90E-12 1.23E-11 6.53E-11
  6.23E-11 8.33E-11 2.25E-11 5.00E-11 1.36E-11 1.71E-11
   0.2500  0.2500  0.0000    1  2.93860E-10 kpt; spin; max resid(k); each band:
  2.05E-16 1.05E-16 6.55E-17 6.56E-17 9.02E-16 8.96E-12 2.80E-11 1.73E-11
  5.18E-11 8.33E-11 6.80E-11 2.80E-11 1.29E-10 2.94E-10
   0.5000  0.2500  0.0000    1  5.03277E-06 kpt; spin; max resid(k); each band:
  5.36E-16 5.22E-16 2.49E-15 3.47E-17 2.97E-15 9.28E-11 5.00E-11 2.03E-11
  5.90E-11 5.29E-11 6.52E-11 4.96E-11 1.44E-11 5.03E-06
  -0.2500  0.2500  0.0000    1  9.95904E-06 kpt; spin; max resid(k); each band:
  3.66E-16 1.51E-17 1.23E-15 1.09E-16 2.39E-15 2.35E-11 5.03E-11 1.18E-11
  2.94E-11 3.39E-11 1.45E-11 5.00E-11 1.82E-11 9.96E-06
   0.5000  0.5000  0.0000    1  5.35891E-11 kpt; spin; max resid(k); each band:
  5.78E-16 3.70E-17 1.98E-16 1.98E-16 1.34E-11 4.93E-11 3.71E-11 4.91E-12
  1.82E-11 5.36E-11 3.69E-11 2.55E-11 3.16E-11 9.25E-12
  -0.2500  0.5000  0.2500    1  2.21339E-07 kpt; spin; max resid(k); each band:
  8.38E-17 1.38E-16 6.82E-17 1.26E-15 1.33E-14 4.26E-11 7.34E-11 4.02E-11
  4.03E-11 1.57E-11 4.48E-11 4.75E-11 2.45E-08 2.21E-07
 reduced coordinates (array xred) for    2 atoms
       0.000000000000      0.000000000000      0.000000000000
       0.250000000000      0.250000000000      0.250000000000

 cartesian coordinates (angstrom) at end:
    1      0.00000000000000     0.00000000000000     0.00000000000000
    2      1.35773642293979     1.35773642293979     1.35773642293979
 length scales= 10.263000000000 10.263000000000 10.263000000000 bohr
              =  5.430945691759  5.430945691759  5.430945691759 angstroms
 prteigrs : about to open file tw90_4o_DS2_EIG
 Eigenvalues (hartree) for nkpt=   8  k points:
 kpt#   1, nband= 14, wtk=  0.01563, kpt=  0.0000  0.0000  0.0000 (reduced coord)
  -0.22387   0.21539   0.21539   0.21539   0.30796   0.30796   0.30796   0.33306
   0.49473   0.51604   0.51604   0.62567   0.62567   0.62567
 kpt#   2, nband= 14, wtk=  0.12500, kpt=  0.2500  0.0000  0.0000 (reduced coord)
  -0.19540   0.06936   0.18622   0.18622   0.28701   0.34340   0.34340   0.46089
   0.48732   0.48732   0.53622   0.64131   0.76203   0.76203
 kpt#   3, nband= 14, wtk=  0.06250, kpt=  0.5000  0.0000  0.0000 (reduced coord)
  -0.13802  -0.04246   0.16975   0.16975   0.27383   0.33846   0.33846   0.49039
   0.62227   0.62227   0.62391   0.63506   0.63506   0.67563
 kpt#   4, nband= 14, wtk=  0.09375, kpt=  0.2500  0.2500  0.0000 (reduced coord)
  -0.18476   0.08603   0.14389   0.14389   0.25421   0.32829   0.42733   0.42733
   0.50451   0.55741   0.62206   0.69739   0.69739   0.71978
 kpt#   5, nband= 14, wtk=  0.37500, kpt=  0.5000  0.2500  0.0000 (reduced coord)
  -0.12353  -0.01952   0.08261   0.13211   0.26896   0.37867   0.42452   0.43471
   0.58768   0.61471   0.67506   0.67820   0.68549   0.83621
 kpt#   6, nband= 14, wtk=  0.18750, kpt= -0.2500  0.2500  0.0000 (reduced coord)
  -0.14882   0.01388   0.07410   0.16492   0.30387   0.39040   0.40503   0.43533
   0.45971   0.56792   0.67550   0.70600   0.70748   0.82760
 kpt#   7, nband= 14, wtk=  0.04688, kpt=  0.5000  0.5000  0.0000 (reduced coord)
  -0.07179  -0.07179   0.10783   0.10783   0.23874   0.23874   0.58073   0.58073
   0.63580   0.63580   0.68044   0.68044   0.69144   0.69144
 kpt#   8, nband= 14, wtk=  0.09375, kpt= -0.2500  0.5000  0.2500 (reduced coord)
  -0.06519  -0.06519   0.07019   0.07019   0.37260   0.37260   0.39752   0.39752
   0.60966   0.60966   0.69636   0.69636   0.82534   0.82534
 Total charge density [el/Bohr^3]
,     Maximum=    8.7414E-02  at reduced coord.    0.1250    0.1250    0.6250
,Next maximum=    8.7414E-02  at reduced coord.    0.1250    0.6250    0.1250
,     Minimum=    3.1498E-03  at reduced coord.    0.5000    0.5000    0.5000
,Next minimum=    3.1498E-03  at reduced coord.    0.7500    0.7500    0.7500
,  Integrated=    8.0000E+00

================================================================================
== DATASET  3 ==================================================================
-   nproc =    1

 mkfilename : getwfk/=0, take file _WFK from output of DATASET   2.

 mkfilename : getden/=0, take file _DEN from output of DATASET   2.

 Exchange-correlation functional for the present dataset will be:
  LDA: new Teter (4/93) with spin-polarized option - ixc=1
 Citation for XC functional:
  S. Goedecker, M. Teter, J. Huetter, PRB 54, 1703 (1996)

 Real(R)+Recip(G) space primitive vectors, cartesian coordinates (Bohr,Bohr^-1):
 R(1)=  0.0000000  5.1315000  5.1315000  G(1)= -0.0974374  0.0974374  0.0974374
 R(2)=  5.1315000  0.0000000  5.1315000  G(2)=  0.0974374 -0.0974374  0.0974374
 R(3)=  5.1315000  5.1315000  0.0000000  G(3)=  0.0974374  0.0974374 -0.0974374
 Unit cell volume ucvol=  2.7024832E+02 bohr^3
 Angles (23,13,12)=  6.00000000E+01  6.00000000E+01  6.00000000E+01 degrees

 getcut: wavevector=  0.0000  0.0000  0.0000  ngfft=  16  16  16
         ecut(hartree)=      5.000   => boxcut(ratio)=   2.19033
--------------------------------------------------------------------------------

-inwffil : will read wavefunctions from disk file tw90_4o_DS2_WFK
- newkpt: read input wf with ikpt,npw=   1      69, make ikpt,npw=   1     137
- newkpt: read input wf with ikpt,npw=   2     150, make ikpt,npw=   2     150
- newkpt: read input wf with ikpt,npw=   3      69, make ikpt,npw=   3     138
- newkpt: read input wf with ikpt,npw=   2     150, make ikpt,npw=   4     150
- newkpt: read input wf with ikpt,npw=   2     150, make ikpt,npw=   5     150
- newkpt: read input wf with ikpt,npw=   4     149, make ikpt,npw=   6     149
- newkpt: read input wf with ikpt,npw=   5     143, make ikpt,npw=   7     143
- newkpt: read input wf with ikpt,npw=   6     144, make ikpt,npw=   8     144
- newkpt: read input wf with ikpt,npw=   3      69, make ikpt,npw=   9     138
- newkpt: read input wf with ikpt,npw=   5     143, make ikpt,npw=  10     143
- newkpt: read input wf with ikpt,npw=   7      75, make ikpt,npw=  11     150
- newkpt: read input wf with ikpt,npw=   5     143, make ikpt,npw=  12     143
- newkpt: read input wf with ikpt,npw=   2     150, make ikpt,npw=  13     150
- newkpt: read input wf with ikpt,npw=   6     144, make ikpt,npw=  14     144
- newkpt: read input wf with ikpt,npw=   5     143, make ikpt,npw=  15     143
- newkpt: read input wf with ikpt,npw=   4     149, make ikpt,npw=  16     149
- newkpt: read input wf with ikpt,npw=   2     150, make ikpt,npw=  17     150
- newkpt: read input wf with ikpt,npw=   4     149, make ikpt,npw=  18     149
- newkpt: read input wf with ikpt,npw=   5     143, make ikpt,npw=  19     143
- newkpt: read input wf with ikpt,npw=   6     144, make ikpt,npw=  20     144
- newkpt: read input wf with ikpt,npw=   4     149, make ikpt,npw=  21     149
- newkpt: read input wf with ikpt,npw=   2     150, make ikpt,npw=  22     150
- newkpt: read input wf with ikpt,npw=   6     144, make ikpt,npw=  23     144
- newkpt: read input wf with ikpt,npw=   5     143, make ikpt,npw=  24     143
- newkpt: read input wf with ikpt,npw=   5     143, make ikpt,npw=  25     143
- newkpt: read input wf with ikpt,npw=   6     144, make ikpt,npw=  26     144
- newkpt: read input wf with ikpt,npw=   5     143, make ikpt,npw=  27     143
- newkpt: read input wf with ikpt,npw=   8     144, make ikpt,npw=  28     144
- newkpt: read input wf with ikpt,npw=   6     144, make ikpt,npw=  29     144
- newkpt: read input wf with ikpt,npw=   5     143, make ikpt,npw=  30     143
- newkpt: read input wf with ikpt,npw=   8     144, make ikpt,npw=  31     144
- newkpt: read input wf with ikpt,npw=   5     143, make ikpt,npw=  32     143
- newkpt: read input wf with ikpt,npw=   3      69, make ikpt,npw=  33     138
- newkpt: read input wf with ikpt,npw=   5     143, make ikpt,npw=  34     143
- newkpt: read input wf with ikpt,npw=   7      75, make ikpt,npw=  35     150
- newkpt: read input wf with ikpt,npw=   5     143, make ikpt,npw=  36     143
- newkpt: read input wf with ikpt,npw=   5     143, make ikpt,npw=  37     143
- newkpt: read input wf with ikpt,npw=   6     144, make ikpt,npw=  38     144
- newkpt: read input wf with ikpt,npw=   5     143, make ikpt,npw=  39     143
- newkpt: read input wf with ikpt,npw=   8     144, make ikpt,npw=  40     144
- newkpt: read input wf with ikpt,npw=   7      75, make ikpt,npw=  41     150
- newkpt: read input wf with ikpt,npw=   5     143, make ikpt,npw=  42     143
- newkpt: read input wf with ikpt,npw=   3      69, make ikpt,npw=  43     138
- newkpt: read input wf with ikpt,npw=   5     143, make ikpt,npw=  44     143
- newkpt: read input wf with ikpt,npw=   5     143, make ikpt,npw=  45     143
- newkpt: read input wf with ikpt,npw=   8     144, make ikpt,npw=  46     144
- newkpt: read input wf with ikpt,npw=   5     143, make ikpt,npw=  47     143
- newkpt: read input wf with ikpt,npw=   6     144, make ikpt,npw=  48     144
- newkpt: read input wf with ikpt,npw=   2     150, make ikpt,npw=  49     150
- newkpt: read input wf with ikpt,npw=   6     144, make ikpt,npw=  50     144
- newkpt : prtvol=0 or 1, do not print more k-points.


================================================================================

---------------------------------------------------------------

  Calculation of overlap and call to wannier90 library 
  to obtain maximally localized wannier functions 

  - tw90_4o_DS3_w90.win is a mandatory secondary input
  - tw90_4o_DS3_w90.wout is the output for the library
  - tw90_4o_DS3_w90random.amn contains random projections
  - tw90_4o_DS3_w90.amn contains projections
  - tw90_4o_DS3_w90.mmn contains the overlap
  - tw90_4o_DS3_w90.eig contains the eigenvalues

---------------------------------------------------------------

   mlwfovlp:  you should give k-point in the full brillouin zone 
   with explicit k-points (or kptopt=3) and istwfk 1

   mlwfovlp :  mlwfovlp_setup done -
-  see tw90_4o_DS3_w90.wout for details.

   Writing top of the overlap matrix: M_mn(ikb,ik)
   m=n=1:3, ikb=1, ik=1

;   (   0.994536  -0.006720 ,   0.051935  -0.059563 ,   0.000000   0.000000 ,    )
;   (   0.007689  -0.000052 ,  -0.106977   0.122690 ,   0.439680   0.734917 ,    )
;   (   0.009772  -0.000066 ,  -0.135956   0.155926 ,   0.001503   0.002506 ,    )

   Writing bottom of the overlap matrix: M_mn(ikb,ik)
   m=n=num_bands-2:num_bands, ikb=nntot, ik=nkpt

;   (   0.000001  -0.000000 ,  -0.000002  -0.000003 ,  -0.046485   0.202089 ,    )
;   (  -0.145369   0.101336 ,  -0.089717  -0.085463 ,   0.000012   0.000003 ,    )
;   (  -0.009060  -0.123577 ,  -0.170587   0.047963 ,   0.000006  -0.000012 ,    )

   Writing top of the initial projections matrix: A_mn(ik)
   m=1:3, n=1:3, ik=1

;   (   0.298937  -0.000000 ,   0.298937  -0.000000 ,   0.298937   0.000000 ,    )
;   (  -0.147825  -0.000000 ,   0.627042   0.000000 ,  -0.427438   0.000000 ,    )
;   (  -0.187869   0.000000 ,  -0.187820  -0.000000 ,  -0.291361   0.000000 ,    )

   Writing bottom of the initial projections matrix: A_mn(ik)
   m=num_bands-2:num_bands, n=nwan-2:nwan, ik=nkpt

;   (  -0.108291  -0.050361 ,  -0.108291  -0.050360 ,  -0.108290  -0.050361 ,    )
;   (  -0.092196   0.089421 ,   0.172239   0.020351 ,  -0.080034  -0.109773 ,    )
;   (   0.161985  -0.024872 ,  -0.029940   0.111260 ,  -0.132037  -0.086388 ,    )

   mlwfovlp :  mlwfovlp_run completed -
-  see tw90_4o_DS3_w90.wout for details.

================================================================================

 ----iterations are completed or convergence reached----

 Mean square residual over all n,k,spin=   9.2418E-08; max=  2.5212E-06
   0.0000  0.0000  0.0000    1  8.90576E-11 kpt; spin; max resid(k); each band:
  5.35E-16 5.02E-16 5.35E-16 5.02E-16 2.18E-13 2.29E-11 5.35E-11 3.39E-12
  3.95E-11 7.12E-12 4.23E-11 8.14E-12 1.02E-11 8.91E-11
   0.2500  0.0000  0.0000    1  9.42347E-11 kpt; spin; max resid(k); each band:
  2.89E-16 7.09E-16 1.76E-16 1.77E-16 1.80E-15 4.22E-12 1.91E-11 3.72E-11
  4.06E-11 7.32E-11 2.10E-11 7.91E-11 4.26E-11 9.42E-11
   0.5000  0.0000  0.0000    1  9.56010E-11 kpt; spin; max resid(k); each band:
  3.30E-16 1.06E-16 1.19E-16 1.17E-16 2.62E-15 9.83E-12 1.24E-11 6.53E-11
  5.00E-11 9.56E-11 2.25E-11 1.37E-11 5.00E-11 1.71E-11
  -0.2500  0.0000  0.0000    1  9.42347E-11 kpt; spin; max resid(k); each band:
  2.89E-16 7.09E-16 1.76E-16 1.77E-16 1.80E-15 4.22E-12 1.91E-11 3.72E-11
  4.06E-11 7.32E-11 2.10E-11 7.91E-11 4.26E-11 9.42E-11
   0.0000  0.2500  0.0000    1  9.42347E-11 kpt; spin; max resid(k); each band:
  2.89E-16 7.09E-16 1.76E-16 1.77E-16 1.80E-15 4.22E-12 1.91E-11 3.72E-11
  4.06E-11 7.32E-11 2.10E-11 7.91E-11 4.26E-11 9.42E-11
   0.2500  0.2500  0.0000    1  8.32649E-11 kpt; spin; max resid(k); each band:
  2.05E-16 1.05E-16 6.55E-17 6.56E-17 9.02E-16 8.96E-12 1.62E-11 2.91E-11
  5.18E-11 8.33E-11 6.80E-11 1.61E-11 3.21E-11 5.34E-11
   0.5000  0.2500  0.0000    1  2.15863E-06 kpt; spin; max resid(k); each band:
  5.36E-16 5.22E-16 2.49E-15 3.47E-17 2.97E-15 9.28E-11 5.00E-11 2.03E-11
  5.90E-11 5.29E-11 6.52E-11 4.96E-11 1.44E-11 2.16E-06
  -0.2500  0.2500  0.0000    1  2.52116E-06 kpt; spin; max resid(k); each band:
  3.66E-16 1.51E-17 1.23E-15 1.09E-16 2.39E-15 2.35E-11 5.03E-11 1.18E-11
  2.94E-11 3.39E-11 1.45E-11 5.00E-11 1.82E-11 2.52E-06
   0.0000  0.5000  0.0000    1  9.56010E-11 kpt; spin; max resid(k); each band:
  3.30E-16 1.06E-16 1.19E-16 1.17E-16 2.62E-15 9.83E-12 1.24E-11 6.53E-11
  5.00E-11 9.56E-11 2.25E-11 1.37E-11 5.00E-11 1.71E-11
   0.2500  0.5000  0.0000    1  2.15863E-06 kpt; spin; max resid(k); each band:
  5.36E-16 5.22E-16 2.49E-15 3.47E-17 2.97E-15 9.28E-11 5.00E-11 2.03E-11
  5.90E-11 5.29E-11 6.52E-11 4.96E-11 1.44E-11 2.16E-06
   0.5000  0.5000  0.0000    1  5.35720E-11 kpt; spin; max resid(k); each band:
  5.78E-16 3.70E-17 1.98E-16 1.98E-16 4.67E-11 1.61E-11 5.98E-12 3.61E-11
  1.82E-11 5.36E-11 3.69E-11 2.56E-11 1.83E-11 2.25E-11
  -0.2500  0.5000  0.0000    1  2.15863E-06 kpt; spin; max resid(k); each band:
  5.36E-16 5.22E-16 2.49E-15 3.47E-17 2.97E-15 9.28E-11 5.00E-11 2.03E-11
  5.90E-11 5.29E-11 6.52E-11 4.96E-11 1.44E-11 2.16E-06
   0.0000 -0.2500  0.0000    1  9.42347E-11 kpt; spin; max resid(k); each band:
  2.89E-16 7.09E-16 1.76E-16 1.77E-16 1.80E-15 4.22E-12 1.91E-11 3.72E-11
  4.06E-11 7.32E-11 2.10E-11 7.91E-11 4.26E-11 9.42E-11
   0.2500 -0.2500  0.0000    1  2.52116E-06 kpt; spin; max resid(k); each band:
  3.66E-16 1.51E-17 1.23E-15 1.09E-16 2.39E-15 2.35E-11 5.03E-11 1.18E-11
  2.94E-11 3.39E-11 1.45E-11 5.00E-11 1.82E-11 2.52E-06
   0.5000 -0.2500  0.0000    1  2.15863E-06 kpt; spin; max resid(k); each band:
  5.36E-16 5.22E-16 2.49E-15 3.47E-17 2.97E-15 9.28E-11 5.00E-11 2.03E-11
  5.90E-11 5.29E-11 6.52E-11 4.96E-11 1.44E-11 2.16E-06
  -0.2500 -0.2500  0.0000    1  8.32649E-11 kpt; spin; max resid(k); each band:
  2.05E-16 1.05E-16 6.55E-17 6.56E-17 9.02E-16 8.96E-12 1.62E-11 2.91E-11
  5.18E-11 8.33E-11 6.80E-11 1.61E-11 3.21E-11 5.34E-11
   0.0000  0.0000  0.2500    1  9.42347E-11 kpt; spin; max resid(k); each band:
  2.89E-16 7.08E-16 1.76E-16 1.77E-16 1.80E-15 4.22E-12 1.91E-11 3.72E-11
  4.06E-11 7.32E-11 2.10E-11 7.91E-11 4.26E-11 9.42E-11
   0.2500  0.0000  0.2500    1  8.32649E-11 kpt; spin; max resid(k); each band:
  2.05E-16 1.05E-16 6.55E-17 6.56E-17 9.02E-16 8.96E-12 1.62E-11 2.91E-11
  5.18E-11 8.33E-11 6.80E-11 1.61E-11 3.21E-11 5.34E-11
   0.5000  0.0000  0.2500    1  2.15863E-06 kpt; spin; max resid(k); each band:
  5.36E-16 5.22E-16 2.49E-15 3.47E-17 2.97E-15 9.28E-11 5.00E-11 2.03E-11
  5.90E-11 5.29E-11 6.52E-11 4.96E-11 1.44E-11 2.16E-06
  -0.2500  0.0000  0.2500    1  2.52116E-06 kpt; spin; max resid(k); each band:
  3.66E-16 1.51E-17 1.23E-15 1.09E-16 2.39E-15 2.35E-11 5.03E-11 1.18E-11
  2.94E-11 3.39E-11 1.45E-11 5.00E-11 1.82E-11 2.52E-06
   0.0000  0.2500  0.2500    1  8.32649E-11 kpt; spin; max resid(k); each band:
  2.05E-16 1.05E-16 6.55E-17 6.56E-17 9.02E-16 8.96E-12 1.62E-11 2.91E-11
  5.18E-11 8.33E-11 6.80E-11 1.61E-11 3.21E-11 5.34E-11
   0.2500  0.2500  0.2500    1  9.42347E-11 kpt; spin; max resid(k); each band:
  2.89E-16 7.09E-16 1.76E-16 1.77E-16 1.80E-15 4.22E-12 1.91E-11 3.72E-11
  4.06E-11 7.32E-11 2.10E-11 7.91E-11 4.26E-11 9.42E-11
   0.5000  0.2500  0.2500    1  2.52116E-06 kpt; spin; max resid(k); each band:
  3.66E-16 1.51E-17 1.23E-15 1.09E-16 2.39E-15 2.35E-11 5.03E-11 1.18E-11
  2.94E-11 3.39E-11 1.45E-11 5.00E-11 1.82E-11 2.52E-06
  -0.2500  0.2500  0.2500    1  2.15863E-06 kpt; spin; max resid(k); each band:
  5.36E-16 5.22E-16 2.49E-15 3.47E-17 2.97E-15 9.28E-11 5.00E-11 2.03E-11
  5.90E-11 5.29E-11 6.52E-11 4.96E-11 1.44E-11 2.16E-06
   0.0000  0.5000  0.2500    1  2.15863E-06 kpt; spin; max resid(k); each band:
  5.36E-16 5.22E-16 2.49E-15 3.47E-17 2.97E-15 9.28E-11 5.00E-11 2.03E-11
  5.90E-11 5.29E-11 6.52E-11 4.96E-11 1.44E-11 2.16E-06
   0.2500  0.5000  0.2500    1  2.52116E-06 kpt; spin; max resid(k); each band:
  3.66E-16 1.51E-17 1.23E-15 1.09E-16 2.39E-15 2.35E-11 5.03E-11 1.18E-11
  2.94E-11 3.39E-11 1.45E-11 5.00E-11 1.82E-11 2.52E-06
   0.5000  0.5000  0.2500    1  2.15863E-06 kpt; spin; max resid(k); each band:
  5.36E-16 5.22E-16 2.49E-15 3.47E-17 2.97E-15 9.28E-11 5.00E-11 2.03E-11
  5.90E-11 5.29E-11 6.52E-11 4.96E-11 1.44E-11 2.16E-06
  -0.2500  0.5000  0.2500    1  1.05230E-07 kpt; spin; max resid(k); each band:
  8.38E-17 1.38E-16 6.82E-17 1.26E-15 5.02E-14 4.26E-11 6.78E-11 4.58E-11
  3.99E-11 1.61E-11 4.69E-11 4.55E-11 1.54E-08 1.05E-07
   0.0000 -0.2500  0.2500    1  2.52116E-06 kpt; spin; max resid(k); each band:
  3.66E-16 1.51E-17 1.23E-15 1.09E-16 2.39E-15 2.35E-11 5.03E-11 1.18E-11
  2.94E-11 3.39E-11 1.45E-11 5.00E-11 1.82E-11 2.52E-06
   0.2500 -0.2500  0.2500    1  2.15863E-06 kpt; spin; max resid(k); each band:
  5.36E-16 5.22E-16 2.49E-15 3.47E-17 2.97E-15 9.28E-11 5.00E-11 2.03E-11
  5.90E-11 5.29E-11 6.52E-11 4.96E-11 1.44E-11 2.16E-06
   0.5000 -0.2500  0.2500    1  1.05230E-07 kpt; spin; max resid(k); each band:
  8.38E-17 1.38E-16 6.82E-17 1.26E-15 5.02E-14 4.26E-11 6.78E-11 4.58E-11
  3.99E-11 1.61E-11 4.69E-11 4.55E-11 1.54E-08 1.05E-07
  -0.2500 -0.2500  0.2500    1  2.15863E-06 kpt; spin; max resid(k); each band:
  5.36E-16 5.21E-16 2.49E-15 3.47E-17 2.97E-15 9.28E-11 5.00E-11 2.03E-11
  5.90E-11 5.29E-11 6.52E-11 4.96E-11 1.44E-11 2.16E-06
   0.0000  0.0000  0.5000    1  9.56010E-11 kpt; spin; max resid(k); each band:
  3.30E-16 1.06E-16 1.19E-16 1.17E-16 2.62E-15 9.83E-12 1.24E-11 6.53E-11
  5.00E-11 9.56E-11 2.25E-11 1.37E-11 5.00E-11 1.71E-11
   0.2500  0.0000  0.5000    1  2.15863E-06 kpt; spin; max resid(k); each band:
  5.36E-16 5.21E-16 2.49E-15 3.47E-17 2.97E-15 9.28E-11 5.00E-11 2.03E-11
  5.90E-11 5.29E-11 6.52E-11 4.96E-11 1.44E-11 2.16E-06
   0.5000  0.0000  0.5000    1  5.35720E-11 kpt; spin; max resid(k); each band:
  5.78E-16 3.70E-17 1.98E-16 1.98E-16 4.67E-11 1.61E-11 5.98E-12 3.61E-11
  1.82E-11 5.36E-11 3.69E-11 2.56E-11 1.83E-11 2.25E-11
  -0.2500  0.0000  0.5000    1  2.15863E-06 kpt; spin; max resid(k); each band:
  5.36E-16 5.21E-16 2.49E-15 3.47E-17 2.97E-15 9.28E-11 5.00E-11 2.03E-11
  5.90E-11 5.29E-11 6.52E-11 4.96E-11 1.44E-11 2.16E-06
   0.0000  0.2500  0.5000    1  2.15863E-06 kpt; spin; max resid(k); each band:
  5.36E-16 5.21E-16 2.49E-15 3.47E-17 2.97E-15 9.28E-11 5.00E-11 2.03E-11
  5.90E-11 5.29E-11 6.52E-11 4.96E-11 1.44E-11 2.16E-06
   0.2500  0.2500  0.5000    1  2.52116E-06 kpt; spin; max resid(k); each band:
  3.66E-16 1.51E-17 1.23E-15 1.09E-16 2.39E-15 2.35E-11 5.03E-11 1.18E-11
  2.94E-11 3.39E-11 1.45E-11 5.00E-11 1.82E-11 2.52E-06
   0.5000  0.2500  0.5000    1  2.15863E-06 kpt; spin; max resid(k); each band:
  5.36E-16 5.22E-16 2.49E-15 3.47E-17 2.97E-15 9.28E-11 5.00E-11 2.03E-11
  5.90E-11 5.29E-11 6.52E-11 4.96E-11 1.44E-11 2.16E-06
  -0.2500  0.2500  0.5000    1  1.05230E-07 kpt; spin; max resid(k); each band:
  8.38E-17 1.38E-16 6.82E-17 1.26E-15 5.02E-14 4.26E-11 6.78E-11 4.58E-11
  3.99E-11 1.61E-11 4.69E-11 4.55E-11 1.54E-08 1.05E-07
   0.0000  0.5000  0.5000    1  5.35720E-11 kpt; spin; max resid(k); each band:
  5.78E-16 3.70E-17 1.98E-16 1.98E-16 4.67E-11 1.61E-11 5.98E-12 3.61E-11
  1.82E-11 5.36E-11 3.69E-11 2.56E-11 1.83E-11 2.25E-11
   0.2500  0.5000  0.5000    1  2.15863E-06 kpt; spin; max resid(k); each band:
  5.36E-16 5.22E-16 2.49E-15 3.47E-17 2.97E-15 9.28E-11 5.00E-11 2.03E-11
  5.90E-11 5.29E-11 6.52E-11 4.96E-11 1.44E-11 2.16E-06
   0.5000  0.5000  0.5000    1  9.56010E-11 kpt; spin; max resid(k); each band:
  3.30E-16 1.06E-16 1.19E-16 1.17E-16 2.62E-15 9.83E-12 1.24E-11 6.53E-11
  5.00E-11 9.56E-11 2.25E-11 1.37E-11 5.00E-11 1.71E-11
  -0.2500  0.5000  0.5000    1  2.15863E-06 kpt; spin; max resid(k); each band:
  5.36E-16 5.22E-16 2.49E-15 3.47E-17 2.97E-15 9.28E-11 5.00E-11 2.03E-11
  5.90E-11 5.29E-11 6.52E-11 4.96E-11 1.44E-11 2.16E-06
   0.0000 -0.2500  0.5000    1  2.15863E-06 kpt; spin; max resid(k); each band:
  5.36E-16 5.21E-16 2.49E-15 3.47E-17 2.97E-15 9.28E-11 5.00E-11 2.03E-11
  5.90E-11 5.29E-11 6.52E-11 4.96E-11 1.44E-11 2.16E-06
   0.2500 -0.2500  0.5000    1  1.05230E-07 kpt; spin; max resid(k); each band:
  8.38E-17 1.38E-16 6.82E-17 1.26E-15 5.02E-14 4.26E-11 6.78E-11 4.58E-11
  3.99E-11 1.61E-11 4.69E-11 4.55E-11 1.54E-08 1.05E-07
   0.5000 -0.2500  0.5000    1  2.15863E-06 kpt; spin; max resid(k); each band:
  5.36E-16 5.22E-16 2.49E-15 3.47E-17 2.97E-15 9.28E-11 5.00E-11 2.03E-11
  5.90E-11 5.29E-11 6.52E-11 4.96E-11 1.44E-11 2.16E-06
  -0.2500 -0.2500  0.5000    1  2.52116E-06 kpt; spin; max resid(k); each band:
  3.66E-16 1.51E-17 1.23E-15 1.09E-16 2.39E-15 2.35E-11 5.03E-11 1.18E-11
  2.94E-11 3.39E-11 1.45E-11 5.00E-11 1.82E-11 2.52E-06
   0.0000  0.0000 -0.2500    1  9.42347E-11 kpt; spin; max resid(k); each band:
  2.89E-16 7.08E-16 1.76E-16 1.77E-16 1.80E-15 4.22E-12 1.91E-11 3.72E-11
  4.06E-11 7.32E-11 2.10E-11 7.91E-11 4.26E-11 9.42E-11
   0.2500  0.0000 -0.2500    1  2.52116E-06 kpt; spin; max resid(k); each band:
  3.66E-16 1.51E-17 1.23E-15 1.09E-16 2.39E-15 2.35E-11 5.03E-11 1.18E-11
  2.94E-11 3.39E-11 1.45E-11 5.00E-11 1.82E-11 2.52E-06
 outwf : prtvol=0 or 1, do not print more k-points.

 reduced coordinates (array xred) for    2 atoms
       0.000000000000      0.000000000000      0.000000000000
       0.250000000000      0.250000000000      0.250000000000

 cartesian coordinates (angstrom) at end:
    1      0.00000000000000     0.00000000000000     0.00000000000000
    2      1.35773642293979     1.35773642293979     1.35773642293979
 length scales= 10.263000000000 10.263000000000 10.263000000000 bohr
              =  5.430945691759  5.430945691759  5.430945691759 angstroms
 prteigrs : about to open file tw90_4o_DS3_EIG
 Eigenvalues (hartree) for nkpt=  64  k points:
 kpt#   1, nband= 14, wtk=  0.01563, kpt=  0.0000  0.0000  0.0000 (reduced coord)
  -0.22387   0.21539   0.21539   0.21539   0.30796   0.30796   0.30796   0.33306
   0.49473   0.51604   0.51604   0.62567   0.62567   0.62567
 kpt#   2, nband= 14, wtk=  0.01563, kpt=  0.2500  0.0000  0.0000 (reduced coord)
  -0.19540   0.06936   0.18622   0.18622   0.28701   0.34340   0.34340   0.46089
   0.48732   0.48732   0.53622   0.64131   0.76203   0.76203
 kpt#   3, nband= 14, wtk=  0.01563, kpt=  0.5000  0.0000  0.0000 (reduced coord)
  -0.13802  -0.04246   0.16975   0.16975   0.27383   0.33846   0.33846   0.49039
   0.62227   0.62227   0.62391   0.63506   0.63506   0.67563
 kpt#   4, nband= 14, wtk=  0.01563, kpt= -0.2500  0.0000  0.0000 (reduced coord)
  -0.19540   0.06936   0.18622   0.18622   0.28701   0.34340   0.34340   0.46089
   0.48732   0.48732   0.53622   0.64131   0.76203   0.76203
 kpt#   5, nband= 14, wtk=  0.01563, kpt=  0.0000  0.2500  0.0000 (reduced coord)
  -0.19540   0.06936   0.18622   0.18622   0.28701   0.34340   0.34340   0.46089
   0.48732   0.48732   0.53622   0.64131   0.76203   0.76203
 kpt#   6, nband= 14, wtk=  0.01563, kpt=  0.2500  0.2500  0.0000 (reduced coord)
  -0.18476   0.08603   0.14389   0.14389   0.25421   0.32829   0.42733   0.42733
   0.50451   0.55741   0.62206   0.69739   0.69739   0.71978
 kpt#   7, nband= 14, wtk=  0.01563, kpt=  0.5000  0.2500  0.0000 (reduced coord)
  -0.12353  -0.01952   0.08261   0.13211   0.26896   0.37867   0.42452   0.43471
   0.58768   0.61471   0.67506   0.67820   0.68549   0.83621
 kpt#   8, nband= 14, wtk=  0.01563, kpt= -0.2500  0.2500  0.0000 (reduced coord)
  -0.14882   0.01388   0.07410   0.16492   0.30387   0.39040   0.40503   0.43533
   0.45971   0.56792   0.67550   0.70600   0.70748   0.82760
 kpt#   9, nband= 14, wtk=  0.01563, kpt=  0.0000  0.5000  0.0000 (reduced coord)
  -0.13802  -0.04246   0.16975   0.16975   0.27383   0.33846   0.33846   0.49039
   0.62227   0.62227   0.62391   0.63506   0.63506   0.67563
 kpt#  10, nband= 14, wtk=  0.01563, kpt=  0.2500  0.5000  0.0000 (reduced coord)
  -0.12353  -0.01952   0.08261   0.13211   0.26896   0.37867   0.42452   0.43471
   0.58768   0.61471   0.67506   0.67820   0.68549   0.83621
 kpt#  11, nband= 14, wtk=  0.01563, kpt=  0.5000  0.5000  0.0000 (reduced coord)
  -0.07179  -0.07179   0.10783   0.10783   0.23874   0.23874   0.58073   0.58073
   0.63580   0.63580   0.68044   0.68044   0.69144   0.69144
 kpt#  12, nband= 14, wtk=  0.01563, kpt= -0.2500  0.5000  0.0000 (reduced coord)
  -0.12353  -0.01952   0.08261   0.13211   0.26896   0.37867   0.42452   0.43471
   0.58768   0.61471   0.67506   0.67820   0.68549   0.83621
 kpt#  13, nband= 14, wtk=  0.01563, kpt=  0.0000 -0.2500  0.0000 (reduced coord)
  -0.19540   0.06936   0.18622   0.18622   0.28701   0.34340   0.34340   0.46089
   0.48732   0.48732   0.53622   0.64131   0.76203   0.76203
 kpt#  14, nband= 14, wtk=  0.01563, kpt=  0.2500 -0.2500  0.0000 (reduced coord)
  -0.14882   0.01388   0.07410   0.16492   0.30387   0.39040   0.40503   0.43533
   0.45971   0.56792   0.67550   0.70600   0.70748   0.82760
 kpt#  15, nband= 14, wtk=  0.01563, kpt=  0.5000 -0.2500  0.0000 (reduced coord)
  -0.12353  -0.01952   0.08261   0.13211   0.26896   0.37867   0.42452   0.43471
   0.58768   0.61471   0.67506   0.67820   0.68549   0.83621
 kpt#  16, nband= 14, wtk=  0.01563, kpt= -0.2500 -0.2500  0.0000 (reduced coord)
  -0.18476   0.08603   0.14389   0.14389   0.25421   0.32829   0.42733   0.42733
   0.50451   0.55741   0.62206   0.69739   0.69739   0.71978
 kpt#  17, nband= 14, wtk=  0.01563, kpt=  0.0000  0.0000  0.2500 (reduced coord)
  -0.19540   0.06936   0.18622   0.18622   0.28701   0.34340   0.34340   0.46089
   0.48732   0.48732   0.53622   0.64131   0.76203   0.76203
 kpt#  18, nband= 14, wtk=  0.01563, kpt=  0.2500  0.0000  0.2500 (reduced coord)
  -0.18476   0.08603   0.14389   0.14389   0.25421   0.32829   0.42733   0.42733
   0.50451   0.55741   0.62206   0.69739   0.69739   0.71978
 kpt#  19, nband= 14, wtk=  0.01563, kpt=  0.5000  0.0000  0.2500 (reduced coord)
  -0.12353  -0.01952   0.08261   0.13211   0.26896   0.37867   0.42452   0.43471
   0.58768   0.61471   0.67506   0.67820   0.68549   0.83621
 kpt#  20, nband= 14, wtk=  0.01563, kpt= -0.2500  0.0000  0.2500 (reduced coord)
  -0.14882   0.01388   0.07410   0.16492   0.30387   0.39040   0.40503   0.43533
   0.45971   0.56792   0.67550   0.70600   0.70748   0.82760
 kpt#  21, nband= 14, wtk=  0.01563, kpt=  0.0000  0.2500  0.2500 (reduced coord)
  -0.18476   0.08603   0.14389   0.14389   0.25421   0.32829   0.42733   0.42733
   0.50451   0.55741   0.62206   0.69739   0.69739   0.71978
 kpt#  22, nband= 14, wtk=  0.01563, kpt=  0.2500  0.2500  0.2500 (reduced coord)
  -0.19540   0.06936   0.18622   0.18622   0.28701   0.34340   0.34340   0.46089
   0.48732   0.48732   0.53622   0.64131   0.76203   0.76203
 kpt#  23, nband= 14, wtk=  0.01563, kpt=  0.5000  0.2500  0.2500 (reduced coord)
  -0.14882   0.01388   0.07410   0.16492   0.30387   0.39040   0.40503   0.43533
   0.45971   0.56792   0.67550   0.70600   0.70748   0.82760
 kpt#  24, nband= 14, wtk=  0.01563, kpt= -0.2500  0.2500  0.2500 (reduced coord)
  -0.12353  -0.01952   0.08261   0.13211   0.26896   0.37867   0.42452   0.43471
   0.58768   0.61471   0.67506   0.67820   0.68549   0.83621
 kpt#  25, nband= 14, wtk=  0.01563, kpt=  0.0000  0.5000  0.2500 (reduced coord)
  -0.12353  -0.01952   0.08261   0.13211   0.26896   0.37867   0.42452   0.43471
   0.58768   0.61471   0.67506   0.67820   0.68549   0.83621
 kpt#  26, nband= 14, wtk=  0.01563, kpt=  0.2500  0.5000  0.2500 (reduced coord)
  -0.14882   0.01388   0.07410   0.16492   0.30387   0.39040   0.40503   0.43533
   0.45971   0.56792   0.67550   0.70600   0.70748   0.82760
 kpt#  27, nband= 14, wtk=  0.01563, kpt=  0.5000  0.5000  0.2500 (reduced coord)
  -0.12353  -0.01952   0.08261   0.13211   0.26896   0.37867   0.42452   0.43471
   0.58768   0.61471   0.67506   0.67820   0.68549   0.83621
 kpt#  28, nband= 14, wtk=  0.01563, kpt= -0.2500  0.5000  0.2500 (reduced coord)
  -0.06519  -0.06519   0.07019   0.07019   0.37260   0.37260   0.39752   0.39752
   0.60966   0.60966   0.69636   0.69636   0.82534   0.82534
 kpt#  29, nband= 14, wtk=  0.01563, kpt=  0.0000 -0.2500  0.2500 (reduced coord)
  -0.14882   0.01388   0.07410   0.16492   0.30387   0.39040   0.40503   0.43533
   0.45971   0.56792   0.67550   0.70600   0.70748   0.82760
 kpt#  30, nband= 14, wtk=  0.01563, kpt=  0.2500 -0.2500  0.2500 (reduced coord)
  -0.12353  -0.01952   0.08261   0.13211   0.26896   0.37867   0.42452   0.43471
   0.58768   0.61471   0.67506   0.67820   0.68549   0.83621
 kpt#  31, nband= 14, wtk=  0.01563, kpt=  0.5000 -0.2500  0.2500 (reduced coord)
  -0.06519  -0.06519   0.07019   0.07019   0.37260   0.37260   0.39752   0.39752
   0.60966   0.60966   0.69636   0.69636   0.82534   0.82534
 kpt#  32, nband= 14, wtk=  0.01563, kpt= -0.2500 -0.2500  0.2500 (reduced coord)
  -0.12353  -0.01952   0.08261   0.13211   0.26896   0.37867   0.42452   0.43471
   0.58768   0.61471   0.67506   0.67820   0.68549   0.83621
 kpt#  33, nband= 14, wtk=  0.01563, kpt=  0.0000  0.0000  0.5000 (reduced coord)
  -0.13802  -0.04246   0.16975   0.16975   0.27383   0.33846   0.33846   0.49039
   0.62227   0.62227   0.62391   0.63506   0.63506   0.67563
 kpt#  34, nband= 14, wtk=  0.01563, kpt=  0.2500  0.0000  0.5000 (reduced coord)
  -0.12353  -0.01952   0.08261   0.13211   0.26896   0.37867   0.42452   0.43471
   0.58768   0.61471   0.67506   0.67820   0.68549   0.83621
 kpt#  35, nband= 14, wtk=  0.01563, kpt=  0.5000  0.0000  0.5000 (reduced coord)
  -0.07179  -0.07179   0.10783   0.10783   0.23874   0.23874   0.58073   0.58073
   0.63580   0.63580   0.68044   0.68044   0.69144   0.69144
 kpt#  36, nband= 14, wtk=  0.01563, kpt= -0.2500  0.0000  0.5000 (reduced coord)
  -0.12353  -0.01952   0.08261   0.13211   0.26896   0.37867   0.42452   0.43471
   0.58768   0.61471   0.67506   0.67820   0.68549   0.83621
 kpt#  37, nband= 14, wtk=  0.01563, kpt=  0.0000  0.2500  0.5000 (reduced coord)
  -0.12353  -0.01952   0.08261   0.13211   0.26896   0.37867   0.42452   0.43471
   0.58768   0.61471   0.67506   0.67820   0.68549   0.83621
 kpt#  38, nband= 14, wtk=  0.01563, kpt=  0.2500  0.2500  0.5000 (reduced coord)
  -0.14882   0.01388   0.07410   0.16492   0.30387   0.39040   0.40503   0.43533
   0.45971   0.56792   0.67550   0.70600   0.70748   0.82760
 kpt#  39, nband= 14, wtk=  0.01563, kpt=  0.5000  0.2500  0.5000 (reduced coord)
  -0.12353  -0.01952   0.08261   0.13211   0.26896   0.37867   0.42452   0.43471
   0.58768   0.61471   0.67506   0.67820   0.68549   0.83621
 kpt#  40, nband= 14, wtk=  0.01563, kpt= -0.2500  0.2500  0.5000 (reduced coord)
  -0.06519  -0.06519   0.07019   0.07019   0.37260   0.37260   0.39752   0.39752
   0.60966   0.60966   0.69636   0.69636   0.82534   0.82534
 kpt#  41, nband= 14, wtk=  0.01563, kpt=  0.0000  0.5000  0.5000 (reduced coord)
  -0.07179  -0.07179   0.10783   0.10783   0.23874   0.23874   0.58073   0.58073
   0.63580   0.63580   0.68044   0.68044   0.69144   0.69144
 kpt#  42, nband= 14, wtk=  0.01563, kpt=  0.2500  0.5000  0.5000 (reduced coord)
  -0.12353  -0.01952   0.08261   0.13211   0.26896   0.37867   0.42452   0.43471
   0.58768   0.61471   0.67506   0.67820   0.68549   0.83621
 kpt#  43, nband= 14, wtk=  0.01563, kpt=  0.5000  0.5000  0.5000 (reduced coord)
  -0.13802  -0.04246   0.16975   0.16975   0.27383   0.33846   0.33846   0.49039
   0.62227   0.62227   0.62391   0.63506   0.63506   0.67563
 kpt#  44, nband= 14, wtk=  0.01563, kpt= -0.2500  0.5000  0.5000 (reduced coord)
  -0.12353  -0.01952   0.08261   0.13211   0.26896   0.37867   0.42452   0.43471
   0.58768   0.61471   0.67506   0.67820   0.68549   0.83621
 kpt#  45, nband= 14, wtk=  0.01563, kpt=  0.0000 -0.2500  0.5000 (reduced coord)
  -0.12353  -0.01952   0.08261   0.13211   0.26896   0.37867   0.42452   0.43471
   0.58768   0.61471   0.67506   0.67820   0.68549   0.83621
 kpt#  46, nband= 14, wtk=  0.01563, kpt=  0.2500 -0.2500  0.5000 (reduced coord)
  -0.06519  -0.06519   0.07019   0.07019   0.37260   0.37260   0.39752   0.39752
   0.60966   0.60966   0.69636   0.69636   0.82534   0.82534
 kpt#  47, nband= 14, wtk=  0.01563, kpt=  0.5000 -0.2500  0.5000 (reduced coord)
  -0.12353  -0.01952   0.08261   0.13211   0.26896   0.37867   0.42452   0.43471
   0.58768   0.61471   0.67506   0.67820   0.68549   0.83621
 kpt#  48, nband= 14, wtk=  0.01563, kpt= -0.2500 -0.2500  0.5000 (reduced coord)
  -0.14882   0.01388   0.07410   0.16492   0.30387   0.39040   0.40503   0.43533
   0.45971   0.56792   0.67550   0.70600   0.70748   0.82760
 kpt#  49, nband= 14, wtk=  0.01563, kpt=  0.0000  0.0000 -0.2500 (reduced coord)
  -0.19540   0.06936   0.18622   0.18622   0.28701   0.34340   0.34340   0.46089
   0.48732   0.48732   0.53622   0.64131   0.76203   0.76203
 kpt#  50, nband= 14, wtk=  0.01563, kpt=  0.2500  0.0000 -0.2500 (reduced coord)
  -0.14882   0.01388   0.07410   0.16492   0.30387   0.39040   0.40503   0.43533
   0.45971   0.56792   0.67550   0.70600   0.70748   0.82760
 prteigrs : prtvol=0 or 1, do not print more k-points.

 Total charge density [el/Bohr^3]
,     Maximum=    8.7414E-02  at reduced coord.    0.1250    0.1250    0.6250
,Next maximum=    8.7414E-02  at reduced coord.    0.6250    0.1250    0.1250
,     Minimum=    3.1498E-03  at reduced coord.    0.5000    0.5000    0.5000
,Next minimum=    3.1498E-03  at reduced coord.    0.7500    0.7500    0.7500
,  Integrated=    8.0000E+00

== END DATASET(S) ==============================================================
================================================================================
  
 -outvars: echo values of variables after computation  --------
            acell      1.0263000000E+01  1.0263000000E+01  1.0263000000E+01 Bohr
              amu      2.80855000E+01
           diemac1     1.20000000E+01
           diemac2     1.00000000E+06
           diemac3     1.00000000E+06
             ecut      5.00000000E+00 Hartree
           enunit1          2
           enunit2          0
           enunit3          0
           etotal1    -8.8485977073E+00
            fcart1    -0.0000000000E+00 -0.0000000000E+00 -0.0000000000E+00
                      -0.0000000000E+00 -0.0000000000E+00 -0.0000000000E+00
-          fftalg         112
           getden1          0
           getden2          1
           getden3          2
           getwfk1          0
           getwfk2          1
           getwfk3          2
             iscf1          5
             iscf2         -2
             iscf3         -2
           istwfk1       2    0    3    0    0    0    7    0
           istwfk2       2    0    3    0    0    0    7    0
           istwfk3       1    0    1    0    0    0    0    0    1    0
                         1    0    0    0    0    0    0    0    0    0
                         0    0    0    0    0    0    0    0    0    0
                         0    0    1    0    1    0    0    0    0    0
                         1    0    1    0    0    0    0    0    0    0
                         0    0    0    0    0    0    0    0    0    0
                         0    0    0    0
           jdtset        1    2    3
              kpt1     0.00000000E+00  0.00000000E+00  0.00000000E+00
                       2.50000000E-01  0.00000000E+00  0.00000000E+00
                       5.00000000E-01  0.00000000E+00  0.00000000E+00
                       2.50000000E-01  2.50000000E-01  0.00000000E+00
                       5.00000000E-01  2.50000000E-01  0.00000000E+00
                      -2.50000000E-01  2.50000000E-01  0.00000000E+00
                       5.00000000E-01  5.00000000E-01  0.00000000E+00
                      -2.50000000E-01  5.00000000E-01  2.50000000E-01
              kpt2     0.00000000E+00  0.00000000E+00  0.00000000E+00
                       2.50000000E-01  0.00000000E+00  0.00000000E+00
                       5.00000000E-01  0.00000000E+00  0.00000000E+00
                       2.50000000E-01  2.50000000E-01  0.00000000E+00
                       5.00000000E-01  2.50000000E-01  0.00000000E+00
                      -2.50000000E-01  2.50000000E-01  0.00000000E+00
                       5.00000000E-01  5.00000000E-01  0.00000000E+00
                      -2.50000000E-01  5.00000000E-01  2.50000000E-01
              kpt3     0.00000000E+00  0.00000000E+00  0.00000000E+00
                       2.50000000E-01  0.00000000E+00  0.00000000E+00
                       5.00000000E-01  0.00000000E+00  0.00000000E+00
                      -2.50000000E-01  0.00000000E+00  0.00000000E+00
                       0.00000000E+00  2.50000000E-01  0.00000000E+00
                       2.50000000E-01  2.50000000E-01  0.00000000E+00
                       5.00000000E-01  2.50000000E-01  0.00000000E+00
                      -2.50000000E-01  2.50000000E-01  0.00000000E+00
                       0.00000000E+00  5.00000000E-01  0.00000000E+00
                       2.50000000E-01  5.00000000E-01  0.00000000E+00
                       5.00000000E-01  5.00000000E-01  0.00000000E+00
                      -2.50000000E-01  5.00000000E-01  0.00000000E+00
                       0.00000000E+00 -2.50000000E-01  0.00000000E+00
                       2.50000000E-01 -2.50000000E-01  0.00000000E+00
                       5.00000000E-01 -2.50000000E-01  0.00000000E+00
                      -2.50000000E-01 -2.50000000E-01  0.00000000E+00
                       0.00000000E+00  0.00000000E+00  2.50000000E-01
                       2.50000000E-01  0.00000000E+00  2.50000000E-01
                       5.00000000E-01  0.00000000E+00  2.50000000E-01
                      -2.50000000E-01  0.00000000E+00  2.50000000E-01
                       0.00000000E+00  2.50000000E-01  2.50000000E-01
                       2.50000000E-01  2.50000000E-01  2.50000000E-01
                       5.00000000E-01  2.50000000E-01  2.50000000E-01
                      -2.50000000E-01  2.50000000E-01  2.50000000E-01
                       0.00000000E+00  5.00000000E-01  2.50000000E-01
                       2.50000000E-01  5.00000000E-01  2.50000000E-01
                       5.00000000E-01  5.00000000E-01  2.50000000E-01
                      -2.50000000E-01  5.00000000E-01  2.50000000E-01
                       0.00000000E+00 -2.50000000E-01  2.50000000E-01
                       2.50000000E-01 -2.50000000E-01  2.50000000E-01
                       5.00000000E-01 -2.50000000E-01  2.50000000E-01
                      -2.50000000E-01 -2.50000000E-01  2.50000000E-01
                       0.00000000E+00  0.00000000E+00  5.00000000E-01
                       2.50000000E-01  0.00000000E+00  5.00000000E-01
                       5.00000000E-01  0.00000000E+00  5.00000000E-01
                      -2.50000000E-01  0.00000000E+00  5.00000000E-01
                       0.00000000E+00  2.50000000E-01  5.00000000E-01
                       2.50000000E-01  2.50000000E-01  5.00000000E-01
                       5.00000000E-01  2.50000000E-01  5.00000000E-01
                      -2.50000000E-01  2.50000000E-01  5.00000000E-01
                       0.00000000E+00  5.00000000E-01  5.00000000E-01
                       2.50000000E-01  5.00000000E-01  5.00000000E-01
                       5.00000000E-01  5.00000000E-01  5.00000000E-01
                      -2.50000000E-01  5.00000000E-01  5.00000000E-01
                       0.00000000E+00 -2.50000000E-01  5.00000000E-01
                       2.50000000E-01 -2.50000000E-01  5.00000000E-01
                       5.00000000E-01 -2.50000000E-01  5.00000000E-01
                      -2.50000000E-01 -2.50000000E-01  5.00000000E-01
                       0.00000000E+00  0.00000000E+00 -2.50000000E-01
                       2.50000000E-01  0.00000000E+00 -2.50000000E-01
                       5.00000000E-01  0.00000000E+00 -2.50000000E-01
                      -2.50000000E-01  0.00000000E+00 -2.50000000E-01
                       0.00000000E+00  2.50000000E-01 -2.50000000E-01
                       2.50000000E-01  2.50000000E-01 -2.50000000E-01
                       5.00000000E-01  2.50000000E-01 -2.50000000E-01
                      -2.50000000E-01  2.50000000E-01 -2.50000000E-01
                       0.00000000E+00  5.00000000E-01 -2.50000000E-01
                       2.50000000E-01  5.00000000E-01 -2.50000000E-01
                       5.00000000E-01  5.00000000E-01 -2.50000000E-01
                      -2.50000000E-01  5.00000000E-01 -2.50000000E-01
                       0.00000000E+00 -2.50000000E-01 -2.50000000E-01
                       2.50000000E-01 -2.50000000E-01 -2.50000000E-01
                       5.00000000E-01 -2.50000000E-01 -2.50000000E-01
                      -2.50000000E-01 -2.50000000E-01 -2.50000000E-01
           kptopt1          1
           kptopt2          1
           kptopt3          3
         kptrlatt        4    0    0      0    4    0      0    0    4
          kptrlen      2.90281476E+01
P           mkmem1          8
P           mkmem2          8
P           mkmem3         64
            natom           2
            nband1          5
            nband2         14
            nband3         14
           nbdbuf1          0
           nbdbuf2          2
           nbdbuf3          2
           ndtset           3
            ngfft          16      16      16
             nkpt1          8
             nkpt2          8
             nkpt3         64
            nstep1        100
            nstep2        200
            nstep3          0
             nsym          24
           ntypat           1
              occ      2.000000  2.000000  2.000000  2.000000  0.000000
        optforces           1
           prtvol1          0
           prtvol2          1
           prtvol3          1
          prtwant1          0
          prtwant2          0
          prtwant3          2
            rprim      0.0000000000E+00  5.0000000000E-01  5.0000000000E-01
                       5.0000000000E-01  0.0000000000E+00  5.0000000000E-01
                       5.0000000000E-01  5.0000000000E-01  0.0000000000E+00
          spgroup         227
           strten1     1.5048499284E-04  1.5048499284E-04  1.5048499284E-04
                       0.0000000000E+00  0.0000000000E+00  0.0000000000E+00
        symmorphi           0
           symrel      1  0  0   0  1  0   0  0  1       0 -1  1   0 -1  0   1 -1  0
                      -1  0  0  -1  0  1  -1  1  0       0  1 -1   1  0 -1   0  0 -1
                      -1  0  0  -1  1  0  -1  0  1       0 -1  1   1 -1  0   0 -1  0
                       1  0  0   0  0  1   0  1  0       0  1 -1   0  0 -1   1  0 -1
                      -1  0  1  -1  1  0  -1  0  0       0 -1  0   1 -1  0   0 -1  1
                       1  0 -1   0  0 -1   0  1 -1       0  1  0   0  0  1   1  0  0
                       1  0 -1   0  1 -1   0  0 -1       0 -1  0   0 -1  1   1 -1  0
                      -1  0  1  -1  0  0  -1  1  0       0  1  0   1  0  0   0  0  1
                       0  0 -1   0  1 -1   1  0 -1       1 -1  0   0 -1  1   0 -1  0
                       0  0  1   1  0  0   0  1  0      -1  1  0  -1  0  0  -1  0  1
                       0  0  1   0  1  0   1  0  0       1 -1  0   0 -1  0   0 -1  1
                       0  0 -1   1  0 -1   0  1 -1      -1  1  0  -1  0  1  -1  0  0
           tolvrs1     1.00000000E-10
           tolvrs2     0.00000000E+00
           tolvrs3     0.00000000E+00
           tolwfr1     0.00000000E+00
           tolwfr2     1.00000000E-10
           tolwfr3     1.00000000E-10
            typat      1  1
              wtk1       0.01563    0.12500    0.06250    0.09375    0.37500    0.18750
                         0.04688    0.09375
              wtk2       0.01563    0.12500    0.06250    0.09375    0.37500    0.18750
                         0.04688    0.09375
              wtk3       0.01563    0.01563    0.01563    0.01563    0.01563    0.01563
                         0.01563    0.01563    0.01563    0.01563    0.01563    0.01563
                         0.01563    0.01563    0.01563    0.01563    0.01563    0.01563
                         0.01563    0.01563    0.01563    0.01563    0.01563    0.01563
                         0.01563    0.01563    0.01563    0.01563    0.01563    0.01563
                         0.01563    0.01563    0.01563    0.01563    0.01563    0.01563
                         0.01563    0.01563    0.01563    0.01563    0.01563    0.01563
                         0.01563    0.01563    0.01563    0.01563    0.01563    0.01563
                         0.01563    0.01563    0.01563    0.01563    0.01563    0.01563
                         0.01563    0.01563    0.01563    0.01563    0.01563    0.01563
                         0.01563    0.01563    0.01563    0.01563
        w90iniprj1          1
        w90iniprj2          1
        w90iniprj3          2
        w90prtunk1          0
        w90prtunk2          0
        w90prtunk3          1
           xangst      0.0000000000E+00  0.0000000000E+00  0.0000000000E+00
                       1.3577364229E+00  1.3577364229E+00  1.3577364229E+00
            xcart      0.0000000000E+00  0.0000000000E+00  0.0000000000E+00
                       2.5657500000E+00  2.5657500000E+00  2.5657500000E+00
             xred      0.0000000000E+00  0.0000000000E+00  0.0000000000E+00
                       2.5000000000E-01  2.5000000000E-01  2.5000000000E-01
            znucl       14.00000

================================================================================


- Timing analysis has been suppressed with timopt=0



================================================================================

 Suggested references for the acknowledgment of ABINIT usage.

 The users of ABINIT have little formal obligations with respect to the ABINIT group
 (those specified in the GNU General Public License, http://www.gnu.org/copyleft/gpl.txt).
 However, it is common practice in the scientific literature,
 to acknowledge the efforts of people that have made the research possible.
 In this spirit, please find below suggested citations of work written by ABINIT developers,
 corresponding to implementations inside of ABINIT that you have used in the present run.
 Note also that it will be of great value to readers of publications presenting these results,
 to read papers enabling them to understand the theoretical formalism and details
 of the ABINIT implementation.
 For information on why they are suggested, see also http://www.abinit.org/about/?text=acknowledgments.

 [1] ABINIT : First-principles approach of materials and nanosystem properties.
 X. Gonze, B. Amadon, P.-M. Anglade, J.-M. Beuken, F. Bottin, P. Boulanger, F. Bruneval,
 D. Caliste, R. Caracas, M. Cote, T. Deutsch, L. Genovese, Ph. Ghosez, M. Giantomassi
 S. Goedecker, D.R. Hamann, P. Hermet, F. Jollet, G. Jomard, S. Leroux, M. Mancini, S. Mazevet,
 M.J.T. Oliveira, G. Onida, Y. Pouillon, T. Rangel, G.-M. Rignanese, D. Sangalli, R. Shaltaf,
 M. Torrent, M.J. Verstraete, G. Zerah, J.W. Zwanziger
 Computer Phys. Comm. 180, 2582-2615 (2009).
 Comment : the third generic paper describing the ABINIT project.
 Note that a version of this paper, that is not formatted for Computer Phys. Comm. 
 is available at http://www.abinit.org/about/ABINIT_CPC_v10.pdf .
 The licence allows the authors to put it on the Web.

 [2] A brief introduction to the ABINIT software package.
 X. Gonze, G.-M. Rignanese, M. Verstraete, J.-M. Beuken, Y. Pouillon, R. Caracas, F. Jollet,
 M. Torrent, G. Zerah, M. Mikami, Ph. Ghosez, M. Veithen, J.-Y. Raty, V. Olevano, F. Bruneval,
 L. Reining, R. Godby, G. Onida, D.R. Hamann, and D.C. Allan.
 Z. Kristallogr. 220, 558-562 (2005).
 Comment : the second generic paper describing the ABINIT project. Note that this paper
 should be cited especially if you are using the GW part of ABINIT, as several authors
 of this part are not in the list of authors of the first or third paper.
 The .pdf of the latter paper is available at http://www.abinit.org/about/zfk_0505-06_558-562.pdf.
 Note that it should not redistributed (Copyright by Oldenburg Wissenshaftverlag,
 the licence allows the authors to put it on the Web).


 And optionally :

 [3] First-principles computation of material properties : the ABINIT software project. 
 X. Gonze, J.-M. Beuken, R. Caracas, F. Detraux, M. Fuchs, G.-M. Rignanese, L. Sindic,
 M. Verstraete, G. Zerah, F. Jollet, M. Torrent, A. Roy, M. Mikami, Ph. Ghosez, J.-Y. Raty, D.C. Allan.
 Computational Materials Science 25, 478-492 (2002). http://dx.doi.org/10.1016/S0927-0256(02)00325-7
 Comment : the original paper describing the ABINIT project.

 [4] Fast radix 2, 3, 4 and 5 kernels for Fast Fourier Transformations
 on computers with overlapping multiply-add instructions.
 S. Goedecker, SIAM J. on Scientific Computing 18, 1605 (1997).

 [5] Towards a potential-based conjugate gradient algorithm for order-N self-consistent
 total energy calculations.
 X. Gonze, Phys. Rev. B 54, 4383 (1996).
 Comment : The potential-based conjugate-gradient algorithm, used when iscf=5, is not published.
 However, many elements of this algorithm have been explained in the paper above.
-
- Proc.   0 individual time (sec): cpu=          7.6  wall=          7.6

================================================================================

 Calculation completed.
.Delivered   10 WARNINGs and   1 COMMENTs to log file.
+Overall time at end (sec) : cpu=          7.6  wall=          7.6
