
.Version 7.10.4 of ABINIT 
.(MPI version, prepared for a x86_64_linux_gnu4.7 computer) 

.Copyright (C) 1998-2014 ABINIT group . 
 ABINIT comes with ABSOLUTELY NO WARRANTY.
 It is free software, and you are welcome to redistribute it
 under certain conditions (GNU General Public License,
 see ~abinit/COPYING or http://www.gnu.org/copyleft/gpl.txt).

 ABINIT is a project of the Universite Catholique de Louvain,
 Corning Inc. and other collaborators, see ~abinit/doc/developers/contributors.txt .
 Please read ~abinit/doc/users/acknowledgments.html for suggested
 acknowledgments of the ABINIT effort.
 For more information, see http://www.abinit.org .

.Starting date : Wed 11 Mar 2015.
- ( at 10h19 )
  
- input  file    -> tw90_2.in
- output file    -> tw90_2.out
- root for input  files -> tw90_2i
- root for output files -> tw90_2o


 DATASET    1 : space group Fd -3 m (#227); Bravais cF (face-center cubic)
================================================================================
 Values of the parameters that define the memory need for DATASET  1.
   intxc =         0  ionmov =         0    iscf =         3 xclevel =         1
  lmnmax =        13   lnmax =         5   mband =         5  mffmem =         1
P  mgfft =        15   mkmem =         3 mpssoang=         3     mpw =       113
  mqgrid =      3001   natom =         2    nfft =      3375    nkpt =         3
  nloalg =         4  nspden =         1 nspinor =         1  nsppol =         1
    nsym =        24  n1xccc =         1  ntypat =         1  occopt =         1
 PAW method is used; the additional fine FFT grid is defined by:
   mgfftf=        30    nfftf =     27000
================================================================================
P This job should need less than                       9.597 Mbytes of memory.
  Rough estimation (10% accuracy) of disk space for files :
_ WF disk file :      0.028 Mbytes ; DEN or POT disk file :      0.208 Mbytes.
================================================================================


 DATASET    2 : space group Fd -3 m (#227); Bravais cF (face-center cubic)
================================================================================
 Values of the parameters that define the memory need for DATASET  2.
   intxc =         0  ionmov =         0    iscf =        -2 xclevel =         1
  lmnmax =        13   lnmax =         5   mband =         4  mffmem =         1
P  mgfft =        15   mkmem =         8 mpssoang=         3     mpw =       113
  mqgrid =      3001   natom =         2    nfft =      3375    nkpt =         8
  nloalg =         4  nspden =         1 nspinor =         1  nsppol =         1
    nsym =        24  n1xccc =         1  ntypat =         1  occopt =         1
 PAW method is used; the additional fine FFT grid is defined by:
   mgfftf=        30    nfftf =     27000
================================================================================
P This job should need less than                       9.356 Mbytes of memory.
  Rough estimation (10% accuracy) of disk space for files :
_ WF disk file :      0.057 Mbytes ; DEN or POT disk file :      0.208 Mbytes.
================================================================================

--------------------------------------------------------------------------------
------------- Echo of variables that govern the present computation ------------
--------------------------------------------------------------------------------
-
- outvars: echo of selected default values                                      
-   accesswff0 =  0 , fftalg0 =112 , wfoptalg0 = 10
-
- outvars: echo of global parameters not present in the input file              
-  max_nthreads =    0
-
 -outvars: echo values of preprocessed input variables --------
            acell      1.0263000000E+01  1.0263000000E+01  1.0263000000E+01 Bohr
              amu      2.80855000E+01
           diemac1     1.20000000E+01
           diemac2     1.00000000E+06
             ecut      4.00000000E+00 Hartree
-          fftalg         112
           getden1          0
           getden2          1
           getwfk1          0
           getwfk2          1
             iscf1          3
             iscf2         -2
           istwfk1       1    1    1
           istwfk2       1    1    1    1    1    1    1    1
              ixc           7
           jdtset        1    2
              kpt1     0.00000000E+00  0.00000000E+00  0.00000000E+00
                       5.00000000E-01  0.00000000E+00  0.00000000E+00
                       5.00000000E-01  5.00000000E-01  0.00000000E+00
              kpt2     0.00000000E+00  0.00000000E+00  0.00000000E+00
                       5.00000000E-01  0.00000000E+00  0.00000000E+00
                       0.00000000E+00  5.00000000E-01  0.00000000E+00
                       5.00000000E-01  5.00000000E-01  0.00000000E+00
                       0.00000000E+00  0.00000000E+00  5.00000000E-01
                       5.00000000E-01  0.00000000E+00  5.00000000E-01
                       0.00000000E+00  5.00000000E-01  5.00000000E-01
                       5.00000000E-01  5.00000000E-01  5.00000000E-01
           kptopt1          1
           kptopt2          3
         kptrlatt        2    0    0      0    2    0      0    0    2
          kptrlen      1.45140738E+01
P           mkmem1          3
P           mkmem2          8
            natom           2
            nband1          5
            nband2          4
           nbdbuf1          0
           nbdbuf2          2
           ndtset           2
            ngfft          15      15      15
          ngfftdg          30      30      30
             nkpt1          3
             nkpt2          8
            nstep1        100
            nstep2          0
             nsym          24
           ntypat           1
              occ      2.000000  2.000000  2.000000  2.000000  0.000000
        optforces           1
        pawecutdg      1.60000000E+01 Hartree
          prtwant1          0
          prtwant2          2
            rprim      0.0000000000E+00  5.0000000000E-01  5.0000000000E-01
                       5.0000000000E-01  0.0000000000E+00  5.0000000000E-01
                       5.0000000000E-01  5.0000000000E-01  0.0000000000E+00
          spgroup         227
        symmorphi           0
           symrel      1  0  0   0  1  0   0  0  1       0 -1  1   0 -1  0   1 -1  0
                      -1  0  0  -1  0  1  -1  1  0       0  1 -1   1  0 -1   0  0 -1
                      -1  0  0  -1  1  0  -1  0  1       0 -1  1   1 -1  0   0 -1  0
                       1  0  0   0  0  1   0  1  0       0  1 -1   0  0 -1   1  0 -1
                      -1  0  1  -1  1  0  -1  0  0       0 -1  0   1 -1  0   0 -1  1
                       1  0 -1   0  0 -1   0  1 -1       0  1  0   0  0  1   1  0  0
                       1  0 -1   0  1 -1   0  0 -1       0 -1  0   0 -1  1   1 -1  0
                      -1  0  1  -1  0  0  -1  1  0       0  1  0   1  0  0   0  0  1
                       0  0 -1   0  1 -1   1  0 -1       1 -1  0   0 -1  1   0 -1  0
                       0  0  1   1  0  0   0  1  0      -1  1  0  -1  0  0  -1  0  1
                       0  0  1   0  1  0   1  0  0       1 -1  0   0 -1  0   0 -1  1
                       0  0 -1   1  0 -1   0  1 -1      -1  1  0  -1  0  1  -1  0  0
           tolvrs1     1.00000000E-10
           tolvrs2     0.00000000E+00
           tolwfr1     0.00000000E+00
           tolwfr2     1.00000000E-10
            typat      1  1
           useylm           1
              wtk1       0.12500    0.50000    0.37500
              wtk2       0.12500    0.12500    0.12500    0.12500    0.12500    0.12500
                         0.12500    0.12500
        w90prtunk1          0
        w90prtunk2          1
           xangst      0.0000000000E+00  0.0000000000E+00  0.0000000000E+00
                       1.3577364229E+00  1.3577364229E+00  1.3577364229E+00
            xcart      0.0000000000E+00  0.0000000000E+00  0.0000000000E+00
                       2.5657500000E+00  2.5657500000E+00  2.5657500000E+00
             xred      0.0000000000E+00  0.0000000000E+00  0.0000000000E+00
                       2.5000000000E-01  2.5000000000E-01  2.5000000000E-01
            znucl       14.00000

================================================================================

 chkinp: Checking input parameters for consistency, jdtset=   1.

 chkinp: Checking input parameters for consistency, jdtset=   2.

================================================================================
== DATASET  1 ==================================================================
-   nproc =    1

 Exchange-correlation functional for the present dataset will be:
  LDA: Perdew-Wang 92 LSD fit to Ceperley-Alder data - ixc=7
 Citation for XC functional:
  J.P.Perdew and Y.Wang, PRB 45, 13244 (1992)

 Real(R)+Recip(G) space primitive vectors, cartesian coordinates (Bohr,Bohr^-1):
 R(1)=  0.0000000  5.1315000  5.1315000  G(1)= -0.0974374  0.0974374  0.0974374
 R(2)=  5.1315000  0.0000000  5.1315000  G(2)=  0.0974374 -0.0974374  0.0974374
 R(3)=  5.1315000  5.1315000  0.0000000  G(3)=  0.0974374  0.0974374 -0.0974374
 Unit cell volume ucvol=  2.7024832E+02 bohr^3
 Angles (23,13,12)=  6.00000000E+01  6.00000000E+01  6.00000000E+01 degrees

 Coarse grid specifications (used for wave-functions):

 getcut: wavevector=  0.0000  0.0000  0.0000  ngfft=  15  15  15
         ecut(hartree)=      4.000   => boxcut(ratio)=   2.15366

 Fine grid specifications (used for densities):

 getcut: wavevector=  0.0000  0.0000  0.0000  ngfft=  30  30  30
         ecut(hartree)=     16.000   => boxcut(ratio)=   2.29836

 getcut : COMMENT -
  Note that boxcut > 2.2 ; recall that boxcut=Gcut(box)/Gcut(sphere) = 2
  is sufficient for exact treatment of convolution.
  Such a large boxcut is a waste : you could raise ecut
  e.g. ecut=   21.129909 Hartrees makes boxcut=2


--- Pseudopotential description ------------------------------------------------
- pspini: atom type   1  psp file is /home/gonze/ABINIT/ABINITv7.10.4/trunk/7.10.4-private/tests/Psps_for_tests/Si-LDA.paw
- pspatm: opening atomic psp file    /home/gonze/ABINIT/ABINITv7.10.4/trunk/7.10.4-private/tests/Psps_for_tests/Si-LDA.paw
- Paw atomic data for element Si - Generated by AtomPAW (N. Holzwarth) + AtomPAW2Abinit v3.1.1
- 14.00000   4.00000  20070412                znucl, zion, pspdat
    7    7    2    0      1398   0.00000      pspcod,pspxc,lmax,lloc,mmax,r2well
 Pseudopotential format is: paw3
 basis_size (lnmax)=  5 (lmn_size= 13), orbitals=   0   0   1   1   2
 Spheres core radius: rc_sph= 2.00437498
 4 radial meshes are used:
  - mesh 1: r(i)=AA*[exp(BB*(i-1))-1], size=1398 , AA= 0.43309E-03 BB= 0.60633E-02
  - mesh 2: r(i)=AA*[exp(BB*(i-1))-1], size=1393 , AA= 0.43309E-03 BB= 0.60633E-02
  - mesh 3: r(i)=AA*[exp(BB*(i-1))-1], size=1508 , AA= 0.43309E-03 BB= 0.60633E-02
  - mesh 4: r(i)=AA*[exp(BB*(i-1))-1], size=1658 , AA= 0.43309E-03 BB= 0.60633E-02
 Shapefunction is SIN type: shapef(r)=[sin(pi*r/rshp)/(pi*r/rshp)]**2
 Radius for shape functions = sphere core radius
 Radial grid used for partial waves is grid 1
 Radial grid used for projectors is grid  2
 Radial grid used for (t)core density is grid 3
 Radial grid used for Vloc is grid 4
 Compensation charge density is taken into account in XC energy/potential
 pspatm: atomic psp has been read  and splines computed

   5.68697669E+01                                ecore*ucvol(ha*bohr**3)
--------------------------------------------------------------------------------

P newkpt: treating      5 bands with npw=     113 for ikpt=   1 by node    0
P newkpt: treating      5 bands with npw=     108 for ikpt=   2 by node    0
P newkpt: treating      5 bands with npw=     108 for ikpt=   3 by node    0

_setup2: Arith. and geom. avg. npw (full set) are     108.625     108.613

================================================================================

     iter   Etot(hartree)      deltaE(h)  residm     vres2    diffor    maxfor
 ETOT  1  -7.9142663971293    -7.914E+00 5.185E-03 3.250E+01 0.000E+00 0.000E+00
 ETOT  2  -7.9242466069964    -9.980E-03 5.625E-06 6.467E+00 0.000E+00 0.000E+00
 ETOT  3  -7.9255171877762    -1.271E-03 4.711E-05 6.989E-02 0.000E+00 0.000E+00
 ETOT  4  -7.9255468038644    -2.962E-05 3.591E-07 1.075E-02 0.000E+00 0.000E+00
 ETOT  5  -7.9255475714327    -7.676E-07 2.457E-08 2.455E-03 4.343E-30 4.343E-30
 ETOT  6  -7.9255477439351    -1.725E-07 4.938E-09 5.743E-05 4.343E-30 0.000E+00
 ETOT  7  -7.9255477585868    -1.465E-08 3.397E-10 2.822E-06 0.000E+00 0.000E+00
 ETOT  8  -7.9255477597993    -1.212E-09 2.358E-11 2.877E-07 0.000E+00 0.000E+00
 ETOT  9  -7.9255477598432    -4.392E-11 9.006E-13 8.775E-08 5.806E-30 5.806E-30
 ETOT 10  -7.9255477598484    -5.269E-12 3.119E-13 8.519E-09 4.166E-30 1.640E-30
 ETOT 11  -7.9255477598498    -1.377E-12 9.899E-13 7.823E-10 1.845E-30 6.149E-31
 ETOT 12  -7.9255477598499    -5.063E-14 2.238E-13 2.330E-11 6.149E-31 0.000E+00

 At SCF step   12       vres2   =  2.33E-11 < tolvrs=  1.00E-10 =>converged.

 Cartesian components of stress tensor (hartree/bohr^3)
  sigma(1 1)= -1.70001895E-04  sigma(3 2)=  0.00000000E+00
  sigma(2 2)= -1.70001895E-04  sigma(3 1)=  0.00000000E+00
  sigma(3 3)= -1.70001895E-04  sigma(2 1)=  0.00000000E+00


 PAW TEST:
 ==== Compensation charge inside spheres ============
 The following values must be close to each other ...
 Compensation charge over spherical meshes =     -0.220957746960614
 Compensation charge over fine fft grid    =     -0.220956601451868

 ==== Results concerning PAW augmentation regions ====

 Total pseudopotential strength Dij (hartree):
 Atom #  1
   0.46627  -1.45572   0.00000   0.00000   0.00000   0.00000   0.00000   0.00000   0.00000   0.00000   0.00000   0.00000 ...
  -1.45572   3.53002   0.00000   0.00000   0.00000   0.00000   0.00000   0.00000   0.00000   0.00000   0.00000   0.00000 ...
   0.00000   0.00000   0.11641   0.00000   0.00000  -0.36665   0.00000   0.00000   0.00000   0.00000   0.00000   0.00041 ...
   0.00000   0.00000   0.00000   0.11641   0.00000   0.00000  -0.36665   0.00000   0.00041   0.00000   0.00000   0.00000 ...
   0.00000   0.00000   0.00000   0.00000   0.11641   0.00000   0.00000  -0.36665   0.00000   0.00041   0.00000   0.00000 ...
   0.00000   0.00000  -0.36665   0.00000   0.00000   1.19656   0.00000   0.00000   0.00000   0.00000   0.00000  -0.00116 ...
   0.00000   0.00000   0.00000  -0.36665   0.00000   0.00000   1.19656   0.00000  -0.00116   0.00000   0.00000   0.00000 ...
   0.00000   0.00000   0.00000   0.00000  -0.36665   0.00000   0.00000   1.19656   0.00000  -0.00116   0.00000   0.00000 ...
   0.00000   0.00000   0.00000   0.00041   0.00000   0.00000  -0.00116   0.00000  -0.01133   0.00000   0.00000   0.00000 ...
   0.00000   0.00000   0.00000   0.00000   0.00041   0.00000   0.00000  -0.00116   0.00000  -0.01133   0.00000   0.00000 ...
   0.00000   0.00000   0.00000   0.00000   0.00000   0.00000   0.00000   0.00000   0.00000   0.00000  -0.01136   0.00000 ...
   0.00000   0.00000   0.00041   0.00000   0.00000  -0.00116   0.00000   0.00000   0.00000   0.00000   0.00000  -0.01133 ...
   ...  only 12  components have been written...
 Atom #  2
   0.46627  -1.45572   0.00000   0.00000   0.00000   0.00000   0.00000   0.00000   0.00000   0.00000   0.00000   0.00000 ...
  -1.45572   3.53001   0.00000   0.00000   0.00000   0.00000   0.00000   0.00000   0.00000   0.00000   0.00000   0.00000 ...
   0.00000   0.00000   0.11641   0.00000   0.00000  -0.36665   0.00000   0.00000   0.00000   0.00000   0.00000  -0.00041 ...
   0.00000   0.00000   0.00000   0.11641   0.00000   0.00000  -0.36665   0.00000  -0.00041   0.00000   0.00000   0.00000 ...
   0.00000   0.00000   0.00000   0.00000   0.11641   0.00000   0.00000  -0.36665   0.00000  -0.00041   0.00000   0.00000 ...
   0.00000   0.00000  -0.36665   0.00000   0.00000   1.19656   0.00000   0.00000   0.00000   0.00000   0.00000   0.00116 ...
   0.00000   0.00000   0.00000  -0.36665   0.00000   0.00000   1.19656   0.00000   0.00116   0.00000   0.00000   0.00000 ...
   0.00000   0.00000   0.00000   0.00000  -0.36665   0.00000   0.00000   1.19656   0.00000   0.00116   0.00000   0.00000 ...
   0.00000   0.00000   0.00000  -0.00041   0.00000   0.00000   0.00116   0.00000  -0.01133   0.00000   0.00000   0.00000 ...
   0.00000   0.00000   0.00000   0.00000  -0.00041   0.00000   0.00000   0.00116   0.00000  -0.01133   0.00000   0.00000 ...
   0.00000   0.00000   0.00000   0.00000   0.00000   0.00000   0.00000   0.00000   0.00000   0.00000  -0.01136   0.00000 ...
   0.00000   0.00000  -0.00041   0.00000   0.00000   0.00116   0.00000   0.00000   0.00000   0.00000   0.00000  -0.01133 ...
   ...  only 12  components have been written...


 Augmentation waves occupancies Rhoij:
 Atom #  1
   1.20764  -0.02873   0.00000   0.00000   0.00000   0.00000   0.00000   0.00000   0.00000   0.00000   0.00000   0.00000 ...
  -0.02873   0.00071   0.00000   0.00000   0.00000   0.00000   0.00000   0.00000   0.00000   0.00000   0.00000   0.00000 ...
   0.00000   0.00000   1.24122   0.00000   0.00000   0.01014   0.00000   0.00000   0.00000   0.00000   0.00000   0.19364 ...
   0.00000   0.00000   0.00000   1.24122   0.00000   0.00000   0.01014   0.00000   0.19364   0.00000   0.00000   0.00000 ...
   0.00000   0.00000   0.00000   0.00000   1.24122   0.00000   0.00000   0.01014   0.00000   0.19364   0.00000   0.00000 ...
   0.00000   0.00000   0.01014   0.00000   0.00000   0.00015   0.00000   0.00000   0.00000   0.00000   0.00000   0.00135 ...
   0.00000   0.00000   0.00000   0.01014   0.00000   0.00000   0.00015   0.00000   0.00135   0.00000   0.00000   0.00000 ...
   0.00000   0.00000   0.00000   0.00000   0.01014   0.00000   0.00000   0.00015   0.00000   0.00135   0.00000   0.00000 ...
   0.00000   0.00000   0.00000   0.19364   0.00000   0.00000   0.00135   0.00000   0.03640   0.00000   0.00000   0.00000 ...
   0.00000   0.00000   0.00000   0.00000   0.19364   0.00000   0.00000   0.00135   0.00000   0.03640   0.00000   0.00000 ...
   0.00000   0.00000   0.00000   0.00000   0.00000   0.00000   0.00000   0.00000   0.00000   0.00000   0.00531   0.00000 ...
   0.00000   0.00000   0.19364   0.00000   0.00000   0.00135   0.00000   0.00000   0.00000   0.00000   0.00000   0.03640 ...
   ...  only 12  components have been written...
 Atom #  2
   1.20764  -0.02873   0.00000   0.00000   0.00000   0.00000   0.00000   0.00000   0.00000   0.00000   0.00000   0.00000 ...
  -0.02873   0.00072   0.00000   0.00000   0.00000   0.00000   0.00000   0.00000   0.00000   0.00000   0.00000   0.00000 ...
   0.00000   0.00000   1.24122   0.00000   0.00000   0.01014   0.00000   0.00000   0.00000   0.00000   0.00000  -0.19364 ...
   0.00000   0.00000   0.00000   1.24122   0.00000   0.00000   0.01014   0.00000  -0.19364   0.00000   0.00000   0.00000 ...
   0.00000   0.00000   0.00000   0.00000   1.24122   0.00000   0.00000   0.01014   0.00000  -0.19364   0.00000   0.00000 ...
   0.00000   0.00000   0.01014   0.00000   0.00000   0.00015   0.00000   0.00000   0.00000   0.00000   0.00000  -0.00135 ...
   0.00000   0.00000   0.00000   0.01014   0.00000   0.00000   0.00015   0.00000  -0.00135   0.00000   0.00000   0.00000 ...
   0.00000   0.00000   0.00000   0.00000   0.01014   0.00000   0.00000   0.00015   0.00000  -0.00135   0.00000   0.00000 ...
   0.00000   0.00000   0.00000  -0.19364   0.00000   0.00000  -0.00135   0.00000   0.03640   0.00000   0.00000   0.00000 ...
   0.00000   0.00000   0.00000   0.00000  -0.19364   0.00000   0.00000  -0.00135   0.00000   0.03640   0.00000   0.00000 ...
   0.00000   0.00000   0.00000   0.00000   0.00000   0.00000   0.00000   0.00000   0.00000   0.00000   0.00531   0.00000 ...
   0.00000   0.00000  -0.19364   0.00000   0.00000  -0.00135   0.00000   0.00000   0.00000   0.00000   0.00000   0.03640 ...
   ...  only 12  components have been written...


================================================================================

 ----iterations are completed or convergence reached----

 Mean square residual over all n,k,spin=   1.5776E-14; max=  2.2383E-13
   0.0000  0.0000  0.0000    1  5.38764E-17 kpt; spin; max resid(k); each band:
  3.10E-17 4.91E-18 6.63E-18 5.24E-18 5.39E-17
   0.5000  0.0000  0.0000    1  5.19968E-15 kpt; spin; max resid(k); each band:
  9.15E-18 5.20E-15 1.14E-16 1.14E-16 4.24E-15
   0.5000  0.5000  0.0000    1  2.23832E-13 kpt; spin; max resid(k); each band:
  9.47E-16 1.93E-15 7.51E-17 7.51E-17 2.24E-13
 reduced coordinates (array xred) for    2 atoms
       0.000000000000      0.000000000000      0.000000000000
       0.250000000000      0.250000000000      0.250000000000
 rms dE/dt=  0.0000E+00; max dE/dt=  0.0000E+00; dE/dt below (all hartree)
    1       0.000000000000      0.000000000000      0.000000000000
    2       0.000000000000      0.000000000000      0.000000000000

 cartesian coordinates (angstrom) at end:
    1      0.00000000000000     0.00000000000000     0.00000000000000
    2      1.35773642293979     1.35773642293979     1.35773642293979

 cartesian forces (hartree/bohr) at end:
    1     -0.00000000000000    -0.00000000000000    -0.00000000000000
    2     -0.00000000000000    -0.00000000000000    -0.00000000000000
 frms,max,avg= 0.0000000E+00 0.0000000E+00   0.000E+00  0.000E+00  0.000E+00 h/b

 cartesian forces (eV/Angstrom) at end:
    1     -0.00000000000000    -0.00000000000000    -0.00000000000000
    2     -0.00000000000000    -0.00000000000000    -0.00000000000000
 frms,max,avg= 0.0000000E+00 0.0000000E+00   0.000E+00  0.000E+00  0.000E+00 e/A
 length scales= 10.263000000000 10.263000000000 10.263000000000 bohr
              =  5.430945691759  5.430945691759  5.430945691759 angstroms
 prteigrs : about to open file tw90_2o_DS1_EIG
 Fermi (or HOMO) energy (hartree) =   0.20902   Average Vxc (hartree)=  -0.33465
 Eigenvalues (hartree) for nkpt=   3  k points:
 kpt#   1, nband=  5, wtk=  0.12500, kpt=  0.0000  0.0000  0.0000 (reduced coord)
  -0.23329   0.20902   0.20902   0.20902   0.29590
 kpt#   2, nband=  5, wtk=  0.50000, kpt=  0.5000  0.0000  0.0000 (reduced coord)
  -0.14578  -0.05277   0.16241   0.16241   0.26164
 kpt#   3, nband=  5, wtk=  0.37500, kpt=  0.5000  0.5000  0.0000 (reduced coord)
  -0.07956  -0.07956   0.09910   0.09910   0.22568
 Total charge density [el/Bohr^3]
,     Maximum=    9.4536E-02  at reduced coord.    0.1333    0.1333    0.6000
,Next maximum=    9.4536E-02  at reduced coord.    0.1333    0.6000    0.1333
,     Minimum=    1.9148E-03  at reduced coord.    0.5000    0.5000    0.5000
,Next minimum=    1.9622E-03  at reduced coord.    0.7667    0.7333    0.7333
,  Integrated=    8.0000E+00

--------------------------------------------------------------------------------
 Components of total free energy (in Hartree) :

    Kinetic energy  =  3.19655944396230E+00
    Hartree energy  =  6.18747814197579E-01
    XC energy       = -2.50497853209895E+00
    Ewald energy    = -8.39800922793231E+00
    PspCore energy  =  2.10435232019728E-01
    Loc. psp. energy= -2.63798682838483E+00
    Spherical terms =  1.58968433838661E+00
    >>>>>>>>> Etotal= -7.92554775984987E+00

 "Double-counting" decomposition of free energy:
    Band energy     =  2.54019292519417E-01
    Ewald energy    = -8.39800922793231E+00
    PspCore energy  =  2.10435232019728E-01
    Dble-C XC-energy=  5.71673976441880E-02
    Spherical terms = -4.91605792856635E-02
    >>>> Etotal (DC)= -7.92554788503464E+00

  >Total energy in eV           = -2.15665122394038E+02
  >Total DC energy in eV        = -2.15665125800489E+02
--------------------------------------------------------------------------------

 Cartesian components of stress tensor (hartree/bohr^3)
  sigma(1 1)= -1.70001895E-04  sigma(3 2)=  0.00000000E+00
  sigma(2 2)= -1.70001895E-04  sigma(3 1)=  0.00000000E+00
  sigma(3 3)= -1.70001895E-04  sigma(2 1)=  0.00000000E+00

-Cartesian components of stress tensor (GPa)         [Pressure=  5.0016E+00 GPa]
- sigma(1 1)= -5.00162758E+00  sigma(3 2)=  0.00000000E+00
- sigma(2 2)= -5.00162758E+00  sigma(3 1)=  0.00000000E+00
- sigma(3 3)= -5.00162758E+00  sigma(2 1)=  0.00000000E+00

================================================================================
== DATASET  2 ==================================================================
-   nproc =    1

 mkfilename : getwfk/=0, take file _WFK from output of DATASET   1.

 mkfilename : getden/=0, take file _DEN from output of DATASET   1.

 Exchange-correlation functional for the present dataset will be:
  LDA: Perdew-Wang 92 LSD fit to Ceperley-Alder data - ixc=7
 Citation for XC functional:
  J.P.Perdew and Y.Wang, PRB 45, 13244 (1992)

 Real(R)+Recip(G) space primitive vectors, cartesian coordinates (Bohr,Bohr^-1):
 R(1)=  0.0000000  5.1315000  5.1315000  G(1)= -0.0974374  0.0974374  0.0974374
 R(2)=  5.1315000  0.0000000  5.1315000  G(2)=  0.0974374 -0.0974374  0.0974374
 R(3)=  5.1315000  5.1315000  0.0000000  G(3)=  0.0974374  0.0974374 -0.0974374
 Unit cell volume ucvol=  2.7024832E+02 bohr^3
 Angles (23,13,12)=  6.00000000E+01  6.00000000E+01  6.00000000E+01 degrees

 Coarse grid specifications (used for wave-functions):

 getcut: wavevector=  0.0000  0.0000  0.0000  ngfft=  15  15  15
         ecut(hartree)=      4.000   => boxcut(ratio)=   2.15366

 Fine grid specifications (used for densities):

 getcut: wavevector=  0.0000  0.0000  0.0000  ngfft=  30  30  30
         ecut(hartree)=     16.000   => boxcut(ratio)=   2.29836

 getcut : COMMENT -
  Note that boxcut > 2.2 ; recall that boxcut=Gcut(box)/Gcut(sphere) = 2
  is sufficient for exact treatment of convolution.
  Such a large boxcut is a waste : you could raise ecut
  e.g. ecut=   21.129909 Hartrees makes boxcut=2

--------------------------------------------------------------------------------

-inwffil : will read wavefunctions from disk file tw90_2o_DS1_WFK
- newkpt: read input wf with ikpt,npw=   1     113, make ikpt,npw=   1     113
- newkpt: read input wf with ikpt,npw=   2     108, make ikpt,npw=   2     108
- newkpt: read input wf with ikpt,npw=   2     108, make ikpt,npw=   3     108
- newkpt: read input wf with ikpt,npw=   3     108, make ikpt,npw=   4     108
- newkpt: read input wf with ikpt,npw=   2     108, make ikpt,npw=   5     108
- newkpt: read input wf with ikpt,npw=   3     108, make ikpt,npw=   6     108
- newkpt: read input wf with ikpt,npw=   3     108, make ikpt,npw=   7     108
- newkpt: read input wf with ikpt,npw=   2     108, make ikpt,npw=   8     108


================================================================================

---------------------------------------------------------------

  Calculation of overlap and call to wannier90 library 
  to obtain maximally localized wannier functions 

  - tw90_2o_DS2_w90.win is a mandatory secondary input
  - tw90_2o_DS2_w90.wout is the output for the library
  - tw90_2o_DS2_w90random.amn contains random projections
  - tw90_2o_DS2_w90.amn contains projections
  - tw90_2o_DS2_w90.mmn contains the overlap
  - tw90_2o_DS2_w90.eig contains the eigenvalues

---------------------------------------------------------------

   mlwfovlp:  you should give k-point in the full brillouin zone 
   with explicit k-points (or kptopt=3) and istwfk 1

   mlwfovlp :  mlwfovlp_setup done -
-  see tw90_2o_DS2_w90.wout for details.

   Writing top of the overlap matrix: M_mn(ikb,ik)
   m=n=1:3, ikb=1, ik=1

;   (   0.710288  -0.294212 ,   0.575505  -0.238383 ,  -0.000000  -0.000000 ,    )
;   (  -0.033237  -0.080241 ,   0.047079   0.113657 ,   0.717712  -0.297288 ,    )
;   (  -0.043509  -0.105046 ,   0.061629   0.148793 ,   0.036714  -0.015200 ,    )

   Writing bottom of the overlap matrix: M_mn(ikb,ik)
   m=n=num_bands-2:num_bands, ikb=nntot, ik=nkpt

;   (   0.267481   0.347166 ,   0.510657  -0.211522 ,  -0.000013   0.000004 ,    )
;   (  -0.006465  -0.001998 ,  -0.000868  -0.002151 ,   0.749221  -0.310337 ,    )
;   (  -0.459310  -0.141412 ,  -0.062992  -0.152075 ,  -0.010544   0.004384 ,    )

   Writing top of the initial projections matrix: A_mn(ik)
   m=1:3, n=1:3, ik=1

;   (   0.155744   0.093686 ,   0.216971   0.250192 ,   0.252459   0.234924 ,    )
;   (   0.158021   0.168146 ,   0.251976   0.200257 ,   0.227885   0.020724 ,    )
;   (   0.133966   0.051926 ,   0.105189   0.255798 ,   0.232946   0.042728 ,    )

   Writing bottom of the initial projections matrix: A_mn(ik)
   m=num_bands-2:num_bands, n=nwan-2:nwan, ik=nkpt

;   (   0.029706   0.127784 ,   0.200276   0.208055 ,   0.129656   0.280727 ,    )
;   (   0.205530   0.158666 ,   0.212015   0.402459 ,   0.246136   0.039495 ,    )
;   (   0.133552   0.150936 ,   0.151632   0.183667 ,   0.164708   0.190351 ,    )

   mlwfovlp :  mlwfovlp_run completed -
-  see tw90_2o_DS2_w90.wout for details.


 PAW TEST:
 ==== Compensation charge inside spheres ============
 The following values must be close to each other ...
 Compensation charge over spherical meshes =     -0.220957746960614
 Compensation charge over fine fft grid    =     -0.220956601451868

 ==== Results concerning PAW augmentation regions ====

 Total pseudopotential strength Dij (hartree):
 Atom #  1
   0.46627  -1.45572   0.00000   0.00000   0.00000   0.00000   0.00000   0.00000   0.00000   0.00000   0.00000   0.00000 ...
  -1.45572   3.53002   0.00000   0.00000   0.00000   0.00000   0.00000   0.00000   0.00000   0.00000   0.00000   0.00000 ...
   0.00000   0.00000   0.11641   0.00000   0.00000  -0.36665   0.00000   0.00000   0.00000   0.00000   0.00000   0.00041 ...
   0.00000   0.00000   0.00000   0.11641   0.00000   0.00000  -0.36665   0.00000   0.00041   0.00000   0.00000   0.00000 ...
   0.00000   0.00000   0.00000   0.00000   0.11641   0.00000   0.00000  -0.36665   0.00000   0.00041   0.00000   0.00000 ...
   0.00000   0.00000  -0.36665   0.00000   0.00000   1.19656   0.00000   0.00000   0.00000   0.00000   0.00000  -0.00116 ...
   0.00000   0.00000   0.00000  -0.36665   0.00000   0.00000   1.19656   0.00000  -0.00116   0.00000   0.00000   0.00000 ...
   0.00000   0.00000   0.00000   0.00000  -0.36665   0.00000   0.00000   1.19656   0.00000  -0.00116   0.00000   0.00000 ...
   0.00000   0.00000   0.00000   0.00041   0.00000   0.00000  -0.00116   0.00000  -0.01133   0.00000   0.00000   0.00000 ...
   0.00000   0.00000   0.00000   0.00000   0.00041   0.00000   0.00000  -0.00116   0.00000  -0.01133   0.00000   0.00000 ...
   0.00000   0.00000   0.00000   0.00000   0.00000   0.00000   0.00000   0.00000   0.00000   0.00000  -0.01136   0.00000 ...
   0.00000   0.00000   0.00041   0.00000   0.00000  -0.00116   0.00000   0.00000   0.00000   0.00000   0.00000  -0.01133 ...
   ...  only 12  components have been written...
 Atom #  2
   0.46627  -1.45572   0.00000   0.00000   0.00000   0.00000   0.00000   0.00000   0.00000   0.00000   0.00000   0.00000 ...
  -1.45572   3.53001   0.00000   0.00000   0.00000   0.00000   0.00000   0.00000   0.00000   0.00000   0.00000   0.00000 ...
   0.00000   0.00000   0.11641   0.00000   0.00000  -0.36665   0.00000   0.00000   0.00000   0.00000   0.00000  -0.00041 ...
   0.00000   0.00000   0.00000   0.11641   0.00000   0.00000  -0.36665   0.00000  -0.00041   0.00000   0.00000   0.00000 ...
   0.00000   0.00000   0.00000   0.00000   0.11641   0.00000   0.00000  -0.36665   0.00000  -0.00041   0.00000   0.00000 ...
   0.00000   0.00000  -0.36665   0.00000   0.00000   1.19656   0.00000   0.00000   0.00000   0.00000   0.00000   0.00116 ...
   0.00000   0.00000   0.00000  -0.36665   0.00000   0.00000   1.19656   0.00000   0.00116   0.00000   0.00000   0.00000 ...
   0.00000   0.00000   0.00000   0.00000  -0.36665   0.00000   0.00000   1.19656   0.00000   0.00116   0.00000   0.00000 ...
   0.00000   0.00000   0.00000  -0.00041   0.00000   0.00000   0.00116   0.00000  -0.01133   0.00000   0.00000   0.00000 ...
   0.00000   0.00000   0.00000   0.00000  -0.00041   0.00000   0.00000   0.00116   0.00000  -0.01133   0.00000   0.00000 ...
   0.00000   0.00000   0.00000   0.00000   0.00000   0.00000   0.00000   0.00000   0.00000   0.00000  -0.01136   0.00000 ...
   0.00000   0.00000  -0.00041   0.00000   0.00000   0.00116   0.00000   0.00000   0.00000   0.00000   0.00000  -0.01133 ...
   ...  only 12  components have been written...


 Augmentation waves occupancies Rhoij:
 Atom #  1
   1.20764  -0.02873   0.00000   0.00000   0.00000   0.00000   0.00000   0.00000   0.00000   0.00000   0.00000   0.00000 ...
  -0.02873   0.00071   0.00000   0.00000   0.00000   0.00000   0.00000   0.00000   0.00000   0.00000   0.00000   0.00000 ...
   0.00000   0.00000   1.24122   0.00000   0.00000   0.01014   0.00000   0.00000   0.00000   0.00000   0.00000   0.19364 ...
   0.00000   0.00000   0.00000   1.24122   0.00000   0.00000   0.01014   0.00000   0.19364   0.00000   0.00000   0.00000 ...
   0.00000   0.00000   0.00000   0.00000   1.24122   0.00000   0.00000   0.01014   0.00000   0.19364   0.00000   0.00000 ...
   0.00000   0.00000   0.01014   0.00000   0.00000   0.00015   0.00000   0.00000   0.00000   0.00000   0.00000   0.00135 ...
   0.00000   0.00000   0.00000   0.01014   0.00000   0.00000   0.00015   0.00000   0.00135   0.00000   0.00000   0.00000 ...
   0.00000   0.00000   0.00000   0.00000   0.01014   0.00000   0.00000   0.00015   0.00000   0.00135   0.00000   0.00000 ...
   0.00000   0.00000   0.00000   0.19364   0.00000   0.00000   0.00135   0.00000   0.03640   0.00000   0.00000   0.00000 ...
   0.00000   0.00000   0.00000   0.00000   0.19364   0.00000   0.00000   0.00135   0.00000   0.03640   0.00000   0.00000 ...
   0.00000   0.00000   0.00000   0.00000   0.00000   0.00000   0.00000   0.00000   0.00000   0.00000   0.00531   0.00000 ...
   0.00000   0.00000   0.19364   0.00000   0.00000   0.00135   0.00000   0.00000   0.00000   0.00000   0.00000   0.03640 ...
   ...  only 12  components have been written...
 Atom #  2
   1.20764  -0.02873   0.00000   0.00000   0.00000   0.00000   0.00000   0.00000   0.00000   0.00000   0.00000   0.00000 ...
  -0.02873   0.00072   0.00000   0.00000   0.00000   0.00000   0.00000   0.00000   0.00000   0.00000   0.00000   0.00000 ...
   0.00000   0.00000   1.24122   0.00000   0.00000   0.01014   0.00000   0.00000   0.00000   0.00000   0.00000  -0.19364 ...
   0.00000   0.00000   0.00000   1.24122   0.00000   0.00000   0.01014   0.00000  -0.19364   0.00000   0.00000   0.00000 ...
   0.00000   0.00000   0.00000   0.00000   1.24122   0.00000   0.00000   0.01014   0.00000  -0.19364   0.00000   0.00000 ...
   0.00000   0.00000   0.01014   0.00000   0.00000   0.00015   0.00000   0.00000   0.00000   0.00000   0.00000  -0.00135 ...
   0.00000   0.00000   0.00000   0.01014   0.00000   0.00000   0.00015   0.00000  -0.00135   0.00000   0.00000   0.00000 ...
   0.00000   0.00000   0.00000   0.00000   0.01014   0.00000   0.00000   0.00015   0.00000  -0.00135   0.00000   0.00000 ...
   0.00000   0.00000   0.00000  -0.19364   0.00000   0.00000  -0.00135   0.00000   0.03640   0.00000   0.00000   0.00000 ...
   0.00000   0.00000   0.00000   0.00000  -0.19364   0.00000   0.00000  -0.00135   0.00000   0.03640   0.00000   0.00000 ...
   0.00000   0.00000   0.00000   0.00000   0.00000   0.00000   0.00000   0.00000   0.00000   0.00000   0.00531   0.00000 ...
   0.00000   0.00000  -0.19364   0.00000   0.00000  -0.00135   0.00000   0.00000   0.00000   0.00000   0.00000   0.03640 ...
   ...  only 12  components have been written...


================================================================================

 ----iterations are completed or convergence reached----

 Mean square residual over all n,k,spin=   1.2534E-15; max=  2.1547E-15
   0.0000  0.0000  0.0000    1  1.09777E-15 kpt; spin; max resid(k); each band:
  9.91E-16 1.08E-15 1.10E-15 1.08E-15
   0.5000  0.0000  0.0000    1  2.15471E-15 kpt; spin; max resid(k); each band:
  1.03E-15 2.15E-15 1.02E-15 1.02E-15
   0.0000  0.5000  0.0000    1  2.15467E-15 kpt; spin; max resid(k); each band:
  1.03E-15 2.15E-15 1.02E-15 1.02E-15
   0.5000  0.5000  0.0000    1  1.83851E-15 kpt; spin; max resid(k); each band:
  1.43E-15 1.84E-15 8.54E-16 8.54E-16
   0.0000  0.0000  0.5000    1  2.15463E-15 kpt; spin; max resid(k); each band:
  1.03E-15 2.15E-15 1.02E-15 1.02E-15
   0.5000  0.0000  0.5000    1  1.83851E-15 kpt; spin; max resid(k); each band:
  1.43E-15 1.84E-15 8.54E-16 8.54E-16
   0.0000  0.5000  0.5000    1  1.83850E-15 kpt; spin; max resid(k); each band:
  1.43E-15 1.84E-15 8.54E-16 8.54E-16
   0.5000  0.5000  0.5000    1  2.15467E-15 kpt; spin; max resid(k); each band:
  1.03E-15 2.15E-15 1.02E-15 1.02E-15
 reduced coordinates (array xred) for    2 atoms
       0.000000000000      0.000000000000      0.000000000000
       0.250000000000      0.250000000000      0.250000000000

 cartesian coordinates (angstrom) at end:
    1      0.00000000000000     0.00000000000000     0.00000000000000
    2      1.35773642293979     1.35773642293979     1.35773642293979
 length scales= 10.263000000000 10.263000000000 10.263000000000 bohr
              =  5.430945691759  5.430945691759  5.430945691759 angstroms
 prteigrs : about to open file tw90_2o_DS2_EIG
 Eigenvalues (hartree) for nkpt=   8  k points:
 kpt#   1, nband=  4, wtk=  0.12500, kpt=  0.0000  0.0000  0.0000 (reduced coord)
  -0.23329   0.20902   0.20902   0.20902
 kpt#   2, nband=  4, wtk=  0.12500, kpt=  0.5000  0.0000  0.0000 (reduced coord)
  -0.14578  -0.05277   0.16241   0.16241
 kpt#   3, nband=  4, wtk=  0.12500, kpt=  0.0000  0.5000  0.0000 (reduced coord)
  -0.14578  -0.05277   0.16241   0.16241
 kpt#   4, nband=  4, wtk=  0.12500, kpt=  0.5000  0.5000  0.0000 (reduced coord)
  -0.07956  -0.07956   0.09910   0.09910
 kpt#   5, nband=  4, wtk=  0.12500, kpt=  0.0000  0.0000  0.5000 (reduced coord)
  -0.14578  -0.05277   0.16241   0.16241
 kpt#   6, nband=  4, wtk=  0.12500, kpt=  0.5000  0.0000  0.5000 (reduced coord)
  -0.07956  -0.07956   0.09910   0.09910
 kpt#   7, nband=  4, wtk=  0.12500, kpt=  0.0000  0.5000  0.5000 (reduced coord)
  -0.07956  -0.07956   0.09910   0.09910
 kpt#   8, nband=  4, wtk=  0.12500, kpt=  0.5000  0.5000  0.5000 (reduced coord)
  -0.14578  -0.05277   0.16241   0.16241
 Total charge density [el/Bohr^3]
,     Maximum=    9.4536E-02  at reduced coord.    0.1333    0.6000    0.1333
,Next maximum=    9.4536E-02  at reduced coord.    0.1333    0.1333    0.1333
,     Minimum=    1.9148E-03  at reduced coord.    0.5000    0.5000    0.5000
,Next minimum=    1.9622E-03  at reduced coord.    0.7667    0.7333    0.7333
,  Integrated=    8.0000E+00

== END DATASET(S) ==============================================================
================================================================================
  
 -outvars: echo values of variables after computation  --------
            acell      1.0263000000E+01  1.0263000000E+01  1.0263000000E+01 Bohr
              amu      2.80855000E+01
           diemac1     1.20000000E+01
           diemac2     1.00000000E+06
             ecut      4.00000000E+00 Hartree
           etotal1    -7.9255477598E+00
            fcart1    -0.0000000000E+00 -0.0000000000E+00 -0.0000000000E+00
                      -0.0000000000E+00 -0.0000000000E+00 -0.0000000000E+00
-          fftalg         112
           getden1          0
           getden2          1
           getwfk1          0
           getwfk2          1
             iscf1          3
             iscf2         -2
           istwfk1       1    1    1
           istwfk2       1    1    1    1    1    1    1    1
              ixc           7
           jdtset        1    2
              kpt1     0.00000000E+00  0.00000000E+00  0.00000000E+00
                       5.00000000E-01  0.00000000E+00  0.00000000E+00
                       5.00000000E-01  5.00000000E-01  0.00000000E+00
              kpt2     0.00000000E+00  0.00000000E+00  0.00000000E+00
                       5.00000000E-01  0.00000000E+00  0.00000000E+00
                       0.00000000E+00  5.00000000E-01  0.00000000E+00
                       5.00000000E-01  5.00000000E-01  0.00000000E+00
                       0.00000000E+00  0.00000000E+00  5.00000000E-01
                       5.00000000E-01  0.00000000E+00  5.00000000E-01
                       0.00000000E+00  5.00000000E-01  5.00000000E-01
                       5.00000000E-01  5.00000000E-01  5.00000000E-01
           kptopt1          1
           kptopt2          3
         kptrlatt        2    0    0      0    2    0      0    0    2
          kptrlen      1.45140738E+01
P           mkmem1          3
P           mkmem2          8
            natom           2
            nband1          5
            nband2          4
           nbdbuf1          0
           nbdbuf2          2
           ndtset           2
            ngfft          15      15      15
          ngfftdg          30      30      30
             nkpt1          3
             nkpt2          8
            nstep1        100
            nstep2          0
             nsym          24
           ntypat           1
              occ      2.000000  2.000000  2.000000  2.000000  0.000000
        optforces           1
        pawecutdg      1.60000000E+01 Hartree
          prtwant1          0
          prtwant2          2
            rprim      0.0000000000E+00  5.0000000000E-01  5.0000000000E-01
                       5.0000000000E-01  0.0000000000E+00  5.0000000000E-01
                       5.0000000000E-01  5.0000000000E-01  0.0000000000E+00
          spgroup         227
           strten1    -1.7000189483E-04 -1.7000189483E-04 -1.7000189483E-04
                       0.0000000000E+00  0.0000000000E+00  0.0000000000E+00
        symmorphi           0
           symrel      1  0  0   0  1  0   0  0  1       0 -1  1   0 -1  0   1 -1  0
                      -1  0  0  -1  0  1  -1  1  0       0  1 -1   1  0 -1   0  0 -1
                      -1  0  0  -1  1  0  -1  0  1       0 -1  1   1 -1  0   0 -1  0
                       1  0  0   0  0  1   0  1  0       0  1 -1   0  0 -1   1  0 -1
                      -1  0  1  -1  1  0  -1  0  0       0 -1  0   1 -1  0   0 -1  1
                       1  0 -1   0  0 -1   0  1 -1       0  1  0   0  0  1   1  0  0
                       1  0 -1   0  1 -1   0  0 -1       0 -1  0   0 -1  1   1 -1  0
                      -1  0  1  -1  0  0  -1  1  0       0  1  0   1  0  0   0  0  1
                       0  0 -1   0  1 -1   1  0 -1       1 -1  0   0 -1  1   0 -1  0
                       0  0  1   1  0  0   0  1  0      -1  1  0  -1  0  0  -1  0  1
                       0  0  1   0  1  0   1  0  0       1 -1  0   0 -1  0   0 -1  1
                       0  0 -1   1  0 -1   0  1 -1      -1  1  0  -1  0  1  -1  0  0
           tolvrs1     1.00000000E-10
           tolvrs2     0.00000000E+00
           tolwfr1     0.00000000E+00
           tolwfr2     1.00000000E-10
            typat      1  1
           useylm           1
              wtk1       0.12500    0.50000    0.37500
              wtk2       0.12500    0.12500    0.12500    0.12500    0.12500    0.12500
                         0.12500    0.12500
        w90prtunk1          0
        w90prtunk2          1
           xangst      0.0000000000E+00  0.0000000000E+00  0.0000000000E+00
                       1.3577364229E+00  1.3577364229E+00  1.3577364229E+00
            xcart      0.0000000000E+00  0.0000000000E+00  0.0000000000E+00
                       2.5657500000E+00  2.5657500000E+00  2.5657500000E+00
             xred      0.0000000000E+00  0.0000000000E+00  0.0000000000E+00
                       2.5000000000E-01  2.5000000000E-01  2.5000000000E-01
            znucl       14.00000

================================================================================


- Timing analysis has been suppressed with timopt=0



================================================================================

 Suggested references for the acknowledgment of ABINIT usage.

 The users of ABINIT have little formal obligations with respect to the ABINIT group
 (those specified in the GNU General Public License, http://www.gnu.org/copyleft/gpl.txt).
 However, it is common practice in the scientific literature,
 to acknowledge the efforts of people that have made the research possible.
 In this spirit, please find below suggested citations of work written by ABINIT developers,
 corresponding to implementations inside of ABINIT that you have used in the present run.
 Note also that it will be of great value to readers of publications presenting these results,
 to read papers enabling them to understand the theoretical formalism and details
 of the ABINIT implementation.
 For information on why they are suggested, see also http://www.abinit.org/about/?text=acknowledgments.

 [1] Plane-wave based electronic strcture calculations for correlated materials.
 using dynamical mean-field theory and projected local orbitals,
 B. Amadon, F. Lechermann, A. Georges, F. Jollet, T.O. Wehling, A.I. Lichenstein,
 Phys. Rev. B 77, 205112 (2008).
 Comment : to be cited in case the computation of overlap operator for Wannier90 interface within PAW is used,
 i.e. prtwant=2 and usepaw=1. The paper describes also the DFT+DMFT implementation on Wannier functions

 [2] Implementation of the Projector Augmented-Wave Method in the ABINIT code.
 M. Torrent, F. Jollet, F. Bottin, G. Zerah, and X. Gonze Comput. Mat. Science 42, 337, (2008).
 Comment : PAW calculations. Strong suggestion to cite this paper.

 [3] ABINIT : First-principles approach of materials and nanosystem properties.
 X. Gonze, B. Amadon, P.-M. Anglade, J.-M. Beuken, F. Bottin, P. Boulanger, F. Bruneval,
 D. Caliste, R. Caracas, M. Cote, T. Deutsch, L. Genovese, Ph. Ghosez, M. Giantomassi
 S. Goedecker, D.R. Hamann, P. Hermet, F. Jollet, G. Jomard, S. Leroux, M. Mancini, S. Mazevet,
 M.J.T. Oliveira, G. Onida, Y. Pouillon, T. Rangel, G.-M. Rignanese, D. Sangalli, R. Shaltaf,
 M. Torrent, M.J. Verstraete, G. Zerah, J.W. Zwanziger
 Computer Phys. Comm. 180, 2582-2615 (2009).
 Comment : the third generic paper describing the ABINIT project.
 Note that a version of this paper, that is not formatted for Computer Phys. Comm. 
 is available at http://www.abinit.org/about/ABINIT_CPC_v10.pdf .
 The licence allows the authors to put it on the Web.

 [4] A brief introduction to the ABINIT software package.
 X. Gonze, G.-M. Rignanese, M. Verstraete, J.-M. Beuken, Y. Pouillon, R. Caracas, F. Jollet,
 M. Torrent, G. Zerah, M. Mikami, Ph. Ghosez, M. Veithen, J.-Y. Raty, V. Olevano, F. Bruneval,
 L. Reining, R. Godby, G. Onida, D.R. Hamann, and D.C. Allan.
 Z. Kristallogr. 220, 558-562 (2005).
 Comment : the second generic paper describing the ABINIT project. Note that this paper
 should be cited especially if you are using the GW part of ABINIT, as several authors
 of this part are not in the list of authors of the first or third paper.
 The .pdf of the latter paper is available at http://www.abinit.org/about/zfk_0505-06_558-562.pdf.
 Note that it should not redistributed (Copyright by Oldenburg Wissenshaftverlag,
 the licence allows the authors to put it on the Web).


 And optionally :

 [5] First-principles computation of material properties : the ABINIT software project. 
 X. Gonze, J.-M. Beuken, R. Caracas, F. Detraux, M. Fuchs, G.-M. Rignanese, L. Sindic,
 M. Verstraete, G. Zerah, F. Jollet, M. Torrent, A. Roy, M. Mikami, Ph. Ghosez, J.-Y. Raty, D.C. Allan.
 Computational Materials Science 25, 478-492 (2002). http://dx.doi.org/10.1016/S0927-0256(02)00325-7
 Comment : the original paper describing the ABINIT project.
-
- Proc.   0 individual time (sec): cpu=          4.0  wall=          4.0

================================================================================

 Calculation completed.
.Delivered    3 WARNINGs and   8 COMMENTs to log file.
+Overall time at end (sec) : cpu=          4.0  wall=          4.0
