
.Version 7.9.3 of ABINIT 
.(MPI version, prepared for a x86_64_linux_gnu4.7 computer) 

.Copyright (C) 1998-2014 ABINIT group . 
 ABINIT comes with ABSOLUTELY NO WARRANTY.
 It is free software, and you are welcome to redistribute it
 under certain conditions (GNU General Public License,
 see ~abinit/COPYING or http://www.gnu.org/copyleft/gpl.txt).

 ABINIT is a project of the Universite Catholique de Louvain,
 Corning Inc. and other collaborators, see ~abinit/doc/developers/contributors.txt .
 Please read ~abinit/doc/users/acknowledgments.html for suggested
 acknowledgments of the ABINIT effort.
 For more information, see http://www.abinit.org .

.Starting date : Sat 30 Aug 2014.
- ( at 22h35 )
  
- input  file    -> t03.in
- output file    -> t03.out
- root for input  files -> t03i
- root for output files -> t03o


 DATASET    2 : space group P1 (#  1); Bravais aP (primitive triclinic)
================================================================================
 Values of the parameters that define the memory need for DATASET  2.
   intxc =         0  ionmov =        14    iscf =         7 xclevel =         1
  lmnmax =         2   lnmax =         2   mband =        13  mffmem =         1
P  mgfft =        30   mkmem =         1 mpssoang=         3     mpw =       736
  mqgrid =      3001   natom =         4    nfft =     27000    nkpt =         1
  nloalg =         4  nspden =         1 nspinor =         1  nsppol =         1
    nsym =         1  n1xccc =      2501  ntypat =         1  occopt =         7
================================================================================
P This job should need less than                       8.525 Mbytes of memory.
  Rough estimation (10% accuracy) of disk space for files :
_ WF disk file :      0.148 Mbytes ; DEN or POT disk file :      0.208 Mbytes.
================================================================================

--------------------------------------------------------------------------------
------------- Echo of variables that govern the present computation ------------
--------------------------------------------------------------------------------
-
- outvars: echo of selected default values                                      
-   accesswff0 =  0 , fftalg0 =112 , wfoptalg0 =  0
-
- outvars: echo of global parameters not present in the input file              
-  max_nthreads =    0
-
 -outvars: echo values of preprocessed input variables --------
            acell      9.0000000000E+00  9.0000000000E+00  9.0000000000E+00 Bohr
              amu      2.69815390E+01
            dtion      1.50000000E+03
             ecut      1.20000000E+01 Hartree
           ecutsm      1.00000000E+00 Hartree
           enunit           2
-          fftalg         112
           ionmov          14
           istwfk        9
           jdtset        2
              kpt      5.00000000E-01  5.00000000E-01  5.00000000E-01
         kptrlatt        1    0    0      0    1    0      0    0    1
          kptrlen      9.00000000E+00
P           mkmem           1
            natom           4
            nband          13
           ndtset           1
            ngfft          30      30      30
             nkpt           1
            nline           5
             nsym           1
           ntypat           1
              occ      2.000000  2.000000  2.000000  2.000000  2.000000  2.000000
                       0.000000  0.000000  0.000000  0.000000  0.000000  0.000000
                       0.000000
           occopt           7
        optforces           1
           shiftk      5.00000000E-01  5.00000000E-01  5.00000000E-01
          spgroup           1
           toldff      1.00000000E-07
           tsmear      6.00000000E-02 Hartree
            typat      1  1  1  1
              vel      3.0000000000E-05  3.0000000000E-05  3.0000000000E-05
                      -1.0000000000E-05  1.0000000000E-05 -2.0000000000E-05
                       2.5000000000E-05 -6.5000000000E-05  5.0000000000E-06
                      -4.5000000000E-05  2.5000000000E-05 -1.5000000000E-05
           xangst      4.2863353896E-02  9.5251897546E-03  3.8100759018E-03
                       2.4289233874E+00  2.4146356028E+00  9.5251897546E-05
                       2.3812974387E+00  9.5251897546E-02  2.3955852233E+00
                       4.7625948773E-03  2.4003478182E+00  2.3813164890E+00
            xcart      8.1000000000E-02  1.8000000000E-02  7.2000000000E-03
                       4.5900000000E+00  4.5630000000E+00  1.8000000000E-04
                       4.5000000000E+00  1.8000000000E-01  4.5270000000E+00
                       9.0000000000E-03  4.5360000000E+00  4.5000360000E+00
             xred      9.0000000000E-03  2.0000000000E-03  8.0000000000E-04
                       5.1000000000E-01  5.0700000000E-01  2.0000000000E-05
                       5.0000000000E-01  2.0000000000E-02  5.0300000000E-01
                       1.0000000000E-03  5.0400000000E-01  5.0000400000E-01
            znucl       13.00000

================================================================================

 chkinp: Checking input parameters for consistency, jdtset=   2.

================================================================================
== DATASET  2 ==================================================================
-   nproc =    1

 Exchange-correlation functional for the present dataset will be:
  LDA: new Teter (4/93) with spin-polarized option - ixc=1
 Citation for XC functional:
  S. Goedecker, M. Teter, J. Huetter, PRB 54, 1703 (1996)

 Real(R)+Recip(G) space primitive vectors, cartesian coordinates (Bohr,Bohr^-1):
 R(1)=  9.0000000  0.0000000  0.0000000  G(1)=  0.1111111  0.0000000  0.0000000
 R(2)=  0.0000000  9.0000000  0.0000000  G(2)=  0.0000000  0.1111111  0.0000000
 R(3)=  0.0000000  0.0000000  9.0000000  G(3)=  0.0000000  0.0000000  0.1111111
 Unit cell volume ucvol=  7.2900000E+02 bohr^3
 Angles (23,13,12)=  9.00000000E+01  9.00000000E+01  9.00000000E+01 degrees

 getcut: wavevector=  0.0000  0.0000  0.0000  ngfft=  30  30  30
         ecut(hartree)=     12.000   => boxcut(ratio)=   2.13758

--- Pseudopotential description ------------------------------------------------
- pspini: atom type   1  psp file is /home/gonze/ABINIT/ABINITv7.9.3/trunk/7.9.3-private/tests/Psps_for_tests/13al.pspnc
- pspatm: opening atomic psp file    /home/gonze/ABINIT/ABINITv7.9.3/trunk/7.9.3-private/tests/Psps_for_tests/13al.pspnc
-  Troullier-Martins psp for element  Al        Thu Oct 27 17:31:05 EDT 1994
- 13.00000   3.00000    940714                znucl, zion, pspdat
    1    1    2    2      2001   0.00000      pspcod,pspxc,lmax,lloc,mmax,r2well
    0   4.657  11.889    1   2.2761078        l,e99.0,e99.9,nproj,rcpsp
   0.00000000   0.00000000   0.00000000   0.00000000     rms, ekb1, ekb2, epsatm
    1   1.829   2.761    1   2.2761078        l,e99.0,e99.9,nproj,rcpsp
   0.00000000   0.00000000   0.00000000   0.00000000     rms, ekb1, ekb2, epsatm
    2   0.000   0.000    0   2.2761078        l,e99.0,e99.9,nproj,rcpsp
   0.00000000   0.00000000   0.00000000   0.00000000     rms, ekb1, ekb2, epsatm
    2.09673076353074    0.12648111154518    1.01742091001718   rchrg,fchrg,qchrg
 pspatm: epsatm=    0.22155260
         --- l  ekb(1:nproj) -->
             0    2.540658
             1    1.353815
 pspatm: atomic psp has been read  and splines computed

   1.06345247E+01                                ecore*ucvol(ha*bohr**3)
--------------------------------------------------------------------------------

P newkpt: treating     13 bands with npw=     736 for ikpt=   1 by node    0

_setup2: Arith. and geom. avg. npw (full set) are    1472.000    1472.000

================================================================================

=== [ionmov=14] Symplectic algorithm Runge-Kutta-Nystrom SRKNa14            
================================================================================

--- Iteration: (1/1) Internal Cycle: ( 1/16)
--------------------------------------------------------------------------------

---SELF-CONSISTENT-FIELD CONVERGENCE--------------------------------------------

     iter   Etot(hartree)      deltaE(h)  residm     vres2    diffor    maxfor
 ETOT  1  -9.8770559058729    -9.877E+00 1.719E-03 4.432E+00 3.224E-03 3.224E-03
 ETOT  2  -9.8811872956420    -4.131E-03 2.275E-04 3.601E-01 1.831E-03 2.404E-03
 ETOT  3  -9.8813565252712    -1.692E-04 8.193E-07 2.656E-02 3.353E-04 2.654E-03
 ETOT  4  -9.8813687685043    -1.224E-05 1.009E-06 1.499E-04 1.004E-04 2.569E-03
 ETOT  5  -9.8813688226611    -5.416E-08 3.204E-07 8.361E-06 4.835E-06 2.574E-03
 ETOT  6  -9.8813688259399    -3.279E-09 7.380E-07 4.102E-07 1.558E-06 2.572E-03
 ETOT  7  -9.8813688261102    -1.703E-10 1.954E-07 1.370E-08 6.102E-07 2.573E-03
 ETOT  8  -9.8813688261156    -5.368E-12 5.916E-07 1.128E-10 7.012E-08 2.573E-03
 ETOT  9  -9.8813688261157    -6.040E-14 1.639E-07 2.219E-12 2.296E-09 2.573E-03

 At SCF step    9, forces are converged : 
  for the second time, max diff in force=  2.296E-09 < toldff=  1.000E-07

 Cartesian components of stress tensor (hartree/bohr^3)
  sigma(1 1)=  4.50708168E-04  sigma(3 2)= -1.87088390E-07
  sigma(2 2)=  4.49942343E-04  sigma(3 1)=  1.03807862E-07
  sigma(3 3)=  4.50835324E-04  sigma(2 1)= -2.74664006E-08


---OUTPUT-----------------------------------------------------------------------

 Cartesian coordinates (xcart) [bohr]
  8.10000000000000E-02  1.80000000000000E-02  7.20000000000000E-03
  4.59000000000000E+00  4.56300000000000E+00  1.80000000000000E-04
  4.50000000000000E+00  1.80000000000000E-01  4.52700000000000E+00
  9.00000000000000E-03  4.53600000000000E+00  4.50003600000000E+00
 Reduced coordinates (xred)
  9.00000000000000E-03  2.00000000000000E-03  8.00000000000000E-04
  5.10000000000000E-01  5.07000000000000E-01  2.00000000000000E-05
  5.00000000000000E-01  2.00000000000000E-02  5.03000000000000E-01
  1.00000000000000E-03  5.04000000000000E-01  5.00004000000000E-01
 Cartesian forces (fcart) [Ha/bohr]; max,rms= 2.57295E-03 1.02651E-03 (free atoms)
  5.03387727275935E-04  3.11611630007757E-04 -2.37965144235557E-04
  6.28063443189174E-04 -1.25507307486868E-03 -3.32987828165494E-04
 -6.30592249344697E-04  2.57295198199736E-03  4.72761535977674E-04
 -5.00858921120412E-04 -1.62949053713644E-03  9.81914364233776E-05
 Reduced forces (fred)
 -4.53048969168414E-03 -2.80450372013096E-03  2.14168673696459E-03
 -5.65257113490329E-03  1.12956586237569E-02  2.99689089233402E-03
  5.67533009790155E-03 -2.31565668880374E-02 -4.25485338495449E-03
  4.50773014388298E-03  1.46654157841668E-02 -8.83722488965822E-04
 Cartesian velocities (vel) [bohr*Ha/hbar]; max,rms= 6.50000E-05 3.03452E-05 (free atoms)
  3.00000000000000E-05  3.00000000000000E-05  3.00000000000000E-05
 -1.00000000000000E-05  1.00000000000000E-05 -2.00000000000000E-05
  2.50000000000000E-05 -6.50000000000000E-05  5.00000000000000E-06
 -4.50000000000000E-05  2.50000000000000E-05 -1.50000000000000E-05
 Kinetic energy of ions (ekin) [Ha]=  2.71743460437862E-04
 Total energy (etotal) [Ha]= -9.88136882611568E+00

--- Iteration: (1/1) Internal Cycle: ( 2/16)
--------------------------------------------------------------------------------

---SELF-CONSISTENT-FIELD CONVERGENCE--------------------------------------------

     iter   Etot(hartree)      deltaE(h)  residm     vres2    diffor    maxfor
 ETOT  1  -9.8813579621473    -9.881E+00 3.602E-07 3.255E-04 9.340E-05 2.480E-03
 ETOT  2  -9.8813580935909    -1.314E-07 2.479E-07 1.187E-05 1.664E-05 2.484E-03
 ETOT  3  -9.8813580990284    -5.438E-09 2.128E-07 4.140E-07 5.544E-06 2.478E-03
 ETOT  4  -9.8813580992024    -1.740E-10 2.220E-07 3.175E-09 5.415E-07 2.478E-03
 ETOT  5  -9.8813580992036    -1.210E-12 2.221E-07 1.907E-10 8.913E-08 2.478E-03
 ETOT  6  -9.8813580992037    -6.040E-14 2.032E-07 1.931E-12 8.070E-09 2.478E-03

 At SCF step    6, forces are converged : 
  for the second time, max diff in force=  8.070E-09 < toldff=  1.000E-07

 Cartesian components of stress tensor (hartree/bohr^3)
  sigma(1 1)=  4.50685460E-04  sigma(3 2)= -1.88988980E-07
  sigma(2 2)=  4.49983448E-04  sigma(3 1)=  9.87591068E-08
  sigma(3 3)=  4.50831078E-04  sigma(2 1)= -5.87336835E-08


---OUTPUT-----------------------------------------------------------------------

 Cartesian coordinates (xcart) [bohr]
  8.27036693928275E-02  1.97036693928275E-02  8.90366939282752E-03
  4.58943211020239E+00  4.56356788979761E+00 -9.55779595218348E-04
  4.50141972449402E+00  1.76308716315540E-01  4.52728394489880E+00
  6.44449591075872E-03  4.53741972449402E+00  4.49918416530358E+00
 Reduced coordinates (xred)
  9.18929659920305E-03  2.18929659920306E-03  9.89296599203058E-04
  5.09936901133599E-01  5.07063098866401E-01 -1.06197732802039E-04
  5.00157747166003E-01  1.95898573683934E-02  5.03031549433200E-01
  7.16055101195413E-04  5.04157747166002E-01  4.99909351700398E-01
 Cartesian forces (fcart) [Ha/bohr]; max,rms= 2.47807E-03 9.92785E-04 (free atoms)
  5.08365945569436E-04  2.91568725621824E-04 -2.01545297779238E-04
  6.38982269111330E-04 -1.20324614772048E-03 -3.36261493978693E-04
 -5.92432860277554E-04  2.47807190837124E-03  4.64193620403316E-04
 -5.54915354403212E-04 -1.56639448627258E-03  7.36131713546149E-05
 Reduced forces (fred)
 -4.57529366863621E-03 -2.62411754182627E-03  1.81390847890910E-03
 -5.75084058051325E-03  1.08292163182545E-02  3.02635424470420E-03
  5.33189558398670E-03 -2.23026461865710E-02 -4.17774178473388E-03
  4.99423803111762E-03  1.40975513652234E-02 -6.62517743295572E-04
 Cartesian velocities (vel) [bohr*Ha/hbar]; max,rms= 6.50000E-05 3.03452E-05 (free atoms)
  3.00000000000000E-05  3.00000000000000E-05  3.00000000000000E-05
 -1.00000000000000E-05  1.00000000000000E-05 -2.00000000000000E-05
  2.50000000000000E-05 -6.50000000000000E-05  5.00000000000000E-06
 -4.50000000000000E-05  2.50000000000000E-05 -1.50000000000000E-05
 Kinetic energy of ions (ekin) [Ha]=  2.71743460437862E-04
 Total energy (etotal) [Ha]= -9.88135809920369E+00

 Difference of energy with previous step (new-old):
           Absolute (Ha)= 1.07269E-05
           Relative     = 1.08557E-06

--- Iteration: (1/1) Internal Cycle: ( 3/16)
--------------------------------------------------------------------------------

---SELF-CONSISTENT-FIELD CONVERGENCE--------------------------------------------

     iter   Etot(hartree)      deltaE(h)  residm     vres2    diffor    maxfor
 ETOT  1  -9.8813364452324    -9.881E+00 2.032E-06 2.022E-03 2.106E-04 2.267E-03
 ETOT  2  -9.8813372596021    -8.144E-07 1.604E-06 7.111E-05 3.764E-05 2.273E-03
 ETOT  3  -9.8813372917710    -3.217E-08 2.724E-08 2.443E-06 1.212E-05 2.261E-03
 ETOT  4  -9.8813372927991    -1.028E-09 6.238E-07 2.058E-08 1.285E-06 2.261E-03
 ETOT  5  -9.8813372928072    -8.136E-12 2.148E-08 1.350E-09 2.263E-07 2.261E-03
 ETOT  6  -9.8813372928078    -5.969E-13 5.616E-07 1.328E-11 2.444E-08 2.261E-03
 ETOT  7  -9.8813372928078     2.132E-14 1.615E-08 1.707E-13 1.974E-09 2.261E-03

 At SCF step    7, forces are converged : 
  for the second time, max diff in force=  1.974E-09 < toldff=  1.000E-07

 Cartesian components of stress tensor (hartree/bohr^3)
  sigma(1 1)=  4.50627659E-04  sigma(3 2)= -1.96827502E-07
  sigma(2 2)=  4.50074092E-04  sigma(3 1)=  8.92841554E-08
  sigma(3 3)=  4.50825319E-04  sigma(2 1)= -1.32580270E-07


---OUTPUT-----------------------------------------------------------------------

 Cartesian coordinates (xcart) [bohr]
  8.75411953570507E-02  2.44478339029763E-02  1.34354795090392E-02
  4.58816774673335E+00  4.56458925893212E+00 -4.17965608183160E-03
  4.50501343572366E+00  1.67368897823364E-01  4.52825361227210E+00
 -7.22377814062675E-04  4.54059400934154E+00  4.49690656430069E+00
 Reduced coordinates (xred)
  9.72679948411675E-03  2.71642598921959E-03  1.49283105655991E-03
  5.09796416303706E-01  5.07176584325791E-01 -4.64406231314622E-04
  5.00557048413740E-01  1.85965442025960E-02  5.03139290252455E-01
 -8.02642015625194E-05  5.04510445482393E-01  4.99656284922299E-01
 Cartesian forces (fcart) [Ha/bohr]; max,rms= 2.26121E-03 9.23590E-04 (free atoms)
  5.24435646576442E-04  2.65398418614133E-04 -1.09092038702555E-04
  6.72854036604208E-04 -1.09614547216686E-03 -3.52207747756918E-04
 -4.91589558491864E-04  2.26120879531812E-03  4.48797836018886E-04
 -7.05700124688786E-04 -1.43046174176539E-03  1.25019504405862E-05
 Reduced forces (fred)
 -4.71992088862360E-03 -2.38858494664946E-03  9.81829223900682E-04
 -6.05568639887350E-03  9.86531007037944E-03  3.16987060538995E-03
  4.42430595699116E-03 -2.03508783369853E-02 -4.03917964859229E-03
  6.35130105276346E-03  1.28741564967663E-02 -1.12516678387586E-04
 Cartesian velocities (vel) [bohr*Ha/hbar]; max,rms= 5.80683E-05 2.90416E-05 (free atoms)
  3.14220043468086E-05  3.08155778309722E-05  2.94362362545747E-05
 -8.21263487035483E-06  6.63427248175994E-06 -2.09405927172530E-05
  2.33428431627865E-05 -5.80683220303812E-05  6.29844524741903E-06
 -4.65522126392402E-05  2.06184717176490E-05 -1.47940887847407E-05
 Kinetic energy of ions (ekin) [Ha]=  2.48897022936636E-04
 Total energy (etotal) [Ha]= -9.88133729280777E+00

 Difference of energy with previous step (new-old):
           Absolute (Ha)= 2.08064E-05
           Relative     = 2.10562E-06

--- Iteration: (1/1) Internal Cycle: ( 4/16)
--------------------------------------------------------------------------------

---SELF-CONSISTENT-FIELD CONVERGENCE--------------------------------------------

     iter   Etot(hartree)      deltaE(h)  residm     vres2    diffor    maxfor
 ETOT  1  -9.8813398111895    -9.881E+00 1.552E-07 1.181E-04 3.855E-05 2.295E-03
 ETOT  2  -9.8813398588494    -4.766E-08 1.090E-07 3.910E-06 7.268E-06 2.295E-03
 ETOT  3  -9.8813398605891    -1.740E-09 1.859E-08 1.110E-07 2.041E-06 2.297E-03
 ETOT  4  -9.8813398606354    -4.625E-11 7.421E-08 1.153E-09 2.613E-07 2.297E-03
 ETOT  5  -9.8813398606358    -4.352E-13 1.624E-08 8.237E-11 4.640E-08 2.297E-03
 ETOT  6  -9.8813398606358    -3.020E-14 5.762E-08 8.609E-13 6.495E-09 2.297E-03

 At SCF step    6, forces are converged : 
  for the second time, max diff in force=  6.495E-09 < toldff=  1.000E-07

 Cartesian components of stress tensor (hartree/bohr^3)
  sigma(1 1)=  4.50640309E-04  sigma(3 2)= -1.92188425E-07
  sigma(2 2)=  4.50058932E-04  sigma(3 1)=  9.01390876E-08
  sigma(3 3)=  4.50823750E-04  sigma(2 1)= -1.14290725E-07


---OUTPUT-----------------------------------------------------------------------

 Cartesian coordinates (xcart) [bohr]
  8.62077848158232E-02  2.31943509456775E-02  1.23170509277687E-02
  4.58833991943273E+00  4.56457048784303E+00 -3.29044066934212E-03
  4.50421471863862E+00  1.69129748771069E-01  4.52791150958973E+00
  1.23757711282536E-03  4.54010541244022E+00  4.49747788015184E+00
 Reduced coordinates (xred)
  9.57864275731368E-03  2.57715010507528E-03  1.36856121419652E-03
  5.09815546603637E-01  5.07174498649226E-01 -3.65604518815791E-04
  5.00468302070958E-01  1.87921943078965E-02  5.03101278843303E-01
  1.37508568091707E-04  5.04456156937802E-01  4.99719764461316E-01
 Cartesian forces (fcart) [Ha/bohr]; max,rms= 2.29702E-03 9.31944E-04 (free atoms)
  5.19691500352469E-04  2.58966092304684E-04 -1.29842186056087E-04
  6.61419175517615E-04 -1.10767325470343E-03 -3.44959260967540E-04
 -5.16425117366970E-04  2.29702361450064E-03  4.49144242750347E-04
 -6.64685558503114E-04 -1.44831645210189E-03  2.56572042732807E-05
 Reduced forces (fred)
 -4.67722360047631E-03 -2.33069407274590E-03  1.16858048153066E-03
 -5.95277267696263E-03  9.96906005032715E-03  3.10463415573374E-03
  4.64782595899863E-03 -2.06732117725095E-02 -4.04229737772724E-03
  5.98216992922393E-03  1.30348488269133E-02 -2.30914031433646E-04
 Cartesian velocities (vel) [bohr*Ha/hbar]; max,rms= 5.05119E-05 2.75199E-05 (free atoms)
  3.43646281311485E-05  3.23047361367403E-05  2.88241176278873E-05
 -4.43723114937212E-06  4.83768109009315E-07 -2.29168407132542E-05
  2.05845197414199E-05 -4.53806132029992E-05  8.81666305974878E-06
 -5.05119167231963E-05  1.25921089572496E-05 -1.47239399743819E-05
 Kinetic energy of ions (ekin) [Ha]=  2.23496661840909E-04
 Total energy (etotal) [Ha]= -9.88133986063583E+00

 Difference of energy with previous step (new-old):
           Absolute (Ha)=-2.56783E-06
           Relative     =-2.59866E-07

--- Iteration: (1/1) Internal Cycle: ( 5/16)
--------------------------------------------------------------------------------

---SELF-CONSISTENT-FIELD CONVERGENCE--------------------------------------------

     iter   Etot(hartree)      deltaE(h)  residm     vres2    diffor    maxfor
 ETOT  1  -9.8813097404967    -9.881E+00 5.559E-06 1.582E-02 4.811E-04 1.816E-03
 ETOT  2  -9.8813160962714    -6.356E-06 1.748E-06 5.327E-04 9.552E-05 1.814E-03
 ETOT  3  -9.8813163337415    -2.375E-07 3.290E-08 1.785E-05 2.569E-05 1.789E-03
 ETOT  4  -9.8813163412513    -7.510E-09 1.593E-06 1.709E-07 3.497E-06 1.789E-03
 ETOT  5  -9.8813163413205    -6.911E-11 2.942E-08 1.249E-08 6.016E-07 1.788E-03
 ETOT  6  -9.8813163413259    -5.450E-12 1.608E-06 1.245E-10 7.160E-08 1.788E-03
 ETOT  7  -9.8813163413260    -7.461E-14 2.670E-08 1.437E-12 5.835E-09 1.788E-03

 At SCF step    7, forces are converged : 
  for the second time, max diff in force=  5.835E-09 < toldff=  1.000E-07

 Cartesian components of stress tensor (hartree/bohr^3)
  sigma(1 1)=  4.50452678E-04  sigma(3 2)= -2.22931154E-07
  sigma(2 2)=  4.50257295E-04  sigma(3 1)=  8.20961117E-08
  sigma(3 3)=  4.50815031E-04  sigma(2 1)= -2.81732395E-07


---OUTPUT-----------------------------------------------------------------------

 Cartesian coordinates (xcart) [bohr]
  1.01983613641756E-01  3.82111169530730E-02  2.60091707536133E-02
  4.58571083976075E+00  4.56569872668946E+00 -1.38122216635676E-02
  4.51433718120245E+00  1.45872250445878E-01  4.53170232976820E+00
 -2.20316346049587E-02  4.54721790591158E+00  4.49051672114175E+00
 Reduced coordinates (xred)
  1.13315126268618E-02  4.24567966145255E-03  2.88990786151258E-03
  5.09523426640084E-01  5.07299858521052E-01 -1.53469129595196E-03
  5.01593020133606E-01  1.62080278273198E-02  5.03522481085356E-01
 -2.44795940055097E-03  5.05246433990176E-01  4.98946302349083E-01
 Cartesian forces (fcart) [Ha/bohr]; max,rms= 1.78846E-03 8.26822E-04 (free atoms)
  5.74453261383640E-04  2.87610670329524E-04  1.32436441509245E-04
  7.90081602099481E-04 -9.08761016371495E-04 -4.20952879922120E-04
 -2.09486885400550E-04  1.78846304618431E-03  4.31675970397954E-04
 -1.15504797808257E-03 -1.16731270014234E-03 -1.43159531985080E-04
 Reduced forces (fred)
 -5.17007951125958E-03 -2.58849530624575E-03 -1.19192676417520E-03
 -7.11073457770214E-03  8.17884987406343E-03  3.78857712870709E-03
  1.88538180979814E-03 -1.60961666889388E-02 -3.88508252417358E-03
  1.03954316439363E-02  1.05058150280010E-02  1.28843699727373E-03
 Cartesian velocities (vel) [bohr*Ha/hbar]; max,rms= 4.93659E-05 2.79242E-05 (free atoms)
  3.34685980729831E-05  3.18582377764761E-05  2.90479860218196E-05
 -5.57762205803383E-06  2.39357138685197E-06 -2.23220765763388E-05
  2.14749180404849E-05 -4.93410439614631E-05  8.04226759304734E-06
 -4.93658940554342E-05  1.50892347981350E-05 -1.47681770385281E-05
 Kinetic energy of ions (ekin) [Ha]=  2.30112813944307E-04
 Total energy (etotal) [Ha]= -9.88131634132598E+00

 Difference of energy with previous step (new-old):
           Absolute (Ha)= 2.35193E-05
           Relative     = 2.38018E-06

--- Iteration: (1/1) Internal Cycle: ( 6/16)
--------------------------------------------------------------------------------

---SELF-CONSISTENT-FIELD CONVERGENCE--------------------------------------------

     iter   Etot(hartree)      deltaE(h)  residm     vres2    diffor    maxfor
 ETOT  1  -9.8813203316910    -9.881E+00 1.236E-06 2.988E-03 1.994E-04 1.988E-03
 ETOT  2  -9.8813215368421    -1.205E-06 3.370E-07 1.009E-04 4.111E-05 1.986E-03
 ETOT  3  -9.8813215819911    -4.515E-08 1.197E-08 3.110E-06 1.120E-05 1.997E-03
 ETOT  4  -9.8813215832920    -1.301E-09 4.062E-07 3.085E-08 1.469E-06 1.997E-03
 ETOT  5  -9.8813215833045    -1.246E-11 9.586E-09 2.235E-09 2.602E-07 1.997E-03
 ETOT  6  -9.8813215833055    -1.009E-12 3.454E-07 2.107E-11 3.469E-08 1.997E-03
 ETOT  7  -9.8813215833055     3.375E-14 8.138E-09 2.237E-13 2.259E-09 1.997E-03

 At SCF step    7, forces are converged : 
  for the second time, max diff in force=  2.259E-09 < toldff=  1.000E-07

 Cartesian components of stress tensor (hartree/bohr^3)
  sigma(1 1)=  4.50537021E-04  sigma(3 2)= -2.13377736E-07
  sigma(2 2)=  4.50179066E-04  sigma(3 1)=  8.32700366E-08
  sigma(3 3)=  4.50822426E-04  sigma(2 1)= -2.25243632E-07


---OUTPUT-----------------------------------------------------------------------

 Cartesian coordinates (xcart) [bohr]
  9.54331761095070E-02  3.19834417002342E-02  2.03346439745122E-02
  4.58677656672120E+00  4.56525805214384E+00 -9.44226260787848E-03
  4.51015104842988E+00  1.55452114893311E-01  4.53011971398587E+00
 -1.23607912605870E-02  4.54430639126261E+00  4.49340390464749E+00
 Reduced coordinates (xred)
  1.06036862343897E-02  3.55371574447047E-03  2.25940488605691E-03
  5.09641840746800E-01  5.07250894682649E-01 -1.04914028976428E-03
  5.01127894269987E-01  1.72724572103679E-02  5.03346634887319E-01
 -1.37342125117633E-03  5.04922932362512E-01  4.99267100516388E-01
 Cartesian forces (fcart) [Ha/bohr]; max,rms= 1.99746E-03 8.61314E-04 (free atoms)
  5.51838538072125E-04  2.74377255512589E-04  2.39092712632979E-05
  7.36169890468078E-04 -9.89519250181374E-04 -3.89122754856753E-04
 -3.37331977278476E-04  1.99745971839473E-03  4.38525895499443E-04
 -9.50676451261726E-04 -1.28231772372595E-03 -7.33124119059877E-05
 Reduced forces (fred)
 -4.96654696833211E-03 -2.46939458501888E-03 -2.15182449855956E-04
 -6.62552913989568E-03  8.90567396622679E-03  3.50210578522450E-03
  3.03598766982330E-03 -1.79771367509582E-02 -3.94673206798126E-03
  8.55608793567255E-03  1.15408602281279E-02  6.59812698667615E-04
 Cartesian velocities (vel) [bohr*Ha/hbar]; max,rms= 4.95390E-05 2.79188E-05 (free atoms)
  3.35547004538316E-05  3.19013465289848E-05  2.90678363624680E-05
 -5.45920005301030E-06  2.25736102407429E-06 -2.23851714312606E-05
  2.14435189331910E-05 -4.90729787650620E-05  8.10696968685533E-06
 -4.95390193340123E-05  1.49142712120030E-05 -1.47896346180628E-05
 Kinetic energy of ions (ekin) [Ha]=  2.30023715126802E-04
 Total energy (etotal) [Ha]= -9.88132158330546E+00

 Difference of energy with previous step (new-old):
           Absolute (Ha)=-5.24198E-06
           Relative     =-5.30494E-07

--- Iteration: (1/1) Internal Cycle: ( 7/16)
--------------------------------------------------------------------------------

---SELF-CONSISTENT-FIELD CONVERGENCE--------------------------------------------

     iter   Etot(hartree)      deltaE(h)  residm     vres2    diffor    maxfor
 ETOT  1  -9.8813221269444    -9.881E+00 2.081E-06 1.915E-03 1.725E-04 1.894E-03
 ETOT  2  -9.8813228996018    -7.727E-07 1.501E-07 6.285E-05 3.600E-05 1.886E-03
 ETOT  3  -9.8813229274552    -2.785E-08 1.359E-08 1.783E-06 9.451E-06 1.881E-03
 ETOT  4  -9.8813229282002    -7.451E-10 1.448E-07 1.864E-08 1.344E-06 1.881E-03
 ETOT  5  -9.8813229282079    -7.617E-12 1.338E-08 1.319E-09 2.446E-07 1.881E-03
 ETOT  6  -9.8813229282084    -5.631E-13 1.163E-07 1.494E-11 3.529E-08 1.881E-03
 ETOT  7  -9.8813229282084     1.599E-14 1.204E-08 1.280E-13 2.463E-09 1.881E-03

 At SCF step    7, forces are converged : 
  for the second time, max diff in force=  2.463E-09 < toldff=  1.000E-07

 Cartesian components of stress tensor (hartree/bohr^3)
  sigma(1 1)=  4.50471181E-04  sigma(3 2)= -2.33476073E-07
  sigma(2 2)=  4.50226017E-04  sigma(3 1)=  8.62186421E-08
  sigma(3 3)=  4.50825746E-04  sigma(2 1)= -2.83654732E-07


---OUTPUT-----------------------------------------------------------------------

 Cartesian coordinates (xcart) [bohr]
  1.01175606797556E-01  3.72677692113036E-02  2.49913755625375E-02
  4.58642034914803E+00  4.56492586216938E+00 -1.32878616739430E-02
  4.51333791830439E+00  1.49016706293461E-01  4.53172070823067E+00
 -2.09338742499710E-02  4.54578966232585E+00  4.49099177788074E+00
 Reduced coordinates (xred)
  1.12417340886173E-02  4.14086324570040E-03  2.77681950694861E-03
  5.09602261016448E-01  5.07213984685487E-01 -1.47642907488256E-03
  5.01481990922710E-01  1.65574118103846E-02  5.03524523136741E-01
 -2.32598602777456E-03  5.05087740258428E-01  4.98999086431193E-01
 Cartesian forces (fcart) [Ha/bohr]; max,rms= 1.88100E-03 8.56418E-04 (free atoms)
  5.69456286400003E-04  3.23303086079130E-04  1.07198227410023E-04
  7.93504359848922E-04 -9.68317367400080E-04 -4.24352134012926E-04
 -2.30148796144353E-04  1.88099607728886E-03  4.42683518413991E-04
 -1.13281185010457E-03 -1.23598179596791E-03 -1.25529611811088E-04
 Reduced forces (fred)
 -5.12510677781370E-03 -2.90972701730814E-03 -9.64782889980055E-04
 -7.14153943885397E-03  8.71485706400475E-03  3.81917036282648E-03
  2.07133896508550E-03 -1.69289639381957E-02 -3.98415050901577E-03
  1.01953064507275E-02  1.11238369211152E-02  1.12976766300994E-03
 Cartesian velocities (vel) [bohr*Ha/hbar]; max,rms= 5.37071E-05 2.76201E-05 (free atoms)
  3.59741576079154E-05  3.31043143682498E-05  2.91726631431582E-05
 -2.23156844479298E-06 -2.08104462138643E-06 -2.40912245031319E-05
  1.99645351192317E-05 -4.03154022780198E-05  1.00296237639405E-05
 -5.37071242823541E-05  9.29213253115640E-06 -1.51110624039669E-05
 Kinetic energy of ions (ekin) [Ha]=  2.25127246262775E-04
 Total energy (etotal) [Ha]= -9.88132292820840E+00

 Difference of energy with previous step (new-old):
           Absolute (Ha)=-1.34490E-06
           Relative     =-1.36106E-07

--- Iteration: (1/1) Internal Cycle: ( 8/16)
--------------------------------------------------------------------------------

---SELF-CONSISTENT-FIELD CONVERGENCE--------------------------------------------

     iter   Etot(hartree)      deltaE(h)  residm     vres2    diffor    maxfor
 ETOT  1  -9.8813215088048    -9.881E+00 9.957E-09 1.712E-05 1.780E-05 1.879E-03
 ETOT  2  -9.8813215157260    -6.921E-09 1.077E-08 5.784E-07 3.290E-06 1.881E-03
 ETOT  3  -9.8813215159841    -2.582E-10 7.233E-09 1.477E-08 9.696E-07 1.881E-03
 ETOT  4  -9.8813215159902    -6.075E-12 9.005E-09 1.426E-10 1.121E-07 1.881E-03
 ETOT  5  -9.8813215159903    -4.974E-14 6.273E-09 1.083E-11 2.131E-08 1.881E-03
 ETOT  6  -9.8813215159904    -1.101E-13 8.260E-09 1.027E-13 2.798E-09 1.881E-03

 At SCF step    6, forces are converged : 
  for the second time, max diff in force=  2.798E-09 < toldff=  1.000E-07

 Cartesian components of stress tensor (hartree/bohr^3)
  sigma(1 1)=  4.50476651E-04  sigma(3 2)= -2.29650160E-07
  sigma(2 2)=  4.50225344E-04  sigma(3 1)=  8.51668738E-08
  sigma(3 3)=  4.50823931E-04  sigma(2 1)= -2.76908668E-07


---OUTPUT-----------------------------------------------------------------------

 Cartesian coordinates (xcart) [bohr]
  1.00625785531593E-01  3.67883426189935E-02  2.45923784290072E-02
  4.58634489796792E+00  4.56508131009108E+00 -1.29139729654982E-02
  4.51310498083875E+00  1.49299883803946E-01  4.53152988810926E+00
 -2.00756643382617E-02  4.54583046348597E+00  4.49120770642723E+00
 Reduced coordinates (xred)
  1.11806428368437E-02  4.08759362433261E-03  2.73248649211191E-03
  5.09593877551991E-01  5.07231256676787E-01 -1.43488588505536E-03
  5.01456108982083E-01  1.65888759782163E-02  5.03503320901029E-01
 -2.23062937091796E-03  5.05092273720664E-01  4.99023078491915E-01
 Cartesian forces (fcart) [Ha/bohr]; max,rms= 1.88078E-03 8.51982E-04 (free atoms)
  5.68610632472371E-04  3.12175380088459E-04  1.01049142188227E-04
  7.85683065028342E-04 -9.61844071298863E-04 -4.19782397868395E-04
 -2.40202378904779E-04  1.88077505055095E-03  4.40630099914428E-04
 -1.11409131859593E-03 -1.23110635934054E-03 -1.21896844234260E-04
 Reduced forces (fred)
 -5.11749589486439E-03 -2.80957772601428E-03 -9.09441182274032E-04
 -7.07114778786812E-03  8.65659733647161E-03  3.77804267823556E-03
  2.16182120752997E-03 -1.69269747601767E-02 -3.96566980180985E-03
  1.00268216647504E-02  1.10799579288467E-02  1.09707269552835E-03
 Cartesian velocities (vel) [bohr*Ha/hbar]; max,rms= 6.50585E-05 2.94957E-05 (free atoms)
  4.16803931032525E-05  3.63439722482243E-05  3.02468427507824E-05
  5.71974028954267E-06 -1.17840667225921E-05 -2.83434441509904E-05
  1.76583296015609E-05 -2.14668851237529E-05  1.44655330098352E-05
 -6.50584629943561E-05 -3.09302040187929E-06 -1.63689316096273E-05
 Kinetic energy of ions (ekin) [Ha]=  2.56740987940845E-04
 Total energy (etotal) [Ha]= -9.88132151599036E+00

 Difference of energy with previous step (new-old):
           Absolute (Ha)= 1.41222E-06
           Relative     = 1.42918E-07

--- Iteration: (1/1) Internal Cycle: ( 9/16)
--------------------------------------------------------------------------------

---SELF-CONSISTENT-FIELD CONVERGENCE--------------------------------------------

     iter   Etot(hartree)      deltaE(h)  residm     vres2    diffor    maxfor
 ETOT  1  -9.8813424195813    -9.881E+00 4.993E-06 7.438E-03 3.715E-04 1.779E-03
 ETOT  2  -9.8813454210398    -3.001E-06 2.929E-07 2.457E-04 7.804E-05 1.750E-03
 ETOT  3  -9.8813455302831    -1.092E-07 2.316E-08 7.276E-06 2.050E-05 1.748E-03
 ETOT  4  -9.8813455333297    -3.047E-09 2.680E-07 7.606E-08 2.886E-06 1.747E-03
 ETOT  5  -9.8813455333608    -3.106E-11 1.986E-08 5.387E-09 5.212E-07 1.747E-03
 ETOT  6  -9.8813455333631    -2.300E-12 1.297E-07 5.724E-11 7.126E-08 1.747E-03
 ETOT  7  -9.8813455333631    -3.730E-14 1.673E-08 5.206E-13 4.836E-09 1.747E-03

 At SCF step    7, forces are converged : 
  for the second time, max diff in force=  4.836E-09 < toldff=  1.000E-07

 Cartesian components of stress tensor (hartree/bohr^3)
  sigma(1 1)=  4.50325009E-04  sigma(3 2)= -2.89904567E-07
  sigma(2 2)=  4.50286191E-04  sigma(3 1)=  1.04861101E-07
  sigma(3 3)=  4.50835307E-04  sigma(2 1)= -3.94145102E-07


---OUTPUT-----------------------------------------------------------------------

 Cartesian coordinates (xcart) [bohr]
  1.12527495161181E-01  4.75083020527956E-02  3.38096444611134E-02
  4.58666003808948E+00  4.56320854876115E+00 -2.09456725882846E-02
  4.51904338689450E+00  1.39121357304358E-01  4.53520731366112E+00
 -3.82309201451665E-02  4.54716179188169E+00  4.48634471446605E+00
 Reduced coordinates (xred)
  1.25030550179090E-02  5.27870022808840E-03  3.75662716234594E-03
  5.09628893121053E-01  5.07023172084572E-01 -2.32729695425385E-03
  5.02115931877167E-01  1.54579285893732E-02  5.03911923740124E-01
 -4.24788001612961E-03  5.05240199097966E-01  4.98482746051784E-01
 Cartesian forces (fcart) [Ha/bohr]; max,rms= 1.74716E-03 9.05408E-04 (free atoms)
  5.96671910611768E-04  4.75202500809121E-04  2.56529483518404E-04
  9.27097352372599E-04 -9.99028828016084E-04 -5.03877277624914E-04
 -1.87020417155679E-05  1.74715700215864E-03  4.64847605004561E-04
 -1.50506722126880E-03 -1.22333067495168E-03 -2.17499810898051E-04
 Reduced forces (fred)
 -5.37004708127065E-03 -4.27682130364038E-03 -2.30876406672283E-03
 -8.34387605711813E-03  8.99126065578647E-03  4.53489678356703E-03
  1.68318489675365E-04 -1.57244118157861E-02 -4.18362716009825E-03
  1.35456051056544E-02  1.10099772782068E-02  1.95749958302526E-03
 Cartesian velocities (vel) [bohr*Ha/hbar]; max,rms= 5.83850E-05 2.81131E-05 (free atoms)
  3.82743804697527E-05  3.44740225361943E-05  2.96415521789180E-05
  1.01345044445534E-06 -6.02256162365250E-06 -2.58289217892755E-05
  1.90971566132703E-05 -3.27328432629705E-05  1.18261316316316E-05
 -5.83849875274783E-05  4.28138235042876E-06 -1.56387620212740E-05
 Kinetic energy of ions (ekin) [Ha]=  2.33235697183217E-04
 Total energy (etotal) [Ha]= -9.88134553336312E+00

 Difference of energy with previous step (new-old):
           Absolute (Ha)=-2.40174E-05
           Relative     =-2.43058E-06

--- Iteration: (1/1) Internal Cycle: (10/16)
--------------------------------------------------------------------------------

---SELF-CONSISTENT-FIELD CONVERGENCE--------------------------------------------

     iter   Etot(hartree)      deltaE(h)  residm     vres2    diffor    maxfor
 ETOT  1  -9.8813449877571    -9.881E+00 2.054E-08 1.304E-05 1.247E-05 1.758E-03
 ETOT  2  -9.8813449930169    -5.260E-09 1.654E-08 4.264E-07 2.251E-06 1.758E-03
 ETOT  3  -9.8813449932056    -1.886E-10 1.387E-08 1.104E-08 6.394E-07 1.759E-03
 ETOT  4  -9.8813449932101    -4.583E-12 1.323E-08 1.121E-10 8.052E-08 1.759E-03
 ETOT  5  -9.8813449932102    -2.665E-14 1.194E-08 7.993E-12 1.446E-08 1.759E-03

 At SCF step    5, forces are converged : 
  for the second time, max diff in force=  1.446E-08 < toldff=  1.000E-07

 Cartesian components of stress tensor (hartree/bohr^3)
  sigma(1 1)=  4.50331997E-04  sigma(3 2)= -2.88921185E-07
  sigma(2 2)=  4.50281857E-04  sigma(3 1)=  1.04274850E-07
  sigma(3 3)=  4.50836271E-04  sigma(2 1)= -3.91601133E-07


---OUTPUT-----------------------------------------------------------------------

 Cartesian coordinates (xcart) [bohr]
  1.12069751125217E-01  4.70910917655918E-02  3.34389021483194E-02
  4.58671992582556E+00  4.56320905422188E+00 -2.06447687751222E-02
  4.51878999155620E+00  1.39691203430984E-01  4.53508804174867E+00
 -3.75796685069768E-02  4.54700865058154E+00  4.48653382487813E+00
 Reduced coordinates (xred)
  1.24521945694686E-02  5.23234352951020E-03  3.71543357203549E-03
  5.09635547313951E-01  5.07023228246876E-01 -2.29386319723580E-03
  5.02087776839578E-01  1.55212448256649E-02  5.03898671305408E-01
 -4.17551872299742E-03  5.05223183397949E-01  4.98503758319792E-01
 Cartesian forces (fcart) [Ha/bohr]; max,rms= 1.75860E-03 9.05485E-04 (free atoms)
  5.94535441990329E-04  4.72735578760856E-04  2.49782851392393E-04
  9.23700799050027E-04 -1.00243550728143E-03 -5.01273179967321E-04
 -2.65691336116989E-05  1.75859996301250E-03  4.64745573877671E-04
 -1.49166710742866E-03 -1.22890003449193E-03 -2.13255245302743E-04
 Reduced forces (fred)
 -5.35081881303913E-03 -4.25461919136562E-03 -2.24804448410402E-03
 -8.31330702657642E-03  9.02192058301492E-03  4.51145979813341E-03
  2.39122367379116E-04 -1.58273986496304E-02 -4.18270898647152E-03
  1.34250041317317E-02  1.10601013279094E-02  1.91929838615221E-03
 Cartesian velocities (vel) [bohr*Ha/hbar]; max,rms= 4.93695E-05 2.68169E-05 (free atoms)
  3.47002790556415E-05  3.16275303519223E-05  2.81049248071614E-05
 -4.53991967269377E-06 -3.83175467205523E-08 -2.28106659296168E-05
  1.92091829925142E-05 -4.31984210805805E-05  9.04166590960761E-06
 -4.93695423754619E-05  1.16092082753788E-05 -1.43359247871522E-05
 Kinetic energy of ions (ekin) [Ha]=  2.12223720193158E-04
 Total energy (etotal) [Ha]= -9.88134499321016E+00

 Difference of energy with previous step (new-old):
           Absolute (Ha)= 5.40153E-07
           Relative     = 5.46639E-08

--- Iteration: (1/1) Internal Cycle: (11/16)
--------------------------------------------------------------------------------

---SELF-CONSISTENT-FIELD CONVERGENCE--------------------------------------------

     iter   Etot(hartree)      deltaE(h)  residm     vres2    diffor    maxfor
 ETOT  1  -9.8813683865702    -9.881E+00 5.698E-07 2.312E-03 2.157E-04 1.757E-03
 ETOT  2  -9.8813693229272    -9.364E-07 3.138E-07 7.912E-05 4.574E-05 1.735E-03
 ETOT  3  -9.8813693585557    -3.563E-08 6.415E-09 2.446E-06 1.212E-05 1.738E-03
 ETOT  4  -9.8813693595812    -1.026E-09 6.579E-08 2.331E-08 1.616E-06 1.737E-03
 ETOT  5  -9.8813693595906    -9.431E-12 5.089E-09 1.638E-09 2.793E-07 1.737E-03
 ETOT  6  -9.8813693595914    -7.496E-13 3.610E-08 1.632E-11 3.359E-08 1.737E-03
 ETOT  7  -9.8813693595913     2.309E-14 4.211E-09 1.584E-13 2.148E-09 1.737E-03

 At SCF step    7, forces are converged : 
  for the second time, max diff in force=  2.148E-09 < toldff=  1.000E-07

 Cartesian components of stress tensor (hartree/bohr^3)
  sigma(1 1)=  4.50237154E-04  sigma(3 2)= -3.35700329E-07
  sigma(2 2)=  4.50299428E-04  sigma(3 1)=  1.22587379E-07
  sigma(3 3)=  4.50846067E-04  sigma(2 1)= -4.62115245E-07


---OUTPUT-----------------------------------------------------------------------

 Cartesian coordinates (xcart) [bohr]
  1.18559818712927E-01  5.28958436274067E-02  3.83247313883165E-02
  4.58747272818187E+00  4.56159950453169E+00 -2.50877619459929E-02
  4.52181378885052E+00  1.35608535085385E-01  4.53727470966578E+00
 -4.78463357453102E-02  4.54689611675551E+00  4.48390432089190E+00
 Reduced coordinates (xred)
  1.31733131903252E-02  5.87731595860075E-03  4.25830348759072E-03
  5.09719192020207E-01  5.06844389392410E-01 -2.78752910511032E-03
  5.02423754316724E-01  1.50676150094872E-02  5.04141634407309E-01
 -5.31625952725669E-03  5.05210679639501E-01  4.98211591210211E-01
 Cartesian forces (fcart) [Ha/bohr]; max,rms= 1.73719E-03 9.64973E-04 (free atoms)
  6.01800065245668E-04  5.92645153006574E-04  3.27985277177063E-04
  1.01651047604016E-03 -1.06233456648286E-03 -5.51934893635798E-04
  9.91036190663417E-05  1.73718800279223E-03  4.84696831670278E-04
 -1.71741416035217E-03 -1.26749858931594E-03 -2.60747215211543E-04
 Reduced forces (fred)
 -5.41620022690473E-03 -5.33380489830873E-03 -2.95186619851604E-03
 -9.14859392405512E-03  9.56101257709621E-03  4.96741533879971E-03
 -8.91932211290794E-04 -1.56346905463796E-02 -4.36227018895498E-03
  1.54567278034758E-02  1.14074887825939E-02  2.34672623298142E-03
 Cartesian velocities (vel) [bohr*Ha/hbar]; max,rms= 6.43168E-05 2.94676E-05 (free atoms)
  4.06578201757304E-05  3.63645762040056E-05  3.06078733332939E-05
  4.71602220114504E-06 -1.00832203953609E-05 -2.78336727533238E-05
  1.89429470461979E-05 -2.55763739266544E-05  1.36986479349123E-05
 -6.43167894230734E-05 -7.04981881990247E-07 -1.64728485148825E-05
 Kinetic energy of ions (ekin) [Ha]=  2.56251585425977E-04
 Total energy (etotal) [Ha]= -9.88136935959134E+00

 Difference of energy with previous step (new-old):
           Absolute (Ha)=-2.43664E-05
           Relative     =-2.46589E-06

--- Iteration: (1/1) Internal Cycle: (12/16)
--------------------------------------------------------------------------------

---SELF-CONSISTENT-FIELD CONVERGENCE--------------------------------------------

     iter   Etot(hartree)      deltaE(h)  residm     vres2    diffor    maxfor
 ETOT  1  -9.8813296941768    -9.881E+00 9.908E-07 4.363E-03 3.041E-04 1.671E-03
 ETOT  2  -9.8813314557909    -1.762E-06 5.149E-07 1.528E-04 5.545E-05 1.706E-03
 ETOT  3  -9.8813315247200    -6.893E-08 7.355E-09 4.305E-06 1.691E-05 1.698E-03
 ETOT  4  -9.8813315265067    -1.787E-09 1.731E-07 3.690E-08 1.851E-06 1.699E-03
 ETOT  5  -9.8813315265212    -1.450E-11 1.136E-09 2.762E-09 3.305E-07 1.699E-03
 ETOT  6  -9.8813315265224    -1.174E-12 3.749E-08 2.397E-11 3.739E-08 1.699E-03
 ETOT  7  -9.8813315265224    -3.908E-14 1.088E-09 2.536E-13 2.501E-09 1.699E-03

 At SCF step    7, forces are converged : 
  for the second time, max diff in force=  2.501E-09 < toldff=  1.000E-07

 Cartesian components of stress tensor (hartree/bohr^3)
  sigma(1 1)=  4.50354850E-04  sigma(3 2)= -2.60950791E-07
  sigma(2 2)=  4.50296455E-04  sigma(3 1)=  9.57872037E-08
  sigma(3 3)=  4.50821045E-04  sigma(2 1)= -3.52403736E-07


---OUTPUT-----------------------------------------------------------------------

 Cartesian coordinates (xcart) [bohr]
  1.10107653195599E-01  4.52896266707394E-02  3.20688412041649E-02
  4.58568205097341E+00  4.56447716922561E+00 -1.91817636145344E-02
  4.51803098668946E+00  1.39114611511268E-01  4.53418565311638E+00
 -3.38206908584637E-02  4.54811859259238E+00  4.48734326929399E+00
 Reduced coordinates (xred)
  1.22341836883999E-02  5.03218074119326E-03  3.56320457824054E-03
  5.09520227885934E-01  5.07164129913956E-01 -2.13130706828160E-03
  5.02003442965495E-01  1.54571790568075E-02  5.03798405901820E-01
 -3.75785453982930E-03  5.05346510288042E-01  4.98593696588221E-01
 Cartesian forces (fcart) [Ha/bohr]; max,rms= 1.69904E-03 8.60250E-04 (free atoms)
  6.06991841826107E-04  3.94435268710222E-04  2.32691137953650E-04
  8.69933472203094E-04 -9.32333299907440E-04 -4.79530783007933E-04
 -7.65947375187943E-05  1.69903756842852E-03  4.50519040935155E-04
 -1.40033057651041E-03 -1.16113953723130E-03 -2.03679395880872E-04
 Reduced forces (fred)
 -5.46292651702969E-03 -3.54991652169451E-03 -2.09421907665502E-03
 -7.82940119042257E-03  8.39100059586446E-03  4.31577821199923E-03
  6.89352697074422E-04 -1.52913372191592E-02 -4.05467020348856E-03
  1.26029752479989E-02  1.04502567317792E-02  1.83311572785568E-03
 Cartesian velocities (vel) [bohr*Ha/hbar]; max,rms= 7.18465E-05 3.17493E-05 (free atoms)
  4.32963265009200E-05  3.89629441256882E-05  3.20458778772906E-05
  9.17276701648262E-06 -1.47408743821354E-05 -3.02535523645970E-05
  1.93774526916052E-05 -1.79599215563150E-05  1.58237318789284E-05
 -7.18465462090079E-05 -6.26214818723781E-06 -1.76160573916219E-05
 Kinetic energy of ions (ekin) [Ha]=  2.97472593140473E-04
 Total energy (etotal) [Ha]= -9.88133152652240E+00

 Difference of energy with previous step (new-old):
           Absolute (Ha)= 3.78331E-05
           Relative     = 3.82873E-06

--- Iteration: (1/1) Internal Cycle: (13/16)
--------------------------------------------------------------------------------

---SELF-CONSISTENT-FIELD CONVERGENCE--------------------------------------------

     iter   Etot(hartree)      deltaE(h)  residm     vres2    diffor    maxfor
 ETOT  1  -9.8814284971111    -9.881E+00 3.196E-06 2.311E-02 7.368E-04 2.137E-03
 ETOT  2  -9.8814378398219    -9.343E-06 1.413E-06 8.281E-04 1.545E-04 2.125E-03
 ETOT  3  -9.8814382183611    -3.785E-07 1.571E-08 2.987E-05 4.170E-05 2.167E-03
 ETOT  4  -9.8814382309423    -1.258E-08 1.852E-07 2.331E-07 5.207E-06 2.166E-03
 ETOT  5  -9.8814382310331    -9.088E-11 6.092E-09 1.463E-08 7.980E-07 2.167E-03
 ETOT  6  -9.8814382310394    -6.287E-12 9.762E-08 1.605E-10 7.535E-08 2.167E-03
 ETOT  7  -9.8814382310395    -7.283E-14 3.829E-09 1.851E-12 4.896E-09 2.167E-03

 At SCF step    7, forces are converged : 
  for the second time, max diff in force=  4.896E-09 < toldff=  1.000E-07

 Cartesian components of stress tensor (hartree/bohr^3)
  sigma(1 1)=  4.50033731E-04  sigma(3 2)= -4.60338259E-07
  sigma(2 2)=  4.50302545E-04  sigma(3 1)=  1.72848627E-07
  sigma(3 3)=  4.50878483E-04  sigma(2 1)= -6.23964134E-07


---OUTPUT-----------------------------------------------------------------------

 Cartesian coordinates (xcart) [bohr]
  1.30558785042652E-01  6.36831490571239E-02  4.71904933852988E-02
  4.59006720695795E+00  4.55746300985664E+00 -3.34760208096113E-02
  4.52715937211702E+00  1.30769022910000E-01  4.54167619006469E+00
 -6.77853641176230E-02  4.54508481817622E+00  4.47902533735962E+00
 Reduced coordinates (xred)
  1.45065316714058E-02  7.07590545079154E-03  5.24338815392209E-03
  5.10007467439772E-01  5.06384778872961E-01 -3.71955786773459E-03
  5.03017708013002E-01  1.45298914344444E-02  5.04630687784965E-01
 -7.53170712418033E-03  5.05009424241803E-01  4.97669481928847E-01
 Cartesian forces (fcart) [Ha/bohr]; max,rms= 2.16686E-03 1.12852E-03 (free atoms)
  5.94236537179833E-04  8.76129324976102E-04  4.62290367591560E-04
  1.22456359481111E-03 -1.24979062010574E-03 -6.53914802261116E-04
  3.48055513972054E-04  1.79489442055441E-03  5.33301545421982E-04
 -2.16685564596300E-03 -1.42123312542477E-03 -3.41677110752426E-04
 Reduced forces (fred)
 -5.34812825947779E-03 -7.88516179633315E-03 -4.16061211957452E-03
 -1.10210717781593E-02  1.12481177094035E-02  5.88523440909956E-03
 -3.13249905060777E-03 -1.61540476565379E-02 -4.79971272004833E-03
  1.95017013888077E-02  1.27911002572747E-02  3.07509518552135E-03
 Cartesian velocities (vel) [bohr*Ha/hbar]; max,rms= 7.20564E-05 3.18172E-05 (free atoms)
  4.33873059526007E-05  3.90220643675069E-05  3.20807549723076E-05
  9.30315768213238E-06 -1.48806178952508E-05 -3.03254272147940E-05
  1.93659722288693E-05 -1.77052599682854E-05  1.58912582812482E-05
 -7.20564358636024E-05 -6.43618650397071E-06 -1.76465860387618E-05
 Kinetic energy of ions (ekin) [Ha]=  2.98745006611872E-04
 Total energy (etotal) [Ha]= -9.88143823103950E+00

 Difference of energy with previous step (new-old):
           Absolute (Ha)=-1.06705E-04
           Relative     =-1.07985E-05

--- Iteration: (1/1) Internal Cycle: (14/16)
--------------------------------------------------------------------------------

---SELF-CONSISTENT-FIELD CONVERGENCE--------------------------------------------

     iter   Etot(hartree)      deltaE(h)  residm     vres2    diffor    maxfor
 ETOT  1  -9.8814284945358    -9.881E+00 5.878E-08 1.616E-04 5.574E-05 2.111E-03
 ETOT  2  -9.8814285597480    -6.521E-08 1.981E-08 5.488E-06 9.925E-06 2.111E-03
 ETOT  3  -9.8814285622035    -2.456E-09 8.990E-10 1.408E-07 3.067E-06 2.108E-03
 ETOT  4  -9.8814285622616    -5.812E-11 1.315E-08 1.315E-09 3.338E-07 2.108E-03
 ETOT  5  -9.8814285622621    -4.885E-13 6.673E-10 1.019E-10 6.397E-08 2.108E-03
 ETOT  6  -9.8814285622621    -1.243E-14 8.594E-09 8.743E-13 8.067E-09 2.108E-03

 At SCF step    6, forces are converged : 
  for the second time, max diff in force=  8.067E-09 < toldff=  1.000E-07

 Cartesian components of stress tensor (hartree/bohr^3)
  sigma(1 1)=  4.50064164E-04  sigma(3 2)= -4.43834998E-07
  sigma(2 2)=  4.50300403E-04  sigma(3 1)=  1.65540195E-07
  sigma(3 3)=  4.50875751E-04  sigma(2 1)= -6.03773006E-07


---OUTPUT-----------------------------------------------------------------------

 Cartesian coordinates (xcart) [bohr]
  1.28915032775301E-01  6.22276349234994E-02  4.59766287527073E-02
  4.58978815127874E+00  4.55795679351229E+00 -3.23430858761434E-02
  4.52643122198749E+00  1.31576098728901E-01  4.54109525825086E+00
 -6.51344060415312E-02  4.54523947283530E+00  4.47968719887258E+00
 Reduced coordinates (xred)
  1.43238925305890E-02  6.91418165816660E-03  5.10851430585637E-03
  5.09976461253193E-01  5.06439643723588E-01 -3.59367620846037E-03
  5.02936802443054E-01  1.46195665254335E-02  5.04566139805651E-01
 -7.23715622683679E-03  5.05026608092811E-01  4.97743022096953E-01
 Cartesian forces (fcart) [Ha/bohr]; max,rms= 2.10823E-03 1.10810E-03 (free atoms)
  5.93451737549561E-04  8.41358649425152E-04  4.43579313418865E-04
  1.19897703026066E-03 -1.22883612637630E-03 -6.40564525068364E-04
  3.15804472884675E-04  1.79268221335002E-03  5.27307622359530E-04
 -2.10823324069490E-03 -1.40520473639887E-03 -3.30322410710031E-04
 Reduced forces (fred)
 -5.34106519038592E-03 -7.57222593151248E-03 -3.99221267642835E-03
 -1.07907928247858E-02  1.10595270507006E-02  5.76508186995671E-03
 -2.84223980840194E-03 -1.61341380068363E-02 -4.74576745689434E-03
  1.89740996138142E-02  1.26468445409037E-02  2.97290284073172E-03
 Cartesian velocities (vel) [bohr*Ha/hbar]; max,rms= 6.83204E-05 3.05915E-05 (free atoms)
  4.23627485014742E-05  3.75114793194808E-05  3.12836935143438E-05
  7.19181703418724E-06 -1.27257818795216E-05 -2.91979750284338E-05
  1.87658696637559E-05 -2.07999408529242E-05  1.49717623602257E-05
 -6.83204351994174E-05 -3.98575658703506E-06 -1.70574808461357E-05
 Kinetic energy of ions (ekin) [Ha]=  2.76171215670036E-04
 Total energy (etotal) [Ha]= -9.88142856226213E+00

 Difference of energy with previous step (new-old):
           Absolute (Ha)= 9.66878E-06
           Relative     = 9.78479E-07

--- Iteration: (1/1) Internal Cycle: (15/16)
--------------------------------------------------------------------------------

---SELF-CONSISTENT-FIELD CONVERGENCE--------------------------------------------

     iter   Etot(hartree)      deltaE(h)  residm     vres2    diffor    maxfor
 ETOT  1  -9.8814810641374    -9.881E+00 2.674E-07 3.511E-03 2.758E-04 2.384E-03
 ETOT  2  -9.8814824933473    -1.429E-06 1.440E-07 1.308E-04 5.882E-05 2.377E-03
 ETOT  3  -9.8814825539879    -6.064E-08 2.384E-09 4.410E-06 1.593E-05 2.393E-03
 ETOT  4  -9.8814825558322    -1.844E-09 4.346E-08 3.204E-08 1.815E-06 2.393E-03
 ETOT  5  -9.8814825558443    -1.210E-11 8.929E-10 1.855E-09 2.726E-07 2.393E-03
 ETOT  6  -9.8814825558450    -7.638E-13 1.444E-08 2.030E-11 2.153E-08 2.393E-03
 ETOT  7  -9.8814825558450    -8.882E-15 4.793E-10 2.436E-13 1.295E-09 2.393E-03

 At SCF step    7, forces are converged : 
  for the second time, max diff in force=  1.295E-09 < toldff=  1.000E-07

 Cartesian components of stress tensor (hartree/bohr^3)
  sigma(1 1)=  4.49928121E-04  sigma(3 2)= -5.41047078E-07
  sigma(2 2)=  4.50287747E-04  sigma(3 1)=  2.04155462E-07
  sigma(3 3)=  4.50906037E-04  sigma(2 1)= -7.22188080E-07


---OUTPUT-----------------------------------------------------------------------

 Cartesian coordinates (xcart) [bohr]
  1.35949569801501E-01  6.87294535659093E-02  5.11760416517666E-02
  4.59193107742312E+00  4.55493610098819E+00 -3.73915583962937E-02
  4.52959309604698E+00  1.29922461877994E-01  4.54385572071610E+00
 -7.74737432716045E-02  4.54341198356790E+00  4.47677579602843E+00
 Reduced coordinates (xred)
  1.51055077557223E-02  7.63660595176770E-03  5.68622685019628E-03
  5.10214564158124E-01  5.06104011220910E-01 -4.15461759958819E-03
  5.03288121782998E-01  1.44358290975549E-02  5.04872857857344E-01
 -8.60819369684495E-03  5.04823553729767E-01  4.97419532892047E-01
 Cartesian forces (fcart) [Ha/bohr]; max,rms= 2.39334E-03 1.22971E-03 (free atoms)
  5.74790370707633E-04  1.03996994960302E-03  5.19206291085136E-04
  1.34295114439386E-03 -1.37661350817669E-03 -7.03922520882003E-04
  4.75597504728313E-04  1.87186897624300E-03  5.60611262094249E-04
 -2.39333901982980E-03 -1.53522541766932E-03 -3.75895032297382E-04
 Reduced forces (fred)
 -5.17311258939790E-03 -9.35972728074468E-03 -4.67285545444350E-03
 -1.20865595525739E-02  1.23895238392726E-02  6.33530385326075E-03
 -4.28037679558402E-03 -1.68468185205045E-02 -5.04550019352551E-03
  2.15400519254390E-02  1.38170310247064E-02  3.38305645599917E-03
 Cartesian velocities (vel) [bohr*Ha/hbar]; max,rms= 8.01498E-05 3.46978E-05 (free atoms)
  4.56926235951510E-05  4.22323673619333E-05  3.37726300434081E-05
  1.39193122934326E-05 -1.96208174022527E-05 -3.27922013537716E-05
  2.05378578174558E-05 -1.07411484096496E-05  1.79305008848632E-05
 -8.01497937060394E-05 -1.18704015500309E-05 -1.89109295744997E-05
 Kinetic energy of ions (ekin) [Ha]=  3.55288695365609E-04
 Total energy (etotal) [Ha]= -9.88148255584503E+00

 Difference of energy with previous step (new-old):
           Absolute (Ha)=-5.39936E-05
           Relative     =-5.46413E-06

--- Iteration: (1/1) Internal Cycle: (16/16)
--------------------------------------------------------------------------------

---SELF-CONSISTENT-FIELD CONVERGENCE--------------------------------------------

     iter   Etot(hartree)      deltaE(h)  residm     vres2    diffor    maxfor
 ETOT  1  -9.8815069679699    -9.882E+00 4.512E-08 6.179E-04 1.130E-04 2.506E-03
 ETOT  2  -9.8815072204728    -2.525E-07 3.019E-08 2.354E-05 2.419E-05 2.503E-03
 ETOT  3  -9.8815072314833    -1.101E-08 8.476E-10 7.568E-07 6.599E-06 2.509E-03
 ETOT  4  -9.8815072317980    -3.147E-10 2.053E-08 5.307E-09 7.000E-07 2.509E-03
 ETOT  5  -9.8815072317999    -1.906E-12 6.198E-10 2.838E-10 1.039E-07 2.510E-03
 ETOT  6  -9.8815072318000    -1.137E-13 1.860E-08 3.159E-12 7.206E-09 2.510E-03
 ETOT  7  -9.8815072318001    -6.750E-14 5.496E-10 3.930E-14 4.100E-10 2.510E-03

 At SCF step    7, forces are converged : 
  for the second time, max diff in force=  4.100E-10 < toldff=  1.000E-07

 Cartesian components of stress tensor (hartree/bohr^3)
  sigma(1 1)=  4.49871656E-04  sigma(3 2)= -5.85772160E-07
  sigma(2 2)=  4.50278519E-04  sigma(3 1)=  2.21502003E-07
  sigma(3 3)=  4.50921891E-04  sigma(2 1)= -7.75487865E-07


---OUTPUT-----------------------------------------------------------------------

 Cartesian coordinates (xcart) [bohr]
  1.38635713006166E-01  7.12929863502380E-02  5.31764310259681E-02
  4.59293486940537E+00  4.55360317906495E+00 -3.93656124878314E-02
  4.53083496893232E+00  1.29609830309619E-01  4.54496302893779E+00
 -8.24055513438608E-02  4.54249400427518E+00  4.47564215252407E+00
 Reduced coordinates (xred)
  1.54039681117962E-02  7.92144292780422E-03  5.90849233621868E-03
  5.10326096600597E-01  5.05955908784995E-01 -4.37395694309238E-03
  5.03426107659147E-01  1.44010922566244E-02  5.04995892104199E-01
 -9.15617237154009E-03  5.04721556030575E-01  4.97293572502674E-01
 Cartesian forces (fcart) [Ha/bohr]; max,rms= 2.50952E-03 1.28344E-03 (free atoms)
  5.62844937609764E-04  1.12571403275996E-03  5.47508511357957E-04
  1.40504073221748E-03 -1.44419110064268E-03 -7.29104744697078E-04
  5.41638138248869E-04  1.91494201897074E-03  5.74585346968410E-04
 -2.50952380807611E-03 -1.59646495108802E-03 -3.92989113629289E-04
 Reduced forces (fred)
 -5.06560356005350E-03 -1.01314239934085E-02 -4.92757541689522E-03
 -1.26453657115229E-02  1.29977222072152E-02  6.56194388760009E-03
 -4.87474236580544E-03 -1.72344758693055E-02 -5.17126693738930E-03
  2.25857151511194E-02  1.43681868612233E-02  3.53690320799000E-03
 Cartesian velocities (vel) [bohr*Ha/hbar]; max,rms= 8.68445E-05 3.72805E-05 (free atoms)
  4.73004307521281E-05  4.51413776954820E-05  3.52249570713061E-05
  1.76758234868417E-05 -2.34714891664873E-05 -3.47612177547215E-05
  2.18682020801845E-05 -5.50514500684093E-06  1.94986461520976E-05
 -8.68444563191543E-05 -1.61647435221538E-05 -1.99623854686821E-05
 Kinetic energy of ions (ekin) [Ha]=  4.10149108056969E-04
 Total energy (etotal) [Ha]= -9.88150723180007E+00

 Difference of energy with previous step (new-old):
           Absolute (Ha)=-2.46760E-05
           Relative     =-2.49719E-06
================================================================================

 ----iterations are completed or convergence reached----

 Mean square residual over all n,k,spin=   6.8585E-11; max=  5.4957E-10
   0.5000  0.5000  0.5000    1  5.49565E-10 kpt; spin; max resid(k); each band:
  3.80E-18 1.91E-18 1.55E-18 2.87E-18 3.08E-18 4.15E-18 2.90E-18 3.23E-18
  3.32E-10 2.86E-12 1.32E-12 6.22E-12 5.50E-10
 reduced coordinates (array xred) for    4 atoms
       0.015403968112      0.007921442928      0.005908492336
       0.510326096601      0.505955908785     -0.004373956943
       0.503426107659      0.014401092257      0.504995892104
      -0.009156172372      0.504721556031      0.497293572503
 rms dE/dt=  1.1551E-02; max dE/dt=  2.2586E-02; dE/dt below (all hartree)
    1      -0.005065603560     -0.010131423993     -0.004927575417
    2      -0.012645365712      0.012997722207      0.006561943888
    3      -0.004874742366     -0.017234475869     -0.005171266937
    4       0.022585715151      0.014368186861      0.003536903208

 cartesian coordinates (angstrom) at end:
    1      0.07336285961949     0.03772662350886     0.02813975533310
    2      2.43047645342761     2.40966301932414    -0.02083138493075
    3      2.39761460144157     0.06858656820907     2.40509084879805
    4     -0.04360713963246     2.40378429721915     2.36840782092042

 cartesian forces (hartree/bohr) at end:
    1      0.00056284493761     0.00112571403276     0.00054750851136
    2      0.00140504073222    -0.00144419110064    -0.00072910474470
    3      0.00054163813825     0.00191494201897     0.00057458534697
    4     -0.00250952380808    -0.00159646495109    -0.00039298911363
 frms,max,avg= 1.2834390E-03 2.5095238E-03  -9.760E-11 -2.557E-10 -1.317E-10 h/b

 cartesian forces (eV/Angstrom) at end:
    1      0.02894264794919     0.05788653812896     0.02815401726933
    2      0.07225009331974    -0.07426328603890    -0.03749207025556
    3      0.02785215057235     0.09847026950896     0.02954636402114
    4     -0.12904489184128    -0.08209352159902    -0.02020831103490
 frms,max,avg= 6.5997079E-02 1.2904489E-01  -5.019E-09 -1.315E-08 -6.772E-09 e/A
 length scales=  9.000000000000  9.000000000000  9.000000000000 bohr
              =  4.762594877310  4.762594877310  4.762594877310 angstroms
 prteigrs : about to open file t03o_DS2_EIG
 Fermi (or HOMO) energy (hartree) =   0.03771   Average Vxc (hartree)=  -0.31223
 Eigenvalues (hartree) for nkpt=   1  k points:
 kpt#   1, nband= 13, wtk=  1.00000, kpt=  0.5000  0.5000  0.5000 (reduced coord)
  -0.01576  -0.01512  -0.01500  -0.01491   0.02606   0.02618   0.02621   0.02666
   0.38656   0.38667   0.38670   0.38697   0.38706
      occupation numbers for kpt#   1
   1.79241   1.78689   1.78590   1.78509   1.21636   1.21417   1.21363   1.20554
   0.00000   0.00000   0.00000   0.00000   0.00000
 Fermi (or HOMO) energy (eV) =   1.02610   Average Vxc (eV)=  -8.49609
 Eigenvalues (   eV  ) for nkpt=   1  k points:
 kpt#   1, nband= 13, wtk=  1.00000, kpt=  0.5000  0.5000  0.5000 (reduced coord)
  -0.42881  -0.41131  -0.40821  -0.40566   0.70910   0.71239   0.71321   0.72532
  10.51880  10.52194  10.52265  10.52990  10.53237
 Total charge density [el/Bohr^3]
,     Maximum=    2.6915E-02  at reduced coord.    0.8667    0.3667    0.5000
,Next maximum=    2.6909E-02  at reduced coord.    0.8667    0.3667    0.4667
,     Minimum=    6.7182E-03  at reduced coord.    0.0000    0.5000    0.5000
,Next minimum=    6.7624E-03  at reduced coord.    0.5000    0.5000    0.0000
,  Integrated=    1.2000E+01

--------------------------------------------------------------------------------
 Components of total free energy (in Hartree) :

    Kinetic energy  =  2.52490465174825E+00
    Hartree energy  =  5.86769934227096E-02
    XC energy       = -4.38883116959192E+00
    Ewald energy    = -9.16716543380524E+00
    PspCore energy  =  1.45878253826283E-02
    Loc. psp. energy= -6.96160191709090E-01
    NL   psp  energy=  1.96528586168674E+00
    >>>>> Internal E= -9.68870146286592E+00

    -kT*entropy     = -1.92805768934152E-01
    >>>>>>>>> Etotal= -9.88150723180007E+00

 Other information on the energy :
    Total energy(eV)= -2.68889486399878E+02 ; Band energy (Ha)=   1.8768654983E-02
--------------------------------------------------------------------------------
 rms coord change=  4.8370E-03   atom, delta coord (reduced):
     1        0.006403968112      0.005921442928      0.005108492336
     2        0.000326096601     -0.001044091215     -0.004393956943
     3        0.003426107659     -0.005598907743      0.001995892104
     4       -0.010156172372      0.000721556031     -0.002710427497

 Cartesian components of stress tensor (hartree/bohr^3)
  sigma(1 1)=  4.49871656E-04  sigma(3 2)= -5.85772160E-07
  sigma(2 2)=  4.50278519E-04  sigma(3 1)=  2.21502003E-07
  sigma(3 3)=  4.50921891E-04  sigma(2 1)= -7.75487865E-07

-Cartesian components of stress tensor (GPa)         [Pressure= -1.3250E+01 GPa]
- sigma(1 1)=  1.32356788E+01  sigma(3 2)= -1.72340090E-02
- sigma(2 2)=  1.32476492E+01  sigma(3 1)=  6.51681282E-03
- sigma(3 3)=  1.32665778E+01  sigma(2 1)= -2.28156368E-02

== END DATASET(S) ==============================================================
================================================================================
  
 -outvars: echo values of variables after computation  --------
            acell      9.0000000000E+00  9.0000000000E+00  9.0000000000E+00 Bohr
              amu      2.69815390E+01
            dtion      1.50000000E+03
             ecut      1.20000000E+01 Hartree
           ecutsm      1.00000000E+00 Hartree
           enunit           2
           etotal2    -9.8815072318E+00
            fcart2     5.6284493761E-04  1.1257140328E-03  5.4750851136E-04
                       1.4050407322E-03 -1.4441911006E-03 -7.2910474470E-04
                       5.4163813825E-04  1.9149420190E-03  5.7458534697E-04
                      -2.5095238081E-03 -1.5964649511E-03 -3.9298911363E-04
-          fftalg         112
           ionmov          14
           istwfk        9
           jdtset        2
              kpt      5.00000000E-01  5.00000000E-01  5.00000000E-01
         kptrlatt        1    0    0      0    1    0      0    0    1
          kptrlen      9.00000000E+00
P           mkmem           1
            natom           4
            nband          13
           ndtset           1
            ngfft          30      30      30
             nkpt           1
            nline           5
             nsym           1
           ntypat           1
              occ      1.792411  1.786892  1.785904  1.785090  1.216363  1.214170
                       1.213625  1.205544  0.000000  0.000000  0.000000  0.000000
                       0.000000
           occopt           7
        optforces           1
           shiftk      5.00000000E-01  5.00000000E-01  5.00000000E-01
          spgroup           1
           strten2     4.4987165564E-04  4.5027851948E-04  4.5092189080E-04
                      -5.8577215977E-07  2.2150200281E-07 -7.7548786473E-07
           toldff      1.00000000E-07
           tsmear      6.00000000E-02 Hartree
            typat      1  1  1  1
              vel      4.7300430752E-05  4.5141377695E-05  3.5224957071E-05
                       1.7675823487E-05 -2.3471489166E-05 -3.4761217755E-05
                       2.1868202080E-05 -5.5051450068E-06  1.9498646152E-05
                      -8.6844456319E-05 -1.6164743522E-05 -1.9962385469E-05
           xangst      7.3362859619E-02  3.7726623509E-02  2.8139755333E-02
                       2.4304764534E+00  2.4096630193E+00 -2.0831384931E-02
                       2.3976146014E+00  6.8586568209E-02  2.4050908488E+00
                      -4.3607139632E-02  2.4037842972E+00  2.3684078209E+00
            xcart      1.3863571301E-01  7.1292986350E-02  5.3176431026E-02
                       4.5929348694E+00  4.5536031791E+00 -3.9365612488E-02
                       4.5308349689E+00  1.2960983031E-01  4.5449630289E+00
                      -8.2405551344E-02  4.5424940043E+00  4.4756421525E+00
             xred      1.5403968112E-02  7.9214429278E-03  5.9084923362E-03
                       5.1032609660E-01  5.0595590878E-01 -4.3739569431E-03
                       5.0342610766E-01  1.4401092257E-02  5.0499589210E-01
                      -9.1561723715E-03  5.0472155603E-01  4.9729357250E-01
            znucl       13.00000

================================================================================


- Timing analysis has been suppressed with timopt=0



================================================================================

 Suggested references for the acknowledgment of ABINIT usage.

 The users of ABINIT have little formal obligations with respect to the ABINIT group
 (those specified in the GNU General Public License, http://www.gnu.org/copyleft/gpl.txt).
 However, it is common practice in the scientific literature,
 to acknowledge the efforts of people that have made the research possible.
 In this spirit, please find below suggested citations of work written by ABINIT developers,
 corresponding to implementations inside of ABINIT that you have used in the present run.
 Note also that it will be of great value to readers of publications presenting these results,
 to read papers enabling them to understand the theoretical formalism and details
 of the ABINIT implementation.
 For information on why they are suggested, see also http://www.abinit.org/about/?text=acknowledgments.

 [1] ABINIT : First-principles approach of materials and nanosystem properties.
 X. Gonze, B. Amadon, P.-M. Anglade, J.-M. Beuken, F. Bottin, P. Boulanger, F. Bruneval,
 D. Caliste, R. Caracas, M. Cote, T. Deutsch, L. Genovese, Ph. Ghosez, M. Giantomassi
 S. Goedecker, D.R. Hamann, P. Hermet, F. Jollet, G. Jomard, S. Leroux, M. Mancini, S. Mazevet,
 M.J.T. Oliveira, G. Onida, Y. Pouillon, T. Rangel, G.-M. Rignanese, D. Sangalli, R. Shaltaf,
 M. Torrent, M.J. Verstraete, G. Zerah, J.W. Zwanziger
 Computer Phys. Comm. 180, 2582-2615 (2009).
 Comment : the third generic paper describing the ABINIT project.
 Note that a version of this paper, that is not formatted for Computer Phys. Comm. 
 is available at http://www.abinit.org/about/ABINIT_CPC_v10.pdf .
 The licence allows the authors to put it on the Web.

 [2] A brief introduction to the ABINIT software package.
 X. Gonze, G.-M. Rignanese, M. Verstraete, J.-M. Beuken, Y. Pouillon, R. Caracas, F. Jollet,
 M. Torrent, G. Zerah, M. Mikami, Ph. Ghosez, M. Veithen, J.-Y. Raty, V. Olevano, F. Bruneval,
 L. Reining, R. Godby, G. Onida, D.R. Hamann, and D.C. Allan.
 Z. Kristallogr. 220, 558-562 (2005).
 Comment : the second generic paper describing the ABINIT project. Note that this paper
 should be cited especially if you are using the GW part of ABINIT, as several authors
 of this part are not in the list of authors of the first or third paper.
 The .pdf of the latter paper is available at http://www.abinit.org/about/zfk_0505-06_558-562.pdf.
 Note that it should not redistributed (Copyright by Oldenburg Wissenshaftverlag,
 the licence allows the authors to put it on the Web).


 And optionally :

 [3] First-principles computation of material properties : the ABINIT software project. 
 X. Gonze, J.-M. Beuken, R. Caracas, F. Detraux, M. Fuchs, G.-M. Rignanese, L. Sindic,
 M. Verstraete, G. Zerah, F. Jollet, M. Torrent, A. Roy, M. Mikami, Ph. Ghosez, J.-Y. Raty, D.C. Allan.
 Computational Materials Science 25, 478-492 (2002). http://dx.doi.org/10.1016/S0927-0256(02)00325-7
 Comment : the original paper describing the ABINIT project.

 [4] Fast radix 2, 3, 4 and 5 kernels for Fast Fourier Transformations
 on computers with overlapping multiply-add instructions.
 S. Goedecker, SIAM J. on Scientific Computing 18, 1605 (1997).
-
- Proc.   0 individual time (sec): cpu=         10.2  wall=         10.3

================================================================================

 Calculation completed.
.Delivered    0 WARNINGs and   3 COMMENTs to log file.
+Overall time at end (sec) : cpu=         10.2  wall=         10.3
