
.Version 7.9.3 of ABINIT 
.(MPI version, prepared for a x86_64_linux_gnu4.7 computer) 

.Copyright (C) 1998-2014 ABINIT group . 
 ABINIT comes with ABSOLUTELY NO WARRANTY.
 It is free software, and you are welcome to redistribute it
 under certain conditions (GNU General Public License,
 see ~abinit/COPYING or http://www.gnu.org/copyleft/gpl.txt).

 ABINIT is a project of the Universite Catholique de Louvain,
 Corning Inc. and other collaborators, see ~abinit/doc/developers/contributors.txt .
 Please read ~abinit/doc/users/acknowledgments.html for suggested
 acknowledgments of the ABINIT effort.
 For more information, see http://www.abinit.org .

.Starting date : Sat 30 Aug 2014.
- ( at 22h37 )
  
- input  file    -> t47.in
- output file    -> t47.out
- root for input  files -> t47i
- root for output files -> t47o


 Symmetries : space group P1 (#  1); Bravais aP (primitive triclinic)
================================================================================
 Values of the parameters that define the memory need of the present run
   intxc =         0  ionmov =         0    iscf =         2 xclevel =         1
  lmnmax =         1   lnmax =         1   mband =        30  mffmem =         1
P  mgfft =        45   mkmem =         1 mpssoang=         2     mpw =      2229
  mqgrid =      3001   natom =         4    nfft =     91125    nkpt =         1
  nloalg =         4  nspden =         1 nspinor =         1  nsppol =         1
    nsym =         1  n1xccc =         0  ntypat =         1  occopt =         3
================================================================================
P This job should need less than                      16.068 Mbytes of memory.
  Rough estimation (10% accuracy) of disk space for files :
_ WF disk file :      1.022 Mbytes ; DEN or POT disk file :      0.697 Mbytes.
================================================================================

--------------------------------------------------------------------------------
------------- Echo of variables that govern the present computation ------------
--------------------------------------------------------------------------------
-
- outvars: echo of selected default values                                      
-   accesswff0 =  0 , fftalg0 =112 , wfoptalg0 =  0
-
- outvars: echo of global parameters not present in the input file              
-  max_nthreads =    0
-
 -outvars: echo values of preprocessed input variables --------
            acell      8.3000000000E+00  8.3000000000E+00  8.3000000000E+00 Bohr
              amu      1.08110000E+01
           diemac      1.00000000E+00
           diemix      0.00000000E+00
             ecut      3.00000000E+01 Hartree
-          fftalg         400
           iprcch           0
             iscf           2
           istwfk        2
           kptopt           0
P           mkmem           1
            natom           4
            nband          30
            ngfft          45      45      45
             nkpt           1
           nnsclo           1
            nstep           3
             nsym           1
           ntypat           1
              occ      2.000000  2.000000  2.000000  2.000000  2.000000  2.000000
                       0.000000  0.000000  0.000000  0.000000  0.000000  0.000000
                       0.000000  0.000000  0.000000  0.000000  0.000000  0.000000
                       0.000000  0.000000  0.000000  0.000000  0.000000  0.000000
                       0.000000  0.000000  0.000000  0.000000  0.000000  0.000000
           occopt           3
        optforces           1
           ortalg           1
          spgroup           1
           timopt          -1
           toldfe      1.00000000E-10 Hartree
            typat      1  1  1  1
              vel     -8.5723549732E-03  1.3251792816E-02 -1.6253198662E-03
                      -1.2969993806E-02 -1.4335594416E-03  2.6353558394E-02
                       8.0743069217E-03  1.7963174929E-02  8.6321196220E-03
                       1.2056695385E-02 -8.1323780165E-03  1.8671947893E-02
         wfoptalg           5
           xangst      4.2575617044E-04  2.8808188337E-04  6.8283504661E-04
                       1.0974840207E+00  1.0979533041E+00 -1.1864276920E-04
                       1.0980320795E+00  7.2335459812E-04  1.0977928343E+00
                      -2.3747256388E-04  1.0974237488E+00  1.0985191591E+00
            xcart      8.0456256151E-04  5.4439586341E-04  1.2903712320E-03
                       2.0739442344E+00  2.0748310514E+00 -2.2420234144E-04
                       2.0749799153E+00  1.3669420874E-03  2.0745278075E+00
                      -4.4875810981E-04  2.0738303370E+00  2.0759003624E+00
             xred      9.6935248375E-05  6.5589863062E-05  1.5546641350E-04
                       2.4987279933E-01  2.4997964475E-01 -2.7012330294E-05
                       2.4999758016E-01  1.6469181776E-04  2.4994310934E-01
                      -5.4067242146E-05  2.4985907675E-01  2.5010847740E-01
            znucl        5.00000

================================================================================

 chkinp: Checking input parameters for consistency.

================================================================================
== DATASET  1 ==================================================================
-   nproc =    1

 Exchange-correlation functional for the present dataset will be:
  LDA: new Teter (4/93) with spin-polarized option - ixc=1
 Citation for XC functional:
  S. Goedecker, M. Teter, J. Huetter, PRB 54, 1703 (1996)

 Real(R)+Recip(G) space primitive vectors, cartesian coordinates (Bohr,Bohr^-1):
 R(1)=  8.3000000  0.0000000  0.0000000  G(1)=  0.1204819  0.0000000  0.0000000
 R(2)=  0.0000000  8.3000000  0.0000000  G(2)=  0.0000000  0.1204819  0.0000000
 R(3)=  0.0000000  0.0000000  8.3000000  G(3)=  0.0000000  0.0000000  0.1204819
 Unit cell volume ucvol=  5.7178700E+02 bohr^3
 Angles (23,13,12)=  9.00000000E+01  9.00000000E+01  9.00000000E+01 degrees

 getcut: wavevector=  0.0000  0.0000  0.0000  ngfft=  45  45  45
         ecut(hartree)=     30.000   => boxcut(ratio)=   2.15005

--- Pseudopotential description ------------------------------------------------
- pspini: atom type   1  psp file is /home/gonze/ABINIT/ABINITv7.9.3/trunk/7.9.3-private/tests/Psps_for_tests/5b.3.hgh
- pspatm: opening atomic psp file    /home/gonze/ABINIT/ABINITv7.9.3/trunk/7.9.3-private/tests/Psps_for_tests/5b.3.hgh
- Hartwigsen-Goedecker-Hutter psp for B,  from PRB58, 3641 (1998)
-  5.00000   3.00000     10605                znucl, zion, pspdat
    3    1    1    0      2001   0.00000      pspcod,pspxc,lmax,lloc,mmax,r2well
 rloc=   0.4339300
 cc1 =  -5.5786420; cc2 =   0.8042510; cc3 =   0.0000000; cc4 =   0.0000000
 rrs =   0.3738430; h11s=   6.2339280; h22s=   0.0000000; h33s=   0.0000000
 rrp =   0.3603930; h11p=   0.0000000; h22p=   0.0000000; h33p=   0.0000000
                    k11p=   0.0008780; k22p=   0.0000000; k33p=   0.0000000
-  Local part computed in reciprocal space.

 pspatm : COMMENT -
  the projectors are not normalized,
  so that the KB energies are not consistent with 
  definition in PRB44, 8503 (1991). 
  However, this does not influence the results obtained hereafter.
 pspatm: epsatm=   -0.52475100
         --- l  ekb(1:nproj) -->
             0    1.154608
 pspatm: atomic psp has been read  and splines computed

  -2.51880479E+01                                ecore*ucvol(ha*bohr**3)
--------------------------------------------------------------------------------

P newkpt: treating     30 bands with npw=    2229 for ikpt=   1 by node    0

_setup2: Arith. and geom. avg. npw (full set) are    4457.000    4457.000

================================================================================

     iter   Etot(hartree)      deltaE(h)  residm     vres2    diffor    maxfor
 ETOT  1  -10.375117259246    -1.038E+01 5.857E-03 5.211E+03 5.379E-01 5.379E-01
 ETOT  2  -10.418374905951    -4.326E-02 1.867E-03 5.120E+03 4.071E-02 4.983E-01
 ETOT  3  -10.418478842041    -1.039E-04 2.241E-04 5.120E+03 6.198E-04 4.978E-01

 Cartesian components of stress tensor (hartree/bohr^3)
  sigma(1 1)= -1.82593725E-03  sigma(3 2)= -4.93429006E-08
  sigma(2 2)= -1.82669557E-03  sigma(3 1)= -4.89907501E-07
  sigma(3 3)= -1.82560178E-03  sigma(2 1)= -7.68393917E-08


 scprqt:  WARNING -
  nstep=    3 was not enough SCF cycles to converge;
  maximum energy difference=  1.039E-04 exceeds toldfe=  1.000E-10

================================================================================

 ----iterations are completed or convergence reached----

 Mean square residual over all n,k,spin=   1.2564E-05; max=  2.2414E-04
   0.0000  0.0000  0.0000    1  2.24140E-04 kpt; spin; max resid(k); each band:
  7.74E-11 5.25E-12 4.68E-12 6.96E-12 1.19E-12 1.95E-12 1.99E-12 3.68E-12
  6.10E-12 2.07E-12 6.90E-11 2.92E-10 2.34E-10 6.57E-11 6.45E-11 1.54E-10
  1.02E-11 7.42E-12 1.58E-11 4.62E-07 1.04E-06 4.71E-07 5.80E-09 1.46E-07
  1.64E-07 1.00E-06 3.83E-06 2.24E-04 1.82E-05 1.27E-04
 reduced coordinates (array xred) for    4 atoms
       0.000096935248      0.000065589863      0.000155466413
       0.249872799325      0.249979644747     -0.000027012330
       0.249997580157      0.000164691818      0.249943109339
      -0.000054067242      0.249859076750      0.250108477402
 rms dE/dt=  4.1282E+00; max dE/dt=  4.1323E+00; dE/dt below (all hartree)
    1      -4.127554807052     -4.129719078957     -4.126571986410
    2       4.124517712772      4.132253333018     -4.128426545109
    3       4.131826413188     -4.125463971870      4.126817296628
    4      -4.128248593562      4.128037764757      4.128907587417

 cartesian coordinates (angstrom) at end:
    1      0.00042575617044     0.00028808188337     0.00068283504661
    2      1.09748402072979     1.09795330407576    -0.00011864276920
    3      1.09803207946041     0.00072335459812     1.09779283432243
    4     -0.00023747256388     1.09742374883615     1.09851915910517

 cartesian forces (hartree/bohr) at end:
    1      0.49731204679379     0.49771037237284     0.49719922584841
    2     -0.49691355800426    -0.49770799051578     0.49742266665550
    3     -0.49779412431945     0.49719770886827    -0.49718502512006
    4      0.49739563552992    -0.49720009072533    -0.49743686738385
 frms,max,avg= 4.9737301E-01 4.9779412E-01  -1.629E-05 -1.539E-04 -2.188E-05 h/b

 cartesian forces (eV/Angstrom) at end:
    1     25.57281149648492    25.59329421958170    25.56701001070214
    2    -25.55232038076815   -25.59317173957740    25.57849979800407
    3    -25.59760091747292    25.56693200445325   -25.56627977995165
    4     25.57710980175616   -25.56705448445756   -25.57923002875456
 frms,max,avg= 2.5575946E+01 2.5597601E+01  -8.375E-04 -7.912E-03 -1.125E-03 e/A
 length scales=  8.300000000000  8.300000000000  8.300000000000 bohr
              =  4.392170831297  4.392170831297  4.392170831297 angstroms
 prteigrs : about to open file t47o_EIG
 Fermi (or HOMO) energy (hartree) =  -0.10827   Average Vxc (hartree)=  -0.23493
 Eigenvalues (hartree) for nkpt=   1  k points:
 kpt#   1, nband= 30, wtk=  1.00000, kpt=  0.0000  0.0000  0.0000 (reduced coord)
  -0.86377  -0.34811  -0.34782  -0.34775  -0.17890  -0.11182  -0.11154   0.02220
   0.02227   0.02228   0.26341   0.26357   0.26361   0.31979   0.36058   0.36077
   0.36092   0.43073   0.43081   0.54081   0.54101   0.54119   0.55379   0.62080
   0.62081   0.69885   0.69893   0.70185   0.72975   0.75994
      occupation numbers for kpt#   1
   2.00000   1.99503   1.99500   1.99499   1.70789   1.04436   1.04090   0.07382
   0.07369   0.07367   0.00018   0.00018   0.00018   0.00005   0.00002   0.00002
   0.00002   0.00000   0.00000   0.00000   0.00000   0.00000   0.00000   0.00000
   0.00000   0.00000   0.00000   0.00000   0.00000   0.00000
 Total charge density [el/Bohr^3]
,     Maximum=    2.4683E-01  at reduced coord.    0.1333    0.0222    0.1333
,Next maximum=    2.4678E-01  at reduced coord.    0.1333    0.1333    0.0222
,     Minimum=    1.3813E-04  at reduced coord.    0.6222    0.6222    0.6222
,Next minimum=    1.3996E-04  at reduced coord.    0.6222    0.6222    0.6444
,  Integrated=    1.2000E+01

--------------------------------------------------------------------------------
 Components of total free energy (in Hartree) :

    Kinetic energy  =  1.04689859100433E+01
    Hartree energy  =  8.40634719232611E+00
    XC energy       = -4.54212880666778E+00
    Ewald energy    = -4.58898769514317E+00
    PspCore energy  = -4.40514525961018E-02
    Loc. psp. energy= -2.10557961234427E+01
    NL   psp  energy=  1.12352190050399E+00
    >>>>> Internal E= -1.02321090749764E+01

    -kT*entropy     = -1.86369767064741E-01
    >>>>>>>>> Etotal= -1.04184788420411E+01

 Other information on the energy :
    Total energy(eV)= -2.83501227008069E+02 ; Band energy (Ha)=  -4.3430086513E+00
--------------------------------------------------------------------------------

 Cartesian components of stress tensor (hartree/bohr^3)
  sigma(1 1)= -1.82593725E-03  sigma(3 2)= -4.93429006E-08
  sigma(2 2)= -1.82669557E-03  sigma(3 1)= -4.89907501E-07
  sigma(3 3)= -1.82560178E-03  sigma(2 1)= -7.68393917E-08

-Cartesian components of stress tensor (GPa)         [Pressure=  5.3725E+01 GPa]
- sigma(1 1)= -5.37209195E+01  sigma(3 2)= -1.45171801E-03
- sigma(2 2)= -5.37432301E+01  sigma(3 1)= -1.44135739E-02
- sigma(3 3)= -5.37110497E+01  sigma(2 1)= -2.26069257E-03

== END DATASET(S) ==============================================================
================================================================================
  
 -outvars: echo values of variables after computation  --------
            acell      8.3000000000E+00  8.3000000000E+00  8.3000000000E+00 Bohr
              amu      1.08110000E+01
           diemac      1.00000000E+00
           diemix      0.00000000E+00
             ecut      3.00000000E+01 Hartree
           etotal     -1.0418478842E+01
            fcart      4.9731204679E-01  4.9771037237E-01  4.9719922585E-01
                      -4.9691355800E-01 -4.9770799052E-01  4.9742266666E-01
                      -4.9779412432E-01  4.9719770887E-01 -4.9718502512E-01
                       4.9739563553E-01 -4.9720009073E-01 -4.9743686738E-01
-          fftalg         400
           iprcch           0
             iscf           2
           istwfk        2
           kptopt           0
P           mkmem           1
            natom           4
            nband          30
            ngfft          45      45      45
             nkpt           1
           nnsclo           1
            nstep           3
             nsym           1
           ntypat           1
              occ      2.000000  1.995035  1.994999  1.994991  1.707887  1.044359
                       1.040898  0.073817  0.073694  0.073669  0.000184  0.000184
                       0.000183  0.000045  0.000016  0.000016  0.000016  0.000003
                       0.000003  0.000000  0.000000  0.000000  0.000000  0.000000
                       0.000000  0.000000  0.000000  0.000000  0.000000  0.000000
           occopt           3
        optforces           1
           ortalg           1
          spgroup           1
           strten     -1.8259372496E-03 -1.8266955706E-03 -1.8256017816E-03
                      -4.9342900623E-08 -4.8990750097E-07 -7.6839391714E-08
           timopt          -1
           toldfe      1.00000000E-10 Hartree
            typat      1  1  1  1
              vel     -8.5723549732E-03  1.3251792816E-02 -1.6253198662E-03
                      -1.2969993806E-02 -1.4335594416E-03  2.6353558394E-02
                       8.0743069217E-03  1.7963174929E-02  8.6321196220E-03
                       1.2056695385E-02 -8.1323780165E-03  1.8671947893E-02
         wfoptalg           5
           xangst      4.2575617044E-04  2.8808188337E-04  6.8283504661E-04
                       1.0974840207E+00  1.0979533041E+00 -1.1864276920E-04
                       1.0980320795E+00  7.2335459812E-04  1.0977928343E+00
                      -2.3747256388E-04  1.0974237488E+00  1.0985191591E+00
            xcart      8.0456256151E-04  5.4439586341E-04  1.2903712320E-03
                       2.0739442344E+00  2.0748310514E+00 -2.2420234144E-04
                       2.0749799153E+00  1.3669420874E-03  2.0745278075E+00
                      -4.4875810981E-04  2.0738303370E+00  2.0759003624E+00
             xred      9.6935248375E-05  6.5589863062E-05  1.5546641350E-04
                       2.4987279933E-01  2.4997964475E-01 -2.7012330294E-05
                       2.4999758016E-01  1.6469181776E-04  2.4994310934E-01
                      -5.4067242146E-05  2.4985907675E-01  2.5010847740E-01
            znucl        5.00000

================================================================================

 Test the timer : 
  a combined call timab(*,1,tsec) + timab(*,2,tsec) is 
- CPU time =    8.0160E-07 sec,    Wall time =    7.9882E-07 sec

- Total cpu        time (s,m,h):          8.2        0.14      0.002
- Total wall clock time (s,m,h):          8.3        0.14      0.002
-
- For major independent code sections, cpu and wall times (sec),
-  as well as % of the time and number of calls for node 0-
-<BEGIN_TIMER mpi_nprocs = 1, omp_nthreads = 1, mpi_rank = 0>
- cpu_time =            8.2, wall_time =            8.3
-
- routine                        cpu     %       wall     %      number of calls  Gflops 
-                                                                  (-1=no count)
- vtowfk(ssdiag)                 7.247  88.0      7.264  87.8             -1      -1.00    
- fourwf%(pot)                   6.312  76.6      6.331  76.5            366      -1.00    
- fourwf%(den)                   0.485   5.9      0.484   5.8             74      -1.00    
- invars2                        0.118   1.4      0.118   1.4              1      -1.00    
- timing timab                   0.104   1.3      0.104   1.3             13      -1.00    
- nonlop(apply)                  0.073   0.9      0.068   0.8            366      -1.00    
- getghc-other                   0.058   0.7      0.052   0.6             -1      -1.00    
- fourdp                         0.044   0.5      0.046   0.6              9      -1.00    
- xc:pot/=fourdp                 0.030   0.4      0.031   0.4              4      -1.00    
- abinit(2)                      0.028   0.3      0.028   0.3              1      -1.00    
- forces                         0.011   0.1      0.012   0.1              3      -1.00    
- stress                         0.010   0.1      0.010   0.1              1      -1.00    
- nonlop(forces)                 0.009   0.1      0.009   0.1             90      -1.00    
- ewald                          0.007   0.1      0.006   0.1              1      -1.00    
- newkpt(excl. rwwf   )          0.007   0.1      0.006   0.1             -1      -1.00    
- ewald2 (+vdw_dftd2)            0.004   0.0      0.004   0.0              1      -1.00    
- mkrho/=                        0.004   0.0      0.006   0.1              6      -1.00    
- nonlop(forstr)                 0.003   0.0      0.004   0.0             25      -1.00    
- vtowfk(contrib)                0.002   0.0      0.001   0.0              3      -1.00    
- scfcv-scprqt                   0.001   0.0      0.000   0.0              3      -1.00    
- pspini                         0.001   0.0      0.001   0.0              1      -1.00    
- kpgsph                         0.000   0.0      0.000   0.0              2      -1.00    
- vtowfk  (1)                    0.000   0.0      0.000   0.0              3      -1.00    
- status                         0.000   0.0      0.000   0.0             24      -1.00    
- vtowfk3(contrib)               0.000   0.0      0.000   0.0             -1      -1.00    
- cgwf3-O(npw)                   0.000   0.0      0.000   0.0             -1      -1.00    
- inwffil(excl. calls)           0.000   0.0      0.000   0.0              1      -1.00    
- vtorho(MPI)                    0.000   0.0      0.000   0.0              3      -1.00    
- others (77)                    0.000   0.0      0.000   0.0             -1      -1.00    
-<END_TIMER>
-
- subtotal                      14.558 176.8     14.584 176.3

- For major independent code sections, cpu and wall times (sec),
- as well as % of the total time and number of calls 

-<BEGIN_TIMER mpi_nprocs = 1, omp_nthreads = 1, mpi_rank = world>
- cpu_time =           8.2, wall_time =           8.3
-
- routine                         cpu     %       wall     %      number of calls Gflops 
-                                                                  (-1=no count)
- vtowfk(ssdiag)                 7.247  88.0      7.264  87.8             -1      -1.00    
- fourwf%(pot)                   6.312  76.6      6.331  76.5            366      -1.00    
- fourwf%(den)                   0.485   5.9      0.484   5.8             74      -1.00    
- invars2                        0.118   1.4      0.118   1.4              1      -1.00    
- timing timab                   0.104   1.3      0.104   1.3             13      -1.00    
- nonlop(apply)                  0.073   0.9      0.068   0.8            366      -1.00    
- getghc-other                   0.058   0.7      0.052   0.6             -1      -1.00    
- fourdp                         0.044   0.5      0.046   0.6              9      -1.00    
- xc:pot/=fourdp                 0.030   0.4      0.031   0.4              4      -1.00    
- abinit(2)                      0.028   0.3      0.028   0.3              1      -1.00    
- forces                         0.011   0.1      0.012   0.1              3      -1.00    
- stress                         0.010   0.1      0.010   0.1              1      -1.00    
- nonlop(forces)                 0.009   0.1      0.009   0.1             90      -1.00    
- ewald                          0.007   0.1      0.006   0.1              1      -1.00    
- newkpt(excl. rwwf   )          0.007   0.1      0.006   0.1             -1      -1.00    
- ewald2 (+vdw_dftd2)            0.004   0.0      0.004   0.0              1      -1.00    
- mkrho/=                        0.004   0.0      0.006   0.1              6      -1.00    
- nonlop(forstr)                 0.003   0.0      0.004   0.0             25      -1.00    
- vtowfk(contrib)                0.002   0.0      0.001   0.0              3      -1.00    
- scfcv-scprqt                   0.001   0.0      0.000   0.0              3      -1.00    
- pspini                         0.001   0.0      0.001   0.0              1      -1.00    
- kpgsph                         0.000   0.0      0.000   0.0              2      -1.00    
- vtowfk  (1)                    0.000   0.0      0.000   0.0              3      -1.00    
- status                         0.000   0.0      0.000   0.0             24      -1.00    
- vtowfk3(contrib)               0.000   0.0      0.000   0.0             -1      -1.00    
- cgwf3-O(npw)                   0.000   0.0      0.000   0.0             -1      -1.00    
- inwffil(excl. calls)           0.000   0.0      0.000   0.0              1      -1.00    
- vtorho(MPI)                    0.000   0.0      0.000   0.0              3      -1.00    
- others (77)                    0.000   0.0      0.000   0.0             -1      -1.00    
-<END_TIMER>

- subtotal                      14.558 176.8     14.584 176.3

 Partitioning of abinit
- abinit                         8.236 100.0      8.271 100.0              1
 
- abinit(1)                      0.011   0.1      0.012   0.1              1
- abinit(2)                      0.028   0.3      0.028   0.3              1
- indefo+macroin+invars2m        0.118   1.4      0.118   1.4              1
- abinit(4)                      0.011   0.1      0.011   0.1              1
- abinit(5)                      0.007   0.1      0.007   0.1              1
- driver                         7.954  96.6      7.988  96.6              1
- abinit(6)                      0.003   0.0      0.003   0.0              1
- timing timab                   0.104   1.3      0.104   1.3             13

- subtotal                       8.236 100.0      8.271 100.0

 Partitioning of driver
- driver                         7.954  96.6      7.988  96.6              1
 
- gstateimg                      7.954  96.6      7.988  96.6              1

- subtotal                       7.954  96.6      7.988  96.6

 Partitioning of gstateimg+gstate
- gstateimg                      7.954  96.6      7.988  96.6              1
 
- gstate->kpgsph                 0.007   0.1      0.007   0.1              2
- gstate  (2)                    0.009   0.1      0.010   0.1              1
- gstate(...scfcv)               7.930  96.3      7.957  96.2              1
- gstate  (3)                    0.007   0.1      0.014   0.2              1

- subtotal                       7.954  96.6      7.988  96.6

 Partitioning of scfcv
- scfcv                          7.929  96.3      7.956  96.2              1
 
- scfcv(iniloop, setvtr  )       0.029   0.4      0.029   0.4              3
- scfcv(vtorho(f))               7.810  94.8      7.827  94.6              3
- scfcv(etotfor)                 0.011   0.1      0.012   0.1              6
- scfcv(rhotov)                  0.050   0.6      0.049   0.6              3
- scfcv(mix pot)                 0.008   0.1      0.008   0.1              3
- scfcv(afterscfloop)            0.015   0.2      0.016   0.2              1
- scfcv(outscfcv)                0.005   0.1      0.015   0.2              1

- subtotal                       7.929  96.3      7.956  96.2

 Partitioning of rhotov
- rhotov                         0.050   0.6      0.049   0.6              3
 
- rhotov(rhohxc)                 0.041   0.5      0.042   0.5              3
- rhotov(other)                  0.006   0.1      0.006   0.1              3

- subtotal                       0.050   0.6      0.049   0.6

 Partitioning of vtorho
- vtorho                         7.810  94.8      7.827  94.6              3
 
- vtowfk                         7.258  88.1      7.274  87.9              3
- vtorho(newocc)                 0.039   0.5      0.039   0.5              3
- vtorho(mkrho 1)                0.505   6.1      0.506   6.1              3
- vtorho(mkrho 2)                0.003   0.0      0.002   0.0              3

- subtotal                       7.810  94.8      7.827  94.6

 Partitioning of vtowfk
- vtowfk                         7.258  88.1      7.274  87.9              3
 
- vtowfk(subdiago)               0.019   0.2      0.018   0.2              3
- vtowfk(pw_orthon)              0.013   0.2      0.014   0.2              3
- vtowfk(2)                      7.215  87.6      7.232  87.4             -1
- nonlop%vtowfk                  0.009   0.1      0.009   0.1             90

- subtotal                       7.258  88.1      7.274  87.9

 Partitioning of getghc
- getghc                         6.443  78.2      6.451  78.0            366
 
- fourwf%getghc                  6.312  76.6      6.331  76.5            366
- nonlop%getghc                  0.073   0.9      0.068   0.8            366
- getghc-other                   0.058   0.7      0.052   0.6             -1

- subtotal                       6.443  78.2      6.451  78.0

 Partitioning of fourwf (upwards partitioning)
- fourwf                         6.797  82.5      6.815  82.4            440
 
- fourwf%getghc                  6.312  76.6      6.331  76.5            366
- fourwf%mkrho                   0.485   5.9      0.484   5.8             74

- subtotal                       6.797  82.5      6.815  82.4

 Partitioning of mkrho (upwards partitioning)
- mkrho                          0.505   6.1      0.506   6.1              3
 
- mkrho%vtorho                   0.505   6.1      0.506   6.1              3

- subtotal                       0.505   6.1      0.506   6.1

 Partitioning of inwffil
- inwffil                        0.007   0.1      0.006   0.1              1
 
- inwffil(call newkpt)           0.007   0.1      0.006   0.1              1

- subtotal                       0.007   0.1      0.006   0.1

 Partitioning of newkpt
- newkpt                         0.007   0.1      0.006   0.1              1
 
- newkpt(call wfconv)            0.006   0.1      0.006   0.1              1

- subtotal                       0.007   0.1      0.006   0.1

 Partitioning of newvtr
- newvtr                         0.008   0.1      0.008   0.1              3
 
- newvtr(aft. prcref_PMA)        0.004   0.0      0.004   0.0              3
- (other)                        0.002   0.0      0.002   0.0             -1

- subtotal                       0.008   0.1      0.008   0.1

 Partitioning of  fourdp (upwards partitioning)
- fourdp                         0.044   0.5      0.046   0.6              9
 
- fourdp%(other)                 0.044   0.5      0.046   0.6              9

- subtotal                       0.044   0.5      0.046   0.6

 Partitioning of afterscfloop
- afterscfloop                   0.015   0.2      0.016   0.2              1
 
- afterscfloop(forstr)           0.015   0.2      0.016   0.2              1

- subtotal                       0.015   0.2      0.016   0.2

 Partitioning of forstr
- forstr                         0.015   0.2      0.016   0.2              1
 
- forstr(forstrnps)              0.005   0.1      0.005   0.1              1
- forstr(stress)                 0.010   0.1      0.010   0.1              1

- subtotal                       0.015   0.2      0.016   0.2

 Partitioning of forstrnps
- forstrnps                      0.005   0.1      0.005   0.1              1
 
- forstrnps(nonlop+prep_ba       0.004   0.0      0.004   0.0             25

- subtotal                       0.005   0.1      0.005   0.1

 Partitioning of outscfcv
- outscfcv                       0.005   0.1      0.015   0.2              1
 
- outscfcv([PAW]prtden)          0.004   0.0      0.014   0.2              1

- subtotal                       0.004   0.0      0.014   0.2
-
-Synchronisation (=leave_test) and MPI calls 
- communic.MPI                   0.001   0.0      0.001   0.0           1868
-
- forstrnps:synchr               0.000   0.0      0.000   0.0              1
- mkrho :MPIrhor                 0.000   0.0      0.000   0.0              3
-
- subtotal                       0.000   0.0      0.000   0.0

 Additional information
- timana(1)                      0.000   0.0      0.000   0.0              1
- total timab                    0.109   1.3      0.109   1.3         135876
- fourwf                         6.797  82.5      6.815  82.4            440
- mklocl(2)                      0.011   0.1      0.012   0.1              3
- status                         0.000   0.0      0.000   0.0             24
- newocc                         0.039   0.5      0.039   0.5              3
- nonlop(forstr)                 0.003   0.0      0.004   0.0             25
- nonlop(total)                  0.085   1.0      0.080   1.0            481


 Detailed analysis of some time consuming routines 
                                  tcpu    ncalls  tcpu/ncalls    ndata tcpu/ncalls/ndata
                                 (sec)                (msec)              (microsec)
- fourwf%(pot)                   6.312       366      17.246    182250       0.095
- fourwf%(den)                   0.485        74       6.553     91125       0.072
- fourdp                         0.044         9       4.888     91125       0.054
- nonlop(apply)                  0.073       366       0.199     17828       0.011
- nonlop(forces)                 0.009        90       0.100     17828       0.006
- nonlop(forstr)                 0.003        25       0.120     17828       0.007
- projbd                         0.000         0
- xc:pot/=fourdp                 0.030         4       7.499     91125       0.082

================================================================================

 Suggested references for the acknowledgment of ABINIT usage.

 The users of ABINIT have little formal obligations with respect to the ABINIT group
 (those specified in the GNU General Public License, http://www.gnu.org/copyleft/gpl.txt).
 However, it is common practice in the scientific literature,
 to acknowledge the efforts of people that have made the research possible.
 In this spirit, please find below suggested citations of work written by ABINIT developers,
 corresponding to implementations inside of ABINIT that you have used in the present run.
 Note also that it will be of great value to readers of publications presenting these results,
 to read papers enabling them to understand the theoretical formalism and details
 of the ABINIT implementation.
 For information on why they are suggested, see also http://www.abinit.org/about/?text=acknowledgments.

 [1] ABINIT : First-principles approach of materials and nanosystem properties.
 X. Gonze, B. Amadon, P.-M. Anglade, J.-M. Beuken, F. Bottin, P. Boulanger, F. Bruneval,
 D. Caliste, R. Caracas, M. Cote, T. Deutsch, L. Genovese, Ph. Ghosez, M. Giantomassi
 S. Goedecker, D.R. Hamann, P. Hermet, F. Jollet, G. Jomard, S. Leroux, M. Mancini, S. Mazevet,
 M.J.T. Oliveira, G. Onida, Y. Pouillon, T. Rangel, G.-M. Rignanese, D. Sangalli, R. Shaltaf,
 M. Torrent, M.J. Verstraete, G. Zerah, J.W. Zwanziger
 Computer Phys. Comm. 180, 2582-2615 (2009).
 Comment : the third generic paper describing the ABINIT project.
 Note that a version of this paper, that is not formatted for Computer Phys. Comm. 
 is available at http://www.abinit.org/about/ABINIT_CPC_v10.pdf .
 The licence allows the authors to put it on the Web.

 [2] A brief introduction to the ABINIT software package.
 X. Gonze, G.-M. Rignanese, M. Verstraete, J.-M. Beuken, Y. Pouillon, R. Caracas, F. Jollet,
 M. Torrent, G. Zerah, M. Mikami, Ph. Ghosez, M. Veithen, J.-Y. Raty, V. Olevano, F. Bruneval,
 L. Reining, R. Godby, G. Onida, D.R. Hamann, and D.C. Allan.
 Z. Kristallogr. 220, 558-562 (2005).
 Comment : the second generic paper describing the ABINIT project. Note that this paper
 should be cited especially if you are using the GW part of ABINIT, as several authors
 of this part are not in the list of authors of the first or third paper.
 The .pdf of the latter paper is available at http://www.abinit.org/about/zfk_0505-06_558-562.pdf.
 Note that it should not redistributed (Copyright by Oldenburg Wissenshaftverlag,
 the licence allows the authors to put it on the Web).


 And optionally :

 [3] First-principles computation of material properties : the ABINIT software project. 
 X. Gonze, J.-M. Beuken, R. Caracas, F. Detraux, M. Fuchs, G.-M. Rignanese, L. Sindic,
 M. Verstraete, G. Zerah, F. Jollet, M. Torrent, A. Roy, M. Mikami, Ph. Ghosez, J.-Y. Raty, D.C. Allan.
 Computational Materials Science 25, 478-492 (2002). http://dx.doi.org/10.1016/S0927-0256(02)00325-7
 Comment : the original paper describing the ABINIT project.

 [4] Fast radix 2, 3, 4 and 5 kernels for Fast Fourier Transformations
 on computers with overlapping multiply-add instructions.
 S. Goedecker, SIAM J. on Scientific Computing 18, 1605 (1997).
-
- Proc.   0 individual time (sec): cpu=          8.2  wall=          8.3

================================================================================

 Calculation completed.
.Delivered    1 WARNINGs and   4 COMMENTs to log file.
+Overall time at end (sec) : cpu=          8.2  wall=          8.3
