
.Version 7.9.3 of ABINIT 
.(MPI version, prepared for a x86_64_linux_gnu4.7 computer) 

.Copyright (C) 1998-2014 ABINIT group . 
 ABINIT comes with ABSOLUTELY NO WARRANTY.
 It is free software, and you are welcome to redistribute it
 under certain conditions (GNU General Public License,
 see ~abinit/COPYING or http://www.gnu.org/copyleft/gpl.txt).

 ABINIT is a project of the Universite Catholique de Louvain,
 Corning Inc. and other collaborators, see ~abinit/doc/developers/contributors.txt .
 Please read ~abinit/doc/users/acknowledgments.html for suggested
 acknowledgments of the ABINIT effort.
 For more information, see http://www.abinit.org .

.Starting date : Sat 30 Aug 2014.
- ( at 22h38 )
  
- input  file    -> t68.in
- output file    -> t68.out
- root for input  files -> t68i
- root for output files -> t68o


 DATASET    1 : magnetic group, Shubnikov type IV
 Fedorov space group Pm -3 m (#221)
 Magnetic Bravais lattice cP_I (primitive cubic, inner magnetic, #33)
================================================================================
 Values of the parameters that define the memory need for DATASET  1.
   intxc =         0  ionmov =         0    iscf =         7 xclevel =         1
  lmnmax =         1   lnmax =         1   mband =        25  mffmem =         1
P  mgfft =        18   mkmem =         4 mpssoang=         1     mpw =       296
  mqgrid =      3001   natom =         2    nfft =      5832    nkpt =         4
  nloalg =         4  nspden =         2 nspinor =         1  nsppol =         1
    nsym =        96  n1xccc =         0  ntypat =         1  occopt =         1
================================================================================
P This job should need less than                       3.568 Mbytes of memory.
  Rough estimation (10% accuracy) of disk space for files :
_ WF disk file :      0.454 Mbytes ; DEN or POT disk file :      0.046 Mbytes.
================================================================================


 DATASET    2 : magnetic group, Shubnikov type IV
 Fedorov space group Pm -3 m (#221)
 Magnetic Bravais lattice cP_I (primitive cubic, inner magnetic, #33)
================================================================================
 Values of the parameters that define the memory need for DATASET  2.
   intxc =         0  ionmov =         0    iscf =         7 xclevel =         1
  lmnmax =         1   lnmax =         1   mband =        20  mffmem =         1
P  mgfft =        16   mkmem =         4 mpssoang=         1     mpw =       280
  mqgrid =      3001   natom =         2    nfft =      4096    nkpt =         4
  nloalg =         4  nspden =         2 nspinor =         1  nsppol =         1
    nsym =        96  n1xccc =         0  ntypat =         1  occopt =         1
================================================================================
P This job should need less than                       2.671 Mbytes of memory.
  Rough estimation (10% accuracy) of disk space for files :
_ WF disk file :      0.344 Mbytes ; DEN or POT disk file :      0.033 Mbytes.
================================================================================


 DATASET    3 : magnetic group, Shubnikov type IV
 Fedorov space group Pm -3 m (#221)
 Magnetic Bravais lattice cP_I (primitive cubic, inner magnetic, #33)
================================================================================
 Values of the parameters that define the memory need for DATASET  3.
   intxc =         0  ionmov =         0    iscf =         7 xclevel =         1
  lmnmax =         1   lnmax =         1   mband =        20  mffmem =         1
P  mgfft =        16   mkmem =         4 mpssoang=         1     mpw =       280
  mqgrid =      3001   natom =         2    nfft =      4096    nkpt =         4
  nloalg =         4  nspden =         2 nspinor =         1  nsppol =         1
    nsym =        96  n1xccc =         0  ntypat =         1  occopt =         1
================================================================================
P This job should need less than                       2.671 Mbytes of memory.
  Rough estimation (10% accuracy) of disk space for files :
_ WF disk file :      0.344 Mbytes ; DEN or POT disk file :      0.033 Mbytes.
================================================================================

--------------------------------------------------------------------------------
------------- Echo of variables that govern the present computation ------------
--------------------------------------------------------------------------------
-
- outvars: echo of selected default values                                      
-   accesswff0 =  0 , fftalg0 =112 , wfoptalg0 =  0
-
- outvars: echo of global parameters not present in the input file              
-  max_nthreads =    0
-
 -outvars: echo values of preprocessed input variables --------
            acell      5.2805547473E+00  5.2805547473E+00  5.2805547473E+00 Bohr
              amu      1.00794000E+00
             awtr1          1
             awtr2          0
             awtr3          1
             bdgw           1       2       1       2       1       2
           diemac      1.20000000E+01
             ecut1     1.20000000E+01 Hartree
             ecut2     1.13263669E+01 Hartree
             ecut3     1.13263669E+01 Hartree
          ecuteps1     0.00000000E+00 Hartree
          ecuteps2     4.24738757E+00 Hartree
          ecuteps3     4.24738757E+00 Hartree
         ecutsigx1     0.00000000E+00 Hartree
         ecutsigx2     0.00000000E+00 Hartree
         ecutsigx3     8.49477515E+00 Hartree
          ecutwfn1     1.20000000E+01 Hartree
          ecutwfn2     1.13263669E+01 Hartree
          ecutwfn3     1.13263669E+01 Hartree
           enunit           2
-          fftalg         112
            fftgw          11
           getkss1          0
           getkss2          1
           getkss3          1
           getscr1          0
           getscr2          0
           getscr3          2
         icutcoul1          6
         icutcoul2          6
         icutcoul3          3
          inclvkb1          1
          inclvkb2          0
          inclvkb3          1
           jdtset        1    2    3
              kpt      1.25000000E-01  1.25000000E-01  1.25000000E-01
                       3.75000000E-01  1.25000000E-01  1.25000000E-01
                       3.75000000E-01  3.75000000E-01  1.25000000E-01
                       3.75000000E-01  3.75000000E-01  3.75000000E-01
            kptgw      1.25000000E-01  1.25000000E-01  1.25000000E-01
                       3.75000000E-01  3.75000000E-01  1.25000000E-01
                       3.75000000E-01  3.75000000E-01  3.75000000E-01
         kptrlatt        4    0    0      0    4    0      0    0    4
          kptrlen      2.11222190E+01
          kssform1          3
          kssform2          1
          kssform3          1
P           mkmem           4
            natom           2
            nband1         25
            nband2         20
            nband3         20
         nbandkss1         20
         nbandkss2          0
         nbandkss3          0
           nbdbuf1          5
           nbdbuf2          0
           nbdbuf3          0
           ndtset           3
            ngfft1         18      18      18
            ngfft2         16      16      16
            ngfft3         16      16      16
             nkpt           4
           nkptgw           3
           npweps1          0
           npweps2         81
           npweps3         81
          npwsigx1          0
          npwsigx2          0
          npwsigx3        179
           npwwfn1          0
           npwwfn2        257
           npwwfn3        257
           nsheps1          0
           nsheps2          7
           nsheps3          7
          nshsigx1          0
          nshsigx2          0
          nshsigx3         13
           nspden           2
            nstep          20
             nsym          96
           ntypat           1
              occ1     2.000000  0.000000  0.000000  0.000000  0.000000  0.000000
                       0.000000  0.000000  0.000000  0.000000  0.000000  0.000000
                       0.000000  0.000000  0.000000  0.000000  0.000000  0.000000
                       0.000000  0.000000  0.000000  0.000000  0.000000  0.000000
                       0.000000
              occ2     2.000000  0.000000  0.000000  0.000000  0.000000  0.000000
                       0.000000  0.000000  0.000000  0.000000  0.000000  0.000000
                       0.000000  0.000000  0.000000  0.000000  0.000000  0.000000
                       0.000000  0.000000
              occ3     2.000000  0.000000  0.000000  0.000000  0.000000  0.000000
                       0.000000  0.000000  0.000000  0.000000  0.000000  0.000000
                       0.000000  0.000000  0.000000  0.000000  0.000000  0.000000
                       0.000000  0.000000
        optdriver1          0
        optdriver2          3
        optdriver3          4
        prtdensph           1
           prtvol           1
           shiftk      5.00000000E-01  5.00000000E-01  5.00000000E-01
          spgroup         221
           spinat      0.0000000000E+00  0.0000000000E+00  1.0000000000E+00
                       0.0000000000E+00  0.0000000000E+00 -1.0000000000E+00
           symafm        1   -1    1   -1    1   -1    1   -1    1   -1
                         1   -1    1   -1    1   -1    1   -1    1   -1
                         1   -1    1   -1    1   -1    1   -1    1   -1
                         1   -1    1   -1    1   -1    1   -1    1   -1
                         1   -1    1   -1    1   -1    1   -1    1   -1
                         1   -1    1   -1    1   -1    1   -1    1   -1
                         1   -1    1   -1    1   -1    1   -1    1   -1
                         1   -1    1   -1    1   -1    1   -1    1   -1
                         1   -1    1   -1    1   -1    1   -1    1   -1
                         1   -1    1   -1    1   -1
           symchi1       0
           symchi2       1
           symchi3       0
           symrel      1  0  0   0  1  0   0  0  1       1  0  0   0  1  0   0  0  1
                      -1  0  0   0 -1  0   0  0 -1      -1  0  0   0 -1  0   0  0 -1
                      -1  0  0   0  1  0   0  0 -1      -1  0  0   0  1  0   0  0 -1
                       1  0  0   0 -1  0   0  0  1       1  0  0   0 -1  0   0  0  1
                      -1  0  0   0 -1  0   0  0  1      -1  0  0   0 -1  0   0  0  1
                       1  0  0   0  1  0   0  0 -1       1  0  0   0  1  0   0  0 -1
                       1  0  0   0 -1  0   0  0 -1       1  0  0   0 -1  0   0  0 -1
                      -1  0  0   0  1  0   0  0  1      -1  0  0   0  1  0   0  0  1
                       0  1  0   1  0  0   0  0  1       0  1  0   1  0  0   0  0  1
                       0 -1  0  -1  0  0   0  0 -1       0 -1  0  -1  0  0   0  0 -1
                       0 -1  0   1  0  0   0  0 -1       0 -1  0   1  0  0   0  0 -1
                       0  1  0  -1  0  0   0  0  1       0  1  0  -1  0  0   0  0  1
                       0 -1  0  -1  0  0   0  0  1       0 -1  0  -1  0  0   0  0  1
                       0  1  0   1  0  0   0  0 -1       0  1  0   1  0  0   0  0 -1
                       0  1  0  -1  0  0   0  0 -1       0  1  0  -1  0  0   0  0 -1
                       0 -1  0   1  0  0   0  0  1       0 -1  0   1  0  0   0  0  1
                       0  0  1   1  0  0   0  1  0       0  0  1   1  0  0   0  1  0
                       0  0 -1  -1  0  0   0 -1  0       0  0 -1  -1  0  0   0 -1  0
                       0  0 -1   1  0  0   0 -1  0       0  0 -1   1  0  0   0 -1  0
                       0  0  1  -1  0  0   0  1  0       0  0  1  -1  0  0   0  1  0
                       0  0 -1  -1  0  0   0  1  0       0  0 -1  -1  0  0   0  1  0
                       0  0  1   1  0  0   0 -1  0       0  0  1   1  0  0   0 -1  0
                       0  0  1  -1  0  0   0 -1  0       0  0  1  -1  0  0   0 -1  0
                       0  0 -1   1  0  0   0  1  0       0  0 -1   1  0  0   0  1  0
                       1  0  0   0  0  1   0  1  0       1  0  0   0  0  1   0  1  0
                      -1  0  0   0  0 -1   0 -1  0      -1  0  0   0  0 -1   0 -1  0
                      -1  0  0   0  0  1   0 -1  0      -1  0  0   0  0  1   0 -1  0
                       1  0  0   0  0 -1   0  1  0       1  0  0   0  0 -1   0  1  0
                      -1  0  0   0  0 -1   0  1  0      -1  0  0   0  0 -1   0  1  0
                       1  0  0   0  0  1   0 -1  0       1  0  0   0  0  1   0 -1  0
                       1  0  0   0  0 -1   0 -1  0       1  0  0   0  0 -1   0 -1  0
                      -1  0  0   0  0  1   0  1  0      -1  0  0   0  0  1   0  1  0
                       0  1  0   0  0  1   1  0  0       0  1  0   0  0  1   1  0  0
                       0 -1  0   0  0 -1  -1  0  0       0 -1  0   0  0 -1  -1  0  0
                       0 -1  0   0  0  1  -1  0  0       0 -1  0   0  0  1  -1  0  0
                       0  1  0   0  0 -1   1  0  0       0  1  0   0  0 -1   1  0  0
                       0 -1  0   0  0 -1   1  0  0       0 -1  0   0  0 -1   1  0  0
                       0  1  0   0  0  1  -1  0  0       0  1  0   0  0  1  -1  0  0
                       0  1  0   0  0 -1  -1  0  0       0  1  0   0  0 -1  -1  0  0
                       0 -1  0   0  0  1   1  0  0       0 -1  0   0  0  1   1  0  0
                       0  0  1   0  1  0   1  0  0       0  0  1   0  1  0   1  0  0
                       0  0 -1   0 -1  0  -1  0  0       0  0 -1   0 -1  0  -1  0  0
                       0  0 -1   0  1  0  -1  0  0       0  0 -1   0  1  0  -1  0  0
                       0  0  1   0 -1  0   1  0  0       0  0  1   0 -1  0   1  0  0
                       0  0 -1   0 -1  0   1  0  0       0  0 -1   0 -1  0   1  0  0
                       0  0  1   0  1  0  -1  0  0       0  0  1   0  1  0  -1  0  0
                       0  0  1   0 -1  0  -1  0  0       0  0  1   0 -1  0  -1  0  0
                       0  0 -1   0  1  0   1  0  0       0  0 -1   0  1  0   1  0  0
         symsigma1       0
         symsigma2       0
         symsigma3       1
            tnons      0.0000000  0.0000000  0.0000000     0.5000000  0.5000000  0.5000000
                       0.0000000  0.0000000  0.0000000     0.5000000  0.5000000  0.5000000
                       0.0000000  0.0000000  0.0000000     0.5000000  0.5000000  0.5000000
                       0.0000000  0.0000000  0.0000000     0.5000000  0.5000000  0.5000000
                       0.0000000  0.0000000  0.0000000     0.5000000  0.5000000  0.5000000
                       0.0000000  0.0000000  0.0000000     0.5000000  0.5000000  0.5000000
                       0.0000000  0.0000000  0.0000000     0.5000000  0.5000000  0.5000000
                       0.0000000  0.0000000  0.0000000     0.5000000  0.5000000  0.5000000
                       0.0000000  0.0000000  0.0000000     0.5000000  0.5000000  0.5000000
                       0.0000000  0.0000000  0.0000000     0.5000000  0.5000000  0.5000000
                       0.0000000  0.0000000  0.0000000     0.5000000  0.5000000  0.5000000
                       0.0000000  0.0000000  0.0000000     0.5000000  0.5000000  0.5000000
                       0.0000000  0.0000000  0.0000000     0.5000000  0.5000000  0.5000000
                       0.0000000  0.0000000  0.0000000     0.5000000  0.5000000  0.5000000
                       0.0000000  0.0000000  0.0000000     0.5000000  0.5000000  0.5000000
                       0.0000000  0.0000000  0.0000000     0.5000000  0.5000000  0.5000000
                       0.0000000  0.0000000  0.0000000     0.5000000  0.5000000  0.5000000
                       0.0000000  0.0000000  0.0000000     0.5000000  0.5000000  0.5000000
                       0.0000000  0.0000000  0.0000000     0.5000000  0.5000000  0.5000000
                       0.0000000  0.0000000  0.0000000     0.5000000  0.5000000  0.5000000
                       0.0000000  0.0000000  0.0000000     0.5000000  0.5000000  0.5000000
                       0.0000000  0.0000000  0.0000000     0.5000000  0.5000000  0.5000000
                       0.0000000  0.0000000  0.0000000     0.5000000  0.5000000  0.5000000
                       0.0000000  0.0000000  0.0000000     0.5000000  0.5000000  0.5000000
                       0.0000000  0.0000000  0.0000000     0.5000000  0.5000000  0.5000000
                       0.0000000  0.0000000  0.0000000     0.5000000  0.5000000  0.5000000
                       0.0000000  0.0000000  0.0000000     0.5000000  0.5000000  0.5000000
                       0.0000000  0.0000000  0.0000000     0.5000000  0.5000000  0.5000000
                       0.0000000  0.0000000  0.0000000     0.5000000  0.5000000  0.5000000
                       0.0000000  0.0000000  0.0000000     0.5000000  0.5000000  0.5000000
                       0.0000000  0.0000000  0.0000000     0.5000000  0.5000000  0.5000000
                       0.0000000  0.0000000  0.0000000     0.5000000  0.5000000  0.5000000
                       0.0000000  0.0000000  0.0000000     0.5000000  0.5000000  0.5000000
                       0.0000000  0.0000000  0.0000000     0.5000000  0.5000000  0.5000000
                       0.0000000  0.0000000  0.0000000     0.5000000  0.5000000  0.5000000
                       0.0000000  0.0000000  0.0000000     0.5000000  0.5000000  0.5000000
                       0.0000000  0.0000000  0.0000000     0.5000000  0.5000000  0.5000000
                       0.0000000  0.0000000  0.0000000     0.5000000  0.5000000  0.5000000
                       0.0000000  0.0000000  0.0000000     0.5000000  0.5000000  0.5000000
                       0.0000000  0.0000000  0.0000000     0.5000000  0.5000000  0.5000000
                       0.0000000  0.0000000  0.0000000     0.5000000  0.5000000  0.5000000
                       0.0000000  0.0000000  0.0000000     0.5000000  0.5000000  0.5000000
                       0.0000000  0.0000000  0.0000000     0.5000000  0.5000000  0.5000000
                       0.0000000  0.0000000  0.0000000     0.5000000  0.5000000  0.5000000
                       0.0000000  0.0000000  0.0000000     0.5000000  0.5000000  0.5000000
                       0.0000000  0.0000000  0.0000000     0.5000000  0.5000000  0.5000000
                       0.0000000  0.0000000  0.0000000     0.5000000  0.5000000  0.5000000
                       0.0000000  0.0000000  0.0000000     0.5000000  0.5000000  0.5000000
           tolwfr1     1.00000000E-10
           tolwfr2     0.00000000E+00
           tolwfr3     0.00000000E+00
            typat      1  1
              wtk        0.12500    0.37500    0.37500    0.12500
           xangst      0.0000000000E+00  0.0000000000E+00  0.0000000000E+00
                       1.3971746105E+00  1.3971746105E+00  1.3971746105E+00
            xcart      0.0000000000E+00  0.0000000000E+00  0.0000000000E+00
                       2.6402773737E+00  2.6402773737E+00  2.6402773737E+00
             xred      0.0000000000E+00  0.0000000000E+00  0.0000000000E+00
                       5.0000000000E-01  5.0000000000E-01  5.0000000000E-01
            znucl        1.00000

================================================================================

 chkinp: Checking input parameters for consistency, jdtset=   1.

 chkinp: Checking input parameters for consistency, jdtset=   2.

 chkinp: Checking input parameters for consistency, jdtset=   3.

================================================================================
== DATASET  1 ==================================================================
-   nproc =    1

 Exchange-correlation functional for the present dataset will be:
  LDA: new Teter (4/93) with spin-polarized option - ixc=1
 Citation for XC functional:
  S. Goedecker, M. Teter, J. Huetter, PRB 54, 1703 (1996)

 Real(R)+Recip(G) space primitive vectors, cartesian coordinates (Bohr,Bohr^-1):
 R(1)=  5.2805547  0.0000000  0.0000000  G(1)=  0.1893740  0.0000000  0.0000000
 R(2)=  0.0000000  5.2805547  0.0000000  G(2)=  0.0000000  0.1893740  0.0000000
 R(3)=  0.0000000  0.0000000  5.2805547  G(3)=  0.0000000  0.0000000  0.1893740
 Unit cell volume ucvol=  1.4724435E+02 bohr^3
 Angles (23,13,12)=  9.00000000E+01  9.00000000E+01  9.00000000E+01 degrees

 getcut: wavevector=  0.0000  0.0000  0.0000  ngfft=  18  18  18
         ecut(hartree)=     12.000   => boxcut(ratio)=   2.18593

--- Pseudopotential description ------------------------------------------------
- pspini: atom type   1  psp file is /home/gonze/ABINIT/ABINITv7.9.3/trunk/7.9.3-private/tests/Psps_for_tests/1h.pspnc
- pspatm: opening atomic psp file    /home/gonze/ABINIT/ABINITv7.9.3/trunk/7.9.3-private/tests/Psps_for_tests/1h.pspnc
-  Troullier-Martins psp for element  H         Thu Oct 27 17:28:54 EDT 1994
-  1.00000   1.00000    940714                znucl, zion, pspdat
    1    1    0    0      2001   0.00000      pspcod,pspxc,lmax,lloc,mmax,r2well
    0   7.740  11.990    0   1.5855604        l,e99.0,e99.9,nproj,rcpsp
   0.00000000   0.00000000   0.00000000   0.00000000     rms, ekb1, ekb2, epsatm
    0.00000000000000    0.00000000000000    0.00000000000000   rchrg,fchrg,qchrg
 Note: local psp for atom with Z=  1.0
 pspatm: epsatm=    0.04198703
         --- l  ekb(1:nproj) -->
 pspatm: atomic psp has been read  and splines computed

   1.67948119E-01                                ecore*ucvol(ha*bohr**3)
--------------------------------------------------------------------------------

P newkpt: treating     25 bands with npw=     284 for ikpt=   1 by node    0
P newkpt: treating     25 bands with npw=     296 for ikpt=   2 by node    0
P newkpt: treating     25 bands with npw=     288 for ikpt=   3 by node    0
P newkpt: treating     25 bands with npw=     296 for ikpt=   4 by node    0

_setup2: Arith. and geom. avg. npw (full set) are     291.500     291.463

================================================================================

     iter   Etot(hartree)      deltaE(h)  residm     vres2
 ETOT  1 -0.98907581364404    -9.891E-01 3.157E-03 1.114E+01
 ETOT  2 -0.99241101206843    -3.335E-03 1.118E-07 2.096E+00
 ETOT  3 -0.99425689320796    -1.846E-03 5.098E-04 2.793E-01
 ETOT  4 -0.99472882857678    -4.719E-04 2.238E-04 5.899E-03
 ETOT  5 -0.99473983945398    -1.101E-05 7.461E-06 4.690E-06
 ETOT  6 -0.99473984609266    -6.639E-09 2.281E-09 5.505E-08
 ETOT  7 -0.99473984623502    -1.424E-10 5.936E-11 8.565E-10

 At SCF step    7   max residual=  5.94E-11 < tolwfr=  1.00E-10 =>converged.

 Cartesian components of stress tensor (hartree/bohr^3)
  sigma(1 1)=  3.94634835E-04  sigma(3 2)=  0.00000000E+00
  sigma(2 2)=  3.94634835E-04  sigma(3 1)=  0.00000000E+00
  sigma(3 3)=  3.94634835E-04  sigma(2 1)=  0.00000000E+00


 Integrated total density in atomic spheres:
 -------------------------------------------
 Atom  Sphere radius  Integrated_up_density  Integrated_dn_density  Total(up+dn)   Diff(up-dn)
    1        2.00000             0.59085317             0.14420429    0.73505746    0.44664888
    2        2.00000             0.14420429             0.59085317    0.73505746   -0.44664888
 Note: Diff(up-dn) can be considered as a rough approximation of a local magnetic moment.



======================================================================
 Calculating and writing out Kohn-Sham electronic Structure file
 Using conjugate gradient wavefunctions and energies (kssform=3)
 number of Gamma centered plane waves    461
 number of Gamma centered shells     24
 number of bands     20
 maximum angular momentum components      1
 Conjugate gradient eigenvalues
   k    eigenvalues [Hartree]
   1     -0.3032  0.0062  0.3550  0.3550  0.5626  0.5675  0.7146  0.7146  0.8790
          0.8790  1.0128  1.1516  1.1516  1.2534  1.2534  1.2820  1.3380  1.4595
          1.6061  1.6061
   2     -0.2308 -0.0822  0.2877  0.4071  0.4425  0.6195  0.6692  0.8021  0.8359
          0.9208  0.9773  1.0756  1.1149  1.2417  1.2809  1.4205  1.4568  1.5518
          1.6230  1.6410
   3     -0.1704 -0.0618  0.1803  0.2541  0.4609  0.5838  0.7083  0.7794  0.8382
          0.9197  1.0589  1.1314  1.1862  1.2408  1.3263  1.3680  1.6471  1.7052
          1.7318  1.7782
   4     -0.1237 -0.0266  0.2637  0.2681  0.2681  0.4456  0.4456  0.5732  1.1000
          1.2148  1.3238  1.3238  1.4062  1.4062  1.5177  1.5177  1.5474  1.5531
          1.6279  1.6279
 Test on the normalization of the wavefunctions
  min sum_G |a(n,k,G)| =  1.000000
  max sum_G |a(n,k,G)| =  1.000000
 Test on the orthogonalization of the wavefunctions
  min sum_G a(n,k,G)a(n',k,G) =  0.000000
  max sum_G a(n,k,G)a(n',k,G) =  0.000000

================================================================================

 ----iterations are completed or convergence reached----

 Mean square residual over all n,k,spin=   1.1029E-10; max=  7.1595E-09
   0.1250  0.1250  0.1250    1  7.15953E-09 kpt; spin; max resid(k); each band:
  2.94E-11 5.94E-11 1.17E-11 1.17E-11 2.08E-11 5.06E-11 1.03E-11 1.03E-11
  1.50E-11 1.50E-11 2.88E-11 2.26E-11 2.26E-11 1.00E-11 1.00E-11 6.58E-12
  2.25E-11 2.18E-11 8.92E-12 8.92E-12 2.09E-11 2.01E-11 1.99E-11 7.16E-09
  2.04E-11
   0.3750  0.1250  0.1250    1  1.21586E-09 kpt; spin; max resid(k); each band:
  2.72E-11 4.55E-11 2.30E-11 4.04E-11 1.17E-11 1.28E-11 2.06E-11 1.06E-11
  2.30E-11 1.94E-11 1.22E-11 1.92E-11 1.53E-11 2.05E-11 1.73E-11 2.03E-11
  1.92E-11 2.13E-11 1.66E-11 1.79E-11 1.03E-11 1.93E-11 2.58E-11 6.86E-11
  1.22E-09
   0.3750  0.3750  0.1250    1  4.65192E-11 kpt; spin; max resid(k); each band:
  2.07E-11 4.26E-11 1.13E-11 2.50E-11 1.66E-11 2.24E-11 1.28E-11 1.92E-11
  1.86E-11 2.73E-11 1.31E-11 1.67E-11 1.91E-11 1.11E-11 2.11E-11 1.81E-11
  2.07E-11 1.66E-11 1.40E-11 2.79E-11 9.24E-12 2.55E-11 2.05E-11 1.29E-11
  4.65E-11
   0.3750  0.3750  0.3750    1  5.17835E-10 kpt; spin; max resid(k); each band:
  1.19E-11 3.37E-11 2.47E-11 1.12E-11 1.12E-11 1.20E-11 1.20E-11 1.57E-11
  2.72E-11 3.87E-11 1.06E-11 1.06E-11 2.59E-11 2.60E-11 1.04E-11 1.05E-11
  1.35E-11 2.57E-11 2.10E-11 2.10E-11 1.85E-11 5.17E-11 7.69E-11 8.95E-11
  5.18E-10
 reduced coordinates (array xred) for    2 atoms
       0.000000000000      0.000000000000      0.000000000000
       0.500000000000      0.500000000000      0.500000000000
 rms dE/dt=  0.0000E+00; max dE/dt=  0.0000E+00; dE/dt below (all hartree)
    1       0.000000000000      0.000000000000      0.000000000000
    2       0.000000000000      0.000000000000      0.000000000000

 cartesian coordinates (angstrom) at end:
    1      0.00000000000000     0.00000000000000     0.00000000000000
    2      1.39717461049910     1.39717461049910     1.39717461049910

 cartesian forces (hartree/bohr) at end:
    1     -0.00000000000000    -0.00000000000000    -0.00000000000000
    2     -0.00000000000000    -0.00000000000000    -0.00000000000000
 frms,max,avg= 0.0000000E+00 0.0000000E+00   0.000E+00  0.000E+00  0.000E+00 h/b

 cartesian forces (eV/Angstrom) at end:
    1     -0.00000000000000    -0.00000000000000    -0.00000000000000
    2     -0.00000000000000    -0.00000000000000    -0.00000000000000
 frms,max,avg= 0.0000000E+00 0.0000000E+00   0.000E+00  0.000E+00  0.000E+00 e/A
 length scales=  5.280554747329  5.280554747329  5.280554747329 bohr
              =  2.794349220998  2.794349220998  2.794349220998 angstroms
 prteigrs : about to open file t68o_DS1_EIG
 Fermi (or HOMO) energy (hartree) =  -0.12370   Average Vxc (hartree)=  -0.26062
 Eigenvalues (hartree) for nkpt=   4  k points:
 kpt#   1, nband= 25, wtk=  0.12500, kpt=  0.1250  0.1250  0.1250 (reduced coord)
  -0.30321   0.00621   0.35498   0.35498   0.56263   0.56751   0.71459   0.71459
   0.87901   0.87901   1.01281   1.15160   1.15160   1.25343   1.25343   1.28202
   1.33798   1.45953   1.60608   1.60608   1.66296   1.71836   1.71836   2.02926
   2.07655
 kpt#   2, nband= 25, wtk=  0.37500, kpt=  0.3750  0.1250  0.1250 (reduced coord)
  -0.23078  -0.08220   0.28772   0.40705   0.44248   0.61951   0.66923   0.80207
   0.83594   0.92081   0.97728   1.07560   1.11491   1.24175   1.28091   1.42050
   1.45678   1.55182   1.62296   1.64101   1.68938   1.79383   1.95742   2.04589
   2.06488
 kpt#   3, nband= 25, wtk=  0.37500, kpt=  0.3750  0.3750  0.1250 (reduced coord)
  -0.17042  -0.06180   0.18034   0.25411   0.46094   0.58379   0.70827   0.77944
   0.83825   0.91974   1.05892   1.13136   1.18622   1.24076   1.32628   1.36797
   1.64715   1.70521   1.73181   1.77818   1.78213   1.88084   1.88603   1.95437
   2.00199
 kpt#   4, nband= 25, wtk=  0.12500, kpt=  0.3750  0.3750  0.3750 (reduced coord)
  -0.12370  -0.02656   0.26371   0.26807   0.26807   0.44557   0.44557   0.57319
   1.09997   1.21480   1.32379   1.32379   1.40620   1.40620   1.51771   1.51771
   1.54742   1.55307   1.62788   1.62788   1.76365   1.82074   1.82074   1.85652
   1.96099
 Fermi (or HOMO) energy (eV) =  -3.36599   Average Vxc (eV)=  -7.09175
 Eigenvalues (   eV  ) for nkpt=   4  k points:
 kpt#   1, nband= 25, wtk=  0.12500, kpt=  0.1250  0.1250  0.1250 (reduced coord)
  -8.25066   0.16897   9.65938   9.65938  15.31006  15.44262  19.44493  19.44493
  23.91906  23.91906  27.55995  31.33669  31.33669  34.10749  34.10749  34.88546
  36.40834  39.71583  43.70353  43.70353  45.25133  46.75899  46.75899  55.21909
  56.50570
 kpt#   2, nband= 25, wtk=  0.37500, kpt=  0.3750  0.1250  0.1250 (reduced coord)
  -6.27994  -2.23678   7.82938  11.07646  12.04054  16.85773  18.21079  21.82544
  22.74714  25.05656  26.59311  29.26867  30.33822  33.78962  34.85546  38.65374
  39.64097  42.22704  44.16290  44.65424  45.97040  48.81268  53.26422  55.67138
  56.18828
 kpt#   3, nband= 25, wtk=  0.37500, kpt=  0.3750  0.3750  0.1250 (reduced coord)
  -4.63732  -1.68178   4.90722   6.91463  12.54288  15.88583  19.27297  21.20969
  22.80987  25.02743  28.81455  30.78596  32.27858  33.76267  36.08989  37.22438
  44.82120  46.40118  47.12501  48.38681  48.49416  51.18021  51.32137  53.18125
  54.47692
 kpt#   4, nband= 25, wtk=  0.12500, kpt=  0.3750  0.3750  0.3750 (reduced coord)
  -3.36599  -0.72267   7.17593   7.29465   7.29465  12.12469  12.12469  15.59730
  29.93177  33.05640  36.02211  36.02211  38.26475  38.26475  41.29902  41.29902
  42.10747  42.26129  44.29688  44.29688  47.99138  49.54486  49.54486  50.51848
  53.36134
 Total charge density [el/Bohr^3]
,     Maximum=    1.3107E-01  at reduced coord.    0.5000    0.5000    0.5000
,Next maximum=    1.3107E-01  at reduced coord.    0.0000    0.0000    0.0000
,     Minimum=    5.3049E-03  at reduced coord.    0.5000    0.2222    0.0000
,Next minimum=    5.3049E-03  at reduced coord.    0.5000    0.2778    0.0000
,  Integrated=    2.0000E+00
 Spin up density      [el/Bohr^3]
,     Maximum=    1.1340E-01  at reduced coord.    0.0000    0.0000    0.0000
,Next maximum=    1.0026E-01  at reduced coord.    0.0000    0.0000    0.9444
,     Minimum=    1.9561E-03  at reduced coord.    0.5000    0.5000    0.0000
,Next minimum=    1.9561E-03  at reduced coord.    0.5000    0.0000    0.5000
,  Integrated=    1.0000E+00
 Spin down density    [el/Bohr^3]
,     Maximum=    1.1340E-01  at reduced coord.    0.5000    0.5000    0.5000
,Next maximum=    1.0026E-01  at reduced coord.    0.5000    0.5000    0.5556
,     Minimum=    1.9561E-03  at reduced coord.    0.5000    0.0000    0.0000
,Next minimum=    1.9561E-03  at reduced coord.    0.0000    0.5000    0.0000
,  Integrated=    1.0000E+00
 Magnetization (spin up - spin down) [el/Bohr^3]
,     Maximum=    9.5738E-02  at reduced coord.    0.0000    0.0000    0.0000
,Next maximum=    8.4448E-02  at reduced coord.    0.0000    0.0000    0.9444
,     Minimum=   -9.5738E-02  at reduced coord.    0.5000    0.5000    0.5000
,Next minimum=   -8.4448E-02  at reduced coord.    0.5000    0.5000    0.4444
,  Integrated=    0.0000E+00
 Relative magnetization (=zeta, between -1 and 1)
,     Maximum=    7.3042E-01  at reduced coord.    0.0000    0.0000    0.0000
,Next maximum=    7.2757E-01  at reduced coord.    0.0000    0.0000    0.9444
,     Minimum=   -7.3042E-01  at reduced coord.    0.5000    0.5000    0.5000
,Next minimum=   -7.2757E-01  at reduced coord.    0.5000    0.5000    0.4444

--------------------------------------------------------------------------------
 Components of total free energy (in Hartree) :

    Kinetic energy  =  7.44245224087441E-01
    Hartree energy  =  6.04161596136904E-02
    XC energy       = -5.23849784372130E-01
    Ewald energy    = -6.89176350524443E-01
    PspCore energy  =  1.14060821793542E-03
    Loc. psp. energy= -5.87515703257512E-01
    NL   psp  energy=  0.00000000000000E+00
    >>>>>>>>> Etotal= -9.94739846235020E-01

 Other information on the energy :
    Total energy(eV)= -2.70682477967385E+01 ; Band energy (Ha)=  -4.0762742103E-01
--------------------------------------------------------------------------------

 Cartesian components of stress tensor (hartree/bohr^3)
  sigma(1 1)=  3.94634835E-04  sigma(3 2)=  0.00000000E+00
  sigma(2 2)=  3.94634835E-04  sigma(3 1)=  0.00000000E+00
  sigma(3 3)=  3.94634835E-04  sigma(2 1)=  0.00000000E+00

-Cartesian components of stress tensor (GPa)         [Pressure= -1.1611E+01 GPa]
- sigma(1 1)=  1.16105557E+01  sigma(3 2)=  0.00000000E+00
- sigma(2 2)=  1.16105557E+01  sigma(3 1)=  0.00000000E+00
- sigma(3 3)=  1.16105557E+01  sigma(2 1)=  0.00000000E+00

================================================================================
== DATASET  2 ==================================================================
-   nproc =    1

 mkfilename : getkss/=0, take file _KSS from output of DATASET   1.

 Exchange-correlation functional for the present dataset will be:
  LDA: new Teter (4/93) with spin-polarized option - ixc=1
 Citation for XC functional:
  S. Goedecker, M. Teter, J. Huetter, PRB 54, 1703 (1996)

 SCREENING: Calculation of the susceptibility and dielectric matrices 

 Based on a program developped by R.W. Godby, V. Olevano, G. Onida, and L. Reining.
 Incorporated in ABINIT by V. Olevano, G.-M. Rignanese, and M. Torrent.
.Using double precision arithmetic ; gwpc =  8

 Real(R)+Recip(G) space primitive vectors, cartesian coordinates (Bohr,Bohr^-1):
 R(1)=  5.2805547  0.0000000  0.0000000  G(1)=  0.1893740  0.0000000  0.0000000
 R(2)=  0.0000000  5.2805547  0.0000000  G(2)=  0.0000000  0.1893740  0.0000000
 R(3)=  0.0000000  0.0000000  5.2805547  G(3)=  0.0000000  0.0000000  0.1893740
 Unit cell volume ucvol=  1.4724435E+02 bohr^3
 Angles (23,13,12)=  9.00000000E+01  9.00000000E+01  9.00000000E+01 degrees

--- Pseudopotential description ------------------------------------------------
- pspini: atom type   1  psp file is /home/gonze/ABINIT/ABINITv7.9.3/trunk/7.9.3-private/tests/Psps_for_tests/1h.pspnc
- pspatm: opening atomic psp file    /home/gonze/ABINIT/ABINITv7.9.3/trunk/7.9.3-private/tests/Psps_for_tests/1h.pspnc
-  Troullier-Martins psp for element  H         Thu Oct 27 17:28:54 EDT 1994
-  1.00000   1.00000    940714                znucl, zion, pspdat
    1    1    0    0      2001   0.00000      pspcod,pspxc,lmax,lloc,mmax,r2well
    0   7.740  11.990    0   1.5855604        l,e99.0,e99.9,nproj,rcpsp
   0.00000000   0.00000000   0.00000000   0.00000000     rms, ekb1, ekb2, epsatm
    0.00000000000000    0.00000000000000    0.00000000000000   rchrg,fchrg,qchrg
 Note: local psp for atom with Z=  1.0
 pspatm: epsatm=    0.04198703
         --- l  ekb(1:nproj) -->
 pspatm: atomic psp has been read  and splines computed

--------------------------------------------------------------------------------

 ==== K-mesh for the wavefunctions ====
 Number of points in the irreducible wedge :     4
 Reduced coordinates and weights : 

     1)     1.25000000E-01  1.25000000E-01  1.25000000E-01       0.12500
     2)     3.75000000E-01  1.25000000E-01  1.25000000E-01       0.37500
     3)     3.75000000E-01  3.75000000E-01  1.25000000E-01       0.37500
     4)     3.75000000E-01  3.75000000E-01  3.75000000E-01       0.12500

 Together with 96 symmetry operations and time-reversal symmetry 
 yields    64 points in the full Brillouin Zone.


 ==== Q-mesh for the screening function ====
 Number of points in the irreducible wedge :    10
 Reduced coordinates and weights : 

     1)     0.00000000E+00  0.00000000E+00  0.00000000E+00       0.01563
     2)    -2.50000000E-01 -2.50000000E-01 -2.50000000E-01       0.12500
     3)    -2.50000000E-01  0.00000000E+00 -2.50000000E-01       0.18750
     4)     0.00000000E+00 -2.50000000E-01  0.00000000E+00       0.09375
     5)     5.00000000E-01 -2.50000000E-01 -2.50000000E-01       0.18750
     6)     5.00000000E-01  0.00000000E+00 -2.50000000E-01       0.18750
     7)     5.00000000E-01  0.00000000E+00  0.00000000E+00       0.04688
     8)     5.00000000E-01  5.00000000E-01 -2.50000000E-01       0.09375
     9)     5.00000000E-01  5.00000000E-01  0.00000000E+00       0.04688
    10)     5.00000000E-01  5.00000000E-01  5.00000000E-01       0.01563

 Together with 96 symmetry operations and time-reversal symmetry 
 yields    64 points in the full Brillouin Zone.


 setmesh: FFT mesh size selected  =  12x 12x 12
          total number of points  =     1728


 k       eigenvalues [eV]
  1         -8.25   0.17   9.66   9.66  15.31  15.44  19.44  19.44  23.92  23.92
            27.56  31.34  31.34  34.11  34.11  34.89  36.41  39.72  43.70  43.70

  2         -6.28  -2.24   7.83  11.08  12.04  16.86  18.21  21.83  22.75  25.06
            26.59  29.27  30.34  33.79  34.86  38.65  39.64  42.23  44.16  44.65

  3         -4.64  -1.68   4.91   6.91  12.54  15.89  19.27  21.21  22.81  25.03
            28.81  30.79  32.28  33.76  36.09  37.22  44.82  46.40  47.13  48.39

  4         -3.37  -0.72   7.18   7.29   7.29  12.12  12.12  15.60  29.93  33.06
            36.02  36.02  38.26  38.26  41.30  41.30  42.11  42.26  44.30  44.30

 Number of electrons calculated from density =    2.0000; Expected =    2.0000
 average of density, n =  0.013583
 r_s =    2.6000
 omega_plasma =   11.2421 [eV]


 calculating chi0 at frequencies [eV] :
  1    0.000000E+00    0.000000E+00
  2    0.000000E+00    1.124212E+01


--------------------------------------------------------------------------------
  q-point number  1        q = ( 0.000000, 0.000000, 0.000000) [r.l.u.]
--------------------------------------------------------------------------------
  chi0(G,G') at the    1 th omega   0.0000   0.0000 [eV]
       1       2       3       4       5       6       7       8       9
    1  -0.000  -0.000  -0.000   0.000   0.000   0.000   0.000  -0.000   0.000
        0.000   0.000   0.000  -0.000  -0.000  -0.000  -0.000  -0.000   0.000

    2  -0.000  -8.808  -3.130  -4.544  -4.544  -4.544  -4.544  -0.000  -0.000
       -0.000   0.000  -0.000  -0.000  -0.000  -0.000  -0.000   0.000   0.000

  chi0(G,G') at the    2 th omega   0.0000  11.2421 [eV]
       1       2       3       4       5       6       7       8       9
    1  -0.000   0.000   0.000  -0.000  -0.000  -0.000  -0.000  -0.000   0.000
        0.000   0.000   0.000  -0.000  -0.000  -0.000  -0.000  -0.000   0.000

    2  -0.000  -3.025   0.072  -0.512  -0.512  -0.512  -0.512  -0.000  -0.000
       -0.000  -0.000  -0.000   0.000   0.000   0.000   0.000   0.000  -0.000

 For q-point:  0.000010 0.000020 0.000030
  dielectric constant =   4.1728
  dielectric constant without local fields =   4.2115

  Average fulfillment of the sum rule on Im[epsilon] for q-point    1 :     40.24  [%]
  Heads and wings of the symmetrical epsilon^-1(G,G') 

   Upper and lower wings at the    1 th omega   0.0000   0.0000 [eV]
       1       2       3       4       5       6       7       8       9
      0.240   0.000  -0.000  -0.000   0.000   0.000   0.000  -0.012   0.012
      0.000   0.000   0.000  -0.000  -0.000  -0.000  -0.000  -0.000   0.000
       1       2       3       4       5       6       7       8       9
      0.240   0.000  -0.000  -0.000   0.000   0.000   0.000  -0.012   0.012
      0.000  -0.000  -0.000   0.000   0.000   0.000   0.000   0.000  -0.000


   Upper and lower wings at the    2 th omega   0.0000  11.2421 [eV]
       1       2       3       4       5       6       7       8       9
      0.717   0.000   0.000  -0.000  -0.000  -0.000  -0.000  -0.018   0.018
      0.000   0.000   0.000  -0.000  -0.000  -0.000  -0.000  -0.000   0.000
       1       2       3       4       5       6       7       8       9
      0.717   0.000   0.000  -0.000  -0.000  -0.000  -0.000  -0.018   0.018
      0.000  -0.000  -0.000   0.000   0.000   0.000   0.000  -0.000   0.000




--------------------------------------------------------------------------------
  q-point number  2        q = (-0.250000,-0.250000,-0.250000) [r.l.u.]
--------------------------------------------------------------------------------
  chi0(G,G') at the    1 th omega   0.0000   0.0000 [eV]
       1       2       3       4       5       6       7       8       9
    1 -10.747   0.000   0.000  -0.000   0.000   0.000   0.000  -3.373  -2.599
       -0.000   0.000  -0.000  -0.000   0.000  -0.000   0.000   0.000  -0.000

    2   0.000  -8.218  -2.140  -3.374  -3.224  -3.374  -3.224   0.000  -0.000
       -0.000  -0.000   0.000  -0.000   0.000  -0.000  -0.000   0.000   0.000

  chi0(G,G') at the    2 th omega   0.0000  11.2421 [eV]
       1       2       3       4       5       6       7       8       9
    1  -1.446   0.000   0.000  -0.000  -0.000  -0.000   0.000   0.126  -0.463
        0.000  -0.000  -0.000   0.000   0.000   0.000   0.000   0.000  -0.000

    2   0.000  -2.789  -0.029  -0.058  -0.576  -0.058  -0.576   0.000  -0.000
        0.000  -0.000   0.000  -0.000   0.000  -0.000  -0.000   0.000   0.000

  Average fulfillment of the sum rule on Im[epsilon] for q-point    2 :     45.69  [%]


--------------------------------------------------------------------------------
  q-point number  3        q = (-0.250000, 0.000000,-0.250000) [r.l.u.]
--------------------------------------------------------------------------------
  chi0(G,G') at the    1 th omega   0.0000   0.0000 [eV]
       1       2       3       4       5       6       7       8       9
    1  -7.938  -0.000   0.000   0.000  -0.000   0.000  -0.000  -2.558  -2.243
        0.000   0.000  -0.000  -0.000   0.000  -0.000   0.000   0.000  -0.000

    2  -0.000  -8.191  -2.196  -3.692  -3.692  -3.225  -3.314  -0.000  -0.000
       -0.000  -0.000  -0.000   0.000   0.000   0.000   0.000   0.000   0.000

  chi0(G,G') at the    2 th omega   0.0000  11.2421 [eV]
       1       2       3       4       5       6       7       8       9
    1  -1.056   0.000   0.000   0.000  -0.000  -0.000  -0.000  -0.041  -0.347
        0.000  -0.000  -0.000  -0.000   0.000   0.000   0.000   0.000  -0.000

    2   0.000  -2.711   0.019  -0.321  -0.321   0.063  -0.539  -0.000  -0.000
        0.000  -0.000  -0.000   0.000   0.000  -0.000   0.000   0.000  -0.000

  Average fulfillment of the sum rule on Im[epsilon] for q-point    3 :     46.53  [%]


--------------------------------------------------------------------------------
  q-point number  4        q = ( 0.000000,-0.250000, 0.000000) [r.l.u.]
--------------------------------------------------------------------------------
  chi0(G,G') at the    1 th omega   0.0000   0.0000 [eV]
       1       2       3       4       5       6       7       8       9
    1  -4.451  -0.000   0.000   0.000  -0.000   0.000  -0.000  -1.370  -1.392
        0.000   0.000  -0.000   0.000   0.000  -0.000   0.000  -0.000  -0.000

    2  -0.000  -8.175  -2.694  -3.796  -3.550  -4.069  -4.069  -0.000  -0.000
       -0.000  -0.000   0.000  -0.000  -0.000   0.000  -0.000   0.000   0.000

  chi0(G,G') at the    2 th omega   0.0000  11.2421 [eV]
       1       2       3       4       5       6       7       8       9
    1  -0.581   0.000   0.000   0.000   0.000   0.000  -0.000   0.092  -0.266
       -0.000   0.000  -0.000   0.000   0.000  -0.000   0.000  -0.000  -0.000

    2   0.000  -3.004   0.023  -0.243  -0.707  -0.550  -0.550   0.000   0.000
       -0.000   0.000   0.000  -0.000  -0.000  -0.000  -0.000   0.000   0.000

  Average fulfillment of the sum rule on Im[epsilon] for q-point    4 :     47.58  [%]


--------------------------------------------------------------------------------
  q-point number  5        q = ( 0.500000,-0.250000,-0.250000) [r.l.u.]
--------------------------------------------------------------------------------
  chi0(G,G') at the    1 th omega   0.0000   0.0000 [eV]
       1       2       3       4       5       6       7       8       9
    1 -10.180  -0.000   0.000  -0.000  -0.000  -0.000  -0.000  -2.666  -3.664
        0.000   0.000  -0.000  -0.000   0.000  -0.000   0.000   0.000   0.000

    2  -0.000  -3.026  -2.170  -2.517  -2.052  -2.517  -2.052   0.000  -0.000
       -0.000   0.000  -0.000   0.000   0.000   0.000   0.000   0.000   0.000

  chi0(G,G') at the    2 th omega   0.0000  11.2421 [eV]
       1       2       3       4       5       6       7       8       9
    1  -2.205  -0.000   0.000  -0.000  -0.000  -0.000  -0.000  -0.548  -0.430
       -0.000   0.000   0.000  -0.000   0.000  -0.000   0.000   0.000  -0.000

    2  -0.000  -1.861  -0.035  -0.692  -0.750  -0.692  -0.750   0.000   0.000
       -0.000  -0.000  -0.000   0.000  -0.000   0.000  -0.000   0.000   0.000

  Average fulfillment of the sum rule on Im[epsilon] for q-point    5 :     44.54  [%]


--------------------------------------------------------------------------------
  q-point number  6        q = ( 0.500000, 0.000000,-0.250000) [r.l.u.]
--------------------------------------------------------------------------------
  chi0(G,G') at the    1 th omega   0.0000   0.0000 [eV]
       1       2       3       4       5       6       7       8       9
    1  -8.881  -0.000  -0.000   0.000  -0.000   0.000  -0.000  -2.175  -3.610
       -0.000   0.000  -0.000  -0.000   0.000  -0.000   0.000  -0.000  -0.000

    2  -0.000  -3.157  -1.958  -2.438  -2.438  -2.518  -2.103  -0.000   0.000
       -0.000  -0.000   0.000   0.000  -0.000   0.000  -0.000   0.000   0.000

  chi0(G,G') at the    2 th omega   0.0000  11.2421 [eV]
       1       2       3       4       5       6       7       8       9
    1  -1.978  -0.000  -0.000   0.000  -0.000   0.000  -0.000  -0.529  -0.133
        0.000   0.000   0.000  -0.000   0.000  -0.000   0.000  -0.000   0.000

    2  -0.000  -1.933   0.017  -0.747  -0.747  -0.680  -0.761  -0.000  -0.000
       -0.000   0.000  -0.000  -0.000  -0.000   0.000  -0.000   0.000   0.000

  Average fulfillment of the sum rule on Im[epsilon] for q-point    6 :     45.04  [%]


--------------------------------------------------------------------------------
  q-point number  7        q = ( 0.500000, 0.000000, 0.000000) [r.l.u.]
--------------------------------------------------------------------------------
  chi0(G,G') at the    1 th omega   0.0000   0.0000 [eV]
       1       2       3       4       5       6       7       8       9
    1  -7.213  -0.000   0.000   0.000  -0.000   0.000  -0.000  -1.841  -2.993
       -0.000   0.000   0.000  -0.000   0.000  -0.000   0.000  -0.000   0.000

    2  -0.000  -3.255  -1.629  -2.411  -2.411  -2.411  -2.411  -0.000  -0.000
       -0.000  -0.000  -0.000  -0.000  -0.000  -0.000  -0.000   0.000   0.000

  chi0(G,G') at the    2 th omega   0.0000  11.2421 [eV]
       1       2       3       4       5       6       7       8       9
    1  -1.701  -0.000   0.000   0.000  -0.000   0.000  -0.000  -0.492  -0.020
        0.000   0.000   0.000  -0.000   0.000  -0.000   0.000   0.000  -0.000

    2  -0.000  -2.012   0.075  -0.747  -0.747  -0.747  -0.747  -0.000   0.000
       -0.000  -0.000   0.000   0.000  -0.000   0.000  -0.000   0.000   0.000

  Average fulfillment of the sum rule on Im[epsilon] for q-point    7 :     45.56  [%]


--------------------------------------------------------------------------------
  q-point number  8        q = ( 0.500000, 0.500000,-0.250000) [r.l.u.]
--------------------------------------------------------------------------------
  chi0(G,G') at the    1 th omega   0.0000   0.0000 [eV]
       1       2       3       4       5       6       7       8       9
    1  -9.343   0.000  -0.000  -0.000   0.000  -0.000  -0.000  -1.783  -4.253
        0.000   0.000  -0.000  -0.000   0.000  -0.000   0.000   0.000  -0.000

    2   0.000  -2.662  -2.009  -1.552  -2.793  -2.295  -1.887   0.000  -0.000
       -0.000   0.000   0.000  -0.000   0.000  -0.000  -0.000   0.000   0.000

  chi0(G,G') at the    2 th omega   0.0000  11.2421 [eV]
       1       2       3       4       5       6       7       8       9
    1  -2.624   0.000  -0.000  -0.000   0.000  -0.000  -0.000  -0.562   0.180
       -0.000   0.000  -0.000  -0.000   0.000  -0.000   0.000   0.000  -0.000

    2   0.000  -1.626  -0.141  -0.662  -0.617  -0.704  -0.715   0.000  -0.000
       -0.000  -0.000   0.000  -0.000   0.000  -0.000  -0.000   0.000  -0.000

  Average fulfillment of the sum rule on Im[epsilon] for q-point    8 :     43.83  [%]


--------------------------------------------------------------------------------
  q-point number  9        q = ( 0.500000, 0.500000, 0.000000) [r.l.u.]
--------------------------------------------------------------------------------
  chi0(G,G') at the    1 th omega   0.0000   0.0000 [eV]
       1       2       3       4       5       6       7       8       9
    1  -8.826  -0.000   0.000   0.000  -0.000  -0.000   0.000  -1.741  -3.707
        0.000   0.000  -0.000  -0.000   0.000  -0.000   0.000  -0.000   0.000

    2  -0.000  -2.788  -1.948  -1.625  -2.752  -2.250  -2.250   0.000  -0.000
       -0.000   0.000  -0.000   0.000  -0.000   0.000   0.000   0.000   0.000

  chi0(G,G') at the    2 th omega   0.0000  11.2421 [eV]
       1       2       3       4       5       6       7       8       9
    1  -2.502  -0.000   0.000   0.000  -0.000   0.000  -0.000  -0.557   0.336
       -0.000   0.000  -0.000  -0.000   0.000  -0.000   0.000  -0.000   0.000

    2  -0.000  -1.686  -0.103  -0.678  -0.590  -0.737  -0.737   0.000  -0.000
       -0.000  -0.000   0.000   0.000  -0.000   0.000   0.000   0.000  -0.000

  Average fulfillment of the sum rule on Im[epsilon] for q-point    9 :     44.19  [%]


--------------------------------------------------------------------------------
  q-point number 10        q = ( 0.500000, 0.500000, 0.500000) [r.l.u.]
--------------------------------------------------------------------------------
  chi0(G,G') at the    1 th omega   0.0000   0.0000 [eV]
       1       2       3       4       5       6       7       8       9
    1  -8.270  -0.000   0.000   0.000  -0.000   0.000  -0.000  -1.579  -3.746
       -0.000   0.000  -0.000  -0.000   0.000  -0.000   0.000  -0.000   0.000

    2  -0.000  -2.289  -1.765  -1.381  -2.461  -1.381  -2.461   0.000   0.000
       -0.000  -0.000  -0.000  -0.000  -0.000  -0.000  -0.000   0.000   0.000

  chi0(G,G') at the    2 th omega   0.0000  11.2421 [eV]
       1       2       3       4       5       6       7       8       9
    1  -2.828  -0.000   0.000   0.000  -0.000   0.000  -0.000  -0.561  -0.151
       -0.000   0.000  -0.000  -0.000   0.000  -0.000   0.000  -0.000  -0.000

    2  -0.000  -1.406  -0.218  -0.615  -0.661  -0.615  -0.661  -0.000   0.000
       -0.000  -0.000  -0.000  -0.000  -0.000  -0.000  -0.000   0.000   0.000

  Average fulfillment of the sum rule on Im[epsilon] for q-point   10 :     43.31  [%]

================================================================================
== DATASET  3 ==================================================================
-   nproc =    1

 mkfilename : getscr/=0, take file _SCR from output of DATASET   2.

 mkfilename : getkss/=0, take file _KSS from output of DATASET   1.

 Exchange-correlation functional for the present dataset will be:
  LDA: new Teter (4/93) with spin-polarized option - ixc=1
 Citation for XC functional:
  S. Goedecker, M. Teter, J. Huetter, PRB 54, 1703 (1996)

 SIGMA: Calculation of the GW corrections 

 Based on a program developped by R.W. Godby, V. Olevano, G. Onida, and L. Reining.
 Incorporated in ABINIT by V. Olevano, G.-M. Rignanese, and M. Torrent.
.Using double precision arithmetic ; gwpc =  8

 Real(R)+Recip(G) space primitive vectors, cartesian coordinates (Bohr,Bohr^-1):
 R(1)=  5.2805547  0.0000000  0.0000000  G(1)=  0.1893740  0.0000000  0.0000000
 R(2)=  0.0000000  5.2805547  0.0000000  G(2)=  0.0000000  0.1893740  0.0000000
 R(3)=  0.0000000  0.0000000  5.2805547  G(3)=  0.0000000  0.0000000  0.1893740
 Unit cell volume ucvol=  1.4724435E+02 bohr^3
 Angles (23,13,12)=  9.00000000E+01  9.00000000E+01  9.00000000E+01 degrees
--------------------------------------------------------------------------------

 ==== K-mesh for the wavefunctions ====
 Number of points in the irreducible wedge :     4
 Reduced coordinates and weights : 

     1)     1.25000000E-01  1.25000000E-01  1.25000000E-01       0.12500
     2)     3.75000000E-01  1.25000000E-01  1.25000000E-01       0.37500
     3)     3.75000000E-01  3.75000000E-01  1.25000000E-01       0.37500
     4)     3.75000000E-01  3.75000000E-01  3.75000000E-01       0.12500

 Together with 96 symmetry operations and time-reversal symmetry 
 yields    64 points in the full Brillouin Zone.


 ==== Q-mesh for screening function ====
 Number of points in the irreducible wedge :    10
 Reduced coordinates and weights : 

     1)     0.00000000E+00  0.00000000E+00  0.00000000E+00       0.01563
     2)    -2.50000000E-01 -2.50000000E-01 -2.50000000E-01       0.12500
     3)    -2.50000000E-01  0.00000000E+00 -2.50000000E-01       0.18750
     4)     0.00000000E+00 -2.50000000E-01  0.00000000E+00       0.09375
     5)     5.00000000E-01 -2.50000000E-01 -2.50000000E-01       0.18750
     6)     5.00000000E-01  0.00000000E+00 -2.50000000E-01       0.18750
     7)     5.00000000E-01  0.00000000E+00  0.00000000E+00       0.04688
     8)     5.00000000E-01  5.00000000E-01 -2.50000000E-01       0.09375
     9)     5.00000000E-01  5.00000000E-01  0.00000000E+00       0.04688
    10)     5.00000000E-01  5.00000000E-01  5.00000000E-01       0.01563

 Together with 96 symmetry operations and time-reversal symmetry 
 yields    64 points in the full Brillouin Zone.


 setmesh: FFT mesh size selected  =  12x 12x 12
          total number of points  =     1728


 k       eigenvalues [eV]
  1         -8.25   0.17   9.66   9.66  15.31  15.44  19.44  19.44  23.92  23.92
            27.56  31.34  31.34  34.11  34.11  34.89  36.41  39.72  43.70  43.70

  2         -6.28  -2.24   7.83  11.08  12.04  16.86  18.21  21.83  22.75  25.06
            26.59  29.27  30.34  33.79  34.86  38.65  39.64  42.23  44.16  44.65

  3         -4.64  -1.68   4.91   6.91  12.54  15.89  19.27  21.21  22.81  25.03
            28.81  30.79  32.28  33.76  36.09  37.22  44.82  46.40  47.13  48.39

  4         -3.37  -0.72   7.18   7.29   7.29  12.12  12.12  15.60  29.93  33.06
            36.02  36.02  38.26  38.26  41.30  41.30  42.11  42.26  44.30  44.30

 Number of electrons calculated from density =    2.0000; Expected =    2.0000
 average of density, n =  0.013583
 r_s =    2.6000
 omega_plasma =   11.2421 [eV]


 === KS Band Gaps ===
  >>>> For spin  1
   Minimum optical gap =   2.6433 [eV], located at k-point      :   0.3750  0.3750  0.3750
   Fundamental gap     =   1.1292 [eV], Top of valence bands at :   0.3750  0.3750  0.3750
                                        Bottom of conduction at :   0.3750  0.1250  0.1250
 SIGMA fundamental parameters:
 PLASMON POLE MODEL  1
 number of plane-waves for SigmaX                  179
 number of plane-waves for SigmaC and W             81
 number of plane-waves for wavefunctions           257
 number of bands                                    20
 number of independent spin polarizations            1
 number of spinorial components                      1
 number of k-points in IBZ                           4
 number of q-points in IBZ                          10
 number of symmetry operations                      96
 number of k-points in BZ                           64
 number of q-points in BZ                           64
 number of frequencies for dSigma/dE                 9
 frequency step for dSigma/dE [eV]                0.25
 number of omega for Sigma on real axis              0
 max omega for Sigma on real axis  [eV]           0.00
 zcut for avoiding poles [eV]                     0.10

 EPSILON^-1 parameters (SCR file):
 dimension of the eps^-1 matrix on file             81
 dimension of the eps^-1 matrix used                81
 number of plane-waves for wavefunctions           257
 number of bands                                    20
 number of q-points in IBZ                          10
 number of frequencies                               2
 number of real frequencies                          1
 number of imag frequencies                          1

 matrix elements of self-energy operator (all in [eV])

 Perturbative Calculation

 k =    0.125   0.125   0.125
 Band     E0 <VxcLDA>   SigX SigC(E0)      Z dSigC/dE  Sig(E)    E-E0       E
    1  -8.251  -8.450 -12.656   4.251   0.628  -0.591  -8.422   0.028  -8.222
    2   0.169  -9.612  -4.381  -5.637   0.598  -0.672  -9.855  -0.242  -0.073

 E^0_gap          8.420
 E^GW_gap         8.149
 DeltaE^GW_gap   -0.271


 k =    0.375   0.375   0.125
 Band     E0 <VxcLDA>   SigX SigC(E0)      Z dSigC/dE  Sig(E)    E-E0       E
    1  -4.637  -9.646 -12.523   2.493   0.635  -0.575  -9.890  -0.244  -4.881
    2  -1.682  -8.370  -3.629  -4.563   0.631  -0.585  -8.257   0.112  -1.569

 E^0_gap          2.956
 E^GW_gap         3.312
 DeltaE^GW_gap    0.356


 k =    0.375   0.375   0.375
 Band     E0 <VxcLDA>   SigX SigC(E0)      Z dSigC/dE  Sig(E)    E-E0       E
    1  -3.366 -10.415 -13.296   2.307   0.649  -0.542 -10.788  -0.373  -3.739
    2  -0.723  -8.226  -2.659  -5.639   0.589  -0.698  -8.269  -0.042  -0.765

 E^0_gap          2.643
 E^GW_gap         2.974
 DeltaE^GW_gap    0.331


== END DATASET(S) ==============================================================
================================================================================
  
 -outvars: echo values of variables after computation  --------
            acell      5.2805547473E+00  5.2805547473E+00  5.2805547473E+00 Bohr
              amu      1.00794000E+00
             awtr1          1
             awtr2          0
             awtr3          1
             bdgw           1       2       1       2       1       2
           diemac      1.20000000E+01
             ecut1     1.20000000E+01 Hartree
             ecut2     1.13263669E+01 Hartree
             ecut3     1.13263669E+01 Hartree
          ecuteps1     0.00000000E+00 Hartree
          ecuteps2     4.24738757E+00 Hartree
          ecuteps3     4.24738757E+00 Hartree
         ecutsigx1     0.00000000E+00 Hartree
         ecutsigx2     0.00000000E+00 Hartree
         ecutsigx3     8.49477515E+00 Hartree
          ecutwfn1     1.20000000E+01 Hartree
          ecutwfn2     1.13263669E+01 Hartree
          ecutwfn3     1.13263669E+01 Hartree
           enunit           2
           etotal1    -9.9473984624E-01
           etotal2     0.0000000000E+00
           etotal3     0.0000000000E+00
            fcart1    -0.0000000000E+00 -0.0000000000E+00 -0.0000000000E+00
                      -0.0000000000E+00 -0.0000000000E+00 -0.0000000000E+00
            fcart2     0.0000000000E+00  0.0000000000E+00  0.0000000000E+00
                       0.0000000000E+00  0.0000000000E+00  0.0000000000E+00
            fcart3     0.0000000000E+00  0.0000000000E+00  0.0000000000E+00
                       0.0000000000E+00  0.0000000000E+00  0.0000000000E+00
-          fftalg         112
            fftgw          11
           getkss1          0
           getkss2          1
           getkss3          1
           getscr1          0
           getscr2          0
           getscr3          2
         icutcoul1          6
         icutcoul2          6
         icutcoul3          3
          inclvkb1          1
          inclvkb2          0
          inclvkb3          1
           jdtset        1    2    3
              kpt      1.25000000E-01  1.25000000E-01  1.25000000E-01
                       3.75000000E-01  1.25000000E-01  1.25000000E-01
                       3.75000000E-01  3.75000000E-01  1.25000000E-01
                       3.75000000E-01  3.75000000E-01  3.75000000E-01
            kptgw      1.25000000E-01  1.25000000E-01  1.25000000E-01
                       3.75000000E-01  3.75000000E-01  1.25000000E-01
                       3.75000000E-01  3.75000000E-01  3.75000000E-01
         kptrlatt        4    0    0      0    4    0      0    0    4
          kptrlen      2.11222190E+01
          kssform1          3
          kssform2          1
          kssform3          1
P           mkmem           4
            natom           2
            nband1         25
            nband2         20
            nband3         20
         nbandkss1         20
         nbandkss2          0
         nbandkss3          0
           nbdbuf1          5
           nbdbuf2          0
           nbdbuf3          0
           ndtset           3
            ngfft1         18      18      18
            ngfft2         16      16      16
            ngfft3         16      16      16
             nkpt           4
           nkptgw           3
           npweps1          0
           npweps2         81
           npweps3         81
          npwsigx1          0
          npwsigx2          0
          npwsigx3        179
           npwwfn1          0
           npwwfn2        257
           npwwfn3        257
           nsheps1          0
           nsheps2          7
           nsheps3          7
          nshsigx1          0
          nshsigx2          0
          nshsigx3         13
           nspden           2
            nstep          20
             nsym          96
           ntypat           1
              occ1     2.000000  0.000000  0.000000  0.000000  0.000000  0.000000
                       0.000000  0.000000  0.000000  0.000000  0.000000  0.000000
                       0.000000  0.000000  0.000000  0.000000  0.000000  0.000000
                       0.000000  0.000000  0.000000  0.000000  0.000000  0.000000
                       0.000000
              occ2     2.000000  0.000000  0.000000  0.000000  0.000000  0.000000
                       0.000000  0.000000  0.000000  0.000000  0.000000  0.000000
                       0.000000  0.000000  0.000000  0.000000  0.000000  0.000000
                       0.000000  0.000000
              occ3     2.000000  0.000000  0.000000  0.000000  0.000000  0.000000
                       0.000000  0.000000  0.000000  0.000000  0.000000  0.000000
                       0.000000  0.000000  0.000000  0.000000  0.000000  0.000000
                       0.000000  0.000000
        optdriver1          0
        optdriver2          3
        optdriver3          4
        prtdensph           1
           prtvol           1
           shiftk      5.00000000E-01  5.00000000E-01  5.00000000E-01
          spgroup         221
           spinat      0.0000000000E+00  0.0000000000E+00  1.0000000000E+00
                       0.0000000000E+00  0.0000000000E+00 -1.0000000000E+00
           strten1     3.9463483473E-04  3.9463483473E-04  3.9463483473E-04
                       0.0000000000E+00  0.0000000000E+00  0.0000000000E+00
           strten2     0.0000000000E+00  0.0000000000E+00  0.0000000000E+00
                       0.0000000000E+00  0.0000000000E+00  0.0000000000E+00
           strten3     0.0000000000E+00  0.0000000000E+00  0.0000000000E+00
                       0.0000000000E+00  0.0000000000E+00  0.0000000000E+00
           symafm        1   -1    1   -1    1   -1    1   -1    1   -1
                         1   -1    1   -1    1   -1    1   -1    1   -1
                         1   -1    1   -1    1   -1    1   -1    1   -1
                         1   -1    1   -1    1   -1    1   -1    1   -1
                         1   -1    1   -1    1   -1    1   -1    1   -1
                         1   -1    1   -1    1   -1    1   -1    1   -1
                         1   -1    1   -1    1   -1    1   -1    1   -1
                         1   -1    1   -1    1   -1    1   -1    1   -1
                         1   -1    1   -1    1   -1    1   -1    1   -1
                         1   -1    1   -1    1   -1
           symchi1       0
           symchi2       1
           symchi3       0
           symrel      1  0  0   0  1  0   0  0  1       1  0  0   0  1  0   0  0  1
                      -1  0  0   0 -1  0   0  0 -1      -1  0  0   0 -1  0   0  0 -1
                      -1  0  0   0  1  0   0  0 -1      -1  0  0   0  1  0   0  0 -1
                       1  0  0   0 -1  0   0  0  1       1  0  0   0 -1  0   0  0  1
                      -1  0  0   0 -1  0   0  0  1      -1  0  0   0 -1  0   0  0  1
                       1  0  0   0  1  0   0  0 -1       1  0  0   0  1  0   0  0 -1
                       1  0  0   0 -1  0   0  0 -1       1  0  0   0 -1  0   0  0 -1
                      -1  0  0   0  1  0   0  0  1      -1  0  0   0  1  0   0  0  1
                       0  1  0   1  0  0   0  0  1       0  1  0   1  0  0   0  0  1
                       0 -1  0  -1  0  0   0  0 -1       0 -1  0  -1  0  0   0  0 -1
                       0 -1  0   1  0  0   0  0 -1       0 -1  0   1  0  0   0  0 -1
                       0  1  0  -1  0  0   0  0  1       0  1  0  -1  0  0   0  0  1
                       0 -1  0  -1  0  0   0  0  1       0 -1  0  -1  0  0   0  0  1
                       0  1  0   1  0  0   0  0 -1       0  1  0   1  0  0   0  0 -1
                       0  1  0  -1  0  0   0  0 -1       0  1  0  -1  0  0   0  0 -1
                       0 -1  0   1  0  0   0  0  1       0 -1  0   1  0  0   0  0  1
                       0  0  1   1  0  0   0  1  0       0  0  1   1  0  0   0  1  0
                       0  0 -1  -1  0  0   0 -1  0       0  0 -1  -1  0  0   0 -1  0
                       0  0 -1   1  0  0   0 -1  0       0  0 -1   1  0  0   0 -1  0
                       0  0  1  -1  0  0   0  1  0       0  0  1  -1  0  0   0  1  0
                       0  0 -1  -1  0  0   0  1  0       0  0 -1  -1  0  0   0  1  0
                       0  0  1   1  0  0   0 -1  0       0  0  1   1  0  0   0 -1  0
                       0  0  1  -1  0  0   0 -1  0       0  0  1  -1  0  0   0 -1  0
                       0  0 -1   1  0  0   0  1  0       0  0 -1   1  0  0   0  1  0
                       1  0  0   0  0  1   0  1  0       1  0  0   0  0  1   0  1  0
                      -1  0  0   0  0 -1   0 -1  0      -1  0  0   0  0 -1   0 -1  0
                      -1  0  0   0  0  1   0 -1  0      -1  0  0   0  0  1   0 -1  0
                       1  0  0   0  0 -1   0  1  0       1  0  0   0  0 -1   0  1  0
                      -1  0  0   0  0 -1   0  1  0      -1  0  0   0  0 -1   0  1  0
                       1  0  0   0  0  1   0 -1  0       1  0  0   0  0  1   0 -1  0
                       1  0  0   0  0 -1   0 -1  0       1  0  0   0  0 -1   0 -1  0
                      -1  0  0   0  0  1   0  1  0      -1  0  0   0  0  1   0  1  0
                       0  1  0   0  0  1   1  0  0       0  1  0   0  0  1   1  0  0
                       0 -1  0   0  0 -1  -1  0  0       0 -1  0   0  0 -1  -1  0  0
                       0 -1  0   0  0  1  -1  0  0       0 -1  0   0  0  1  -1  0  0
                       0  1  0   0  0 -1   1  0  0       0  1  0   0  0 -1   1  0  0
                       0 -1  0   0  0 -1   1  0  0       0 -1  0   0  0 -1   1  0  0
                       0  1  0   0  0  1  -1  0  0       0  1  0   0  0  1  -1  0  0
                       0  1  0   0  0 -1  -1  0  0       0  1  0   0  0 -1  -1  0  0
                       0 -1  0   0  0  1   1  0  0       0 -1  0   0  0  1   1  0  0
                       0  0  1   0  1  0   1  0  0       0  0  1   0  1  0   1  0  0
                       0  0 -1   0 -1  0  -1  0  0       0  0 -1   0 -1  0  -1  0  0
                       0  0 -1   0  1  0  -1  0  0       0  0 -1   0  1  0  -1  0  0
                       0  0  1   0 -1  0   1  0  0       0  0  1   0 -1  0   1  0  0
                       0  0 -1   0 -1  0   1  0  0       0  0 -1   0 -1  0   1  0  0
                       0  0  1   0  1  0  -1  0  0       0  0  1   0  1  0  -1  0  0
                       0  0  1   0 -1  0  -1  0  0       0  0  1   0 -1  0  -1  0  0
                       0  0 -1   0  1  0   1  0  0       0  0 -1   0  1  0   1  0  0
         symsigma1       0
         symsigma2       0
         symsigma3       1
            tnons      0.0000000  0.0000000  0.0000000     0.5000000  0.5000000  0.5000000
                       0.0000000  0.0000000  0.0000000     0.5000000  0.5000000  0.5000000
                       0.0000000  0.0000000  0.0000000     0.5000000  0.5000000  0.5000000
                       0.0000000  0.0000000  0.0000000     0.5000000  0.5000000  0.5000000
                       0.0000000  0.0000000  0.0000000     0.5000000  0.5000000  0.5000000
                       0.0000000  0.0000000  0.0000000     0.5000000  0.5000000  0.5000000
                       0.0000000  0.0000000  0.0000000     0.5000000  0.5000000  0.5000000
                       0.0000000  0.0000000  0.0000000     0.5000000  0.5000000  0.5000000
                       0.0000000  0.0000000  0.0000000     0.5000000  0.5000000  0.5000000
                       0.0000000  0.0000000  0.0000000     0.5000000  0.5000000  0.5000000
                       0.0000000  0.0000000  0.0000000     0.5000000  0.5000000  0.5000000
                       0.0000000  0.0000000  0.0000000     0.5000000  0.5000000  0.5000000
                       0.0000000  0.0000000  0.0000000     0.5000000  0.5000000  0.5000000
                       0.0000000  0.0000000  0.0000000     0.5000000  0.5000000  0.5000000
                       0.0000000  0.0000000  0.0000000     0.5000000  0.5000000  0.5000000
                       0.0000000  0.0000000  0.0000000     0.5000000  0.5000000  0.5000000
                       0.0000000  0.0000000  0.0000000     0.5000000  0.5000000  0.5000000
                       0.0000000  0.0000000  0.0000000     0.5000000  0.5000000  0.5000000
                       0.0000000  0.0000000  0.0000000     0.5000000  0.5000000  0.5000000
                       0.0000000  0.0000000  0.0000000     0.5000000  0.5000000  0.5000000
                       0.0000000  0.0000000  0.0000000     0.5000000  0.5000000  0.5000000
                       0.0000000  0.0000000  0.0000000     0.5000000  0.5000000  0.5000000
                       0.0000000  0.0000000  0.0000000     0.5000000  0.5000000  0.5000000
                       0.0000000  0.0000000  0.0000000     0.5000000  0.5000000  0.5000000
                       0.0000000  0.0000000  0.0000000     0.5000000  0.5000000  0.5000000
                       0.0000000  0.0000000  0.0000000     0.5000000  0.5000000  0.5000000
                       0.0000000  0.0000000  0.0000000     0.5000000  0.5000000  0.5000000
                       0.0000000  0.0000000  0.0000000     0.5000000  0.5000000  0.5000000
                       0.0000000  0.0000000  0.0000000     0.5000000  0.5000000  0.5000000
                       0.0000000  0.0000000  0.0000000     0.5000000  0.5000000  0.5000000
                       0.0000000  0.0000000  0.0000000     0.5000000  0.5000000  0.5000000
                       0.0000000  0.0000000  0.0000000     0.5000000  0.5000000  0.5000000
                       0.0000000  0.0000000  0.0000000     0.5000000  0.5000000  0.5000000
                       0.0000000  0.0000000  0.0000000     0.5000000  0.5000000  0.5000000
                       0.0000000  0.0000000  0.0000000     0.5000000  0.5000000  0.5000000
                       0.0000000  0.0000000  0.0000000     0.5000000  0.5000000  0.5000000
                       0.0000000  0.0000000  0.0000000     0.5000000  0.5000000  0.5000000
                       0.0000000  0.0000000  0.0000000     0.5000000  0.5000000  0.5000000
                       0.0000000  0.0000000  0.0000000     0.5000000  0.5000000  0.5000000
                       0.0000000  0.0000000  0.0000000     0.5000000  0.5000000  0.5000000
                       0.0000000  0.0000000  0.0000000     0.5000000  0.5000000  0.5000000
                       0.0000000  0.0000000  0.0000000     0.5000000  0.5000000  0.5000000
                       0.0000000  0.0000000  0.0000000     0.5000000  0.5000000  0.5000000
                       0.0000000  0.0000000  0.0000000     0.5000000  0.5000000  0.5000000
                       0.0000000  0.0000000  0.0000000     0.5000000  0.5000000  0.5000000
                       0.0000000  0.0000000  0.0000000     0.5000000  0.5000000  0.5000000
                       0.0000000  0.0000000  0.0000000     0.5000000  0.5000000  0.5000000
                       0.0000000  0.0000000  0.0000000     0.5000000  0.5000000  0.5000000
           tolwfr1     1.00000000E-10
           tolwfr2     0.00000000E+00
           tolwfr3     0.00000000E+00
            typat      1  1
              wtk        0.12500    0.37500    0.37500    0.12500
           xangst      0.0000000000E+00  0.0000000000E+00  0.0000000000E+00
                       1.3971746105E+00  1.3971746105E+00  1.3971746105E+00
            xcart      0.0000000000E+00  0.0000000000E+00  0.0000000000E+00
                       2.6402773737E+00  2.6402773737E+00  2.6402773737E+00
             xred      0.0000000000E+00  0.0000000000E+00  0.0000000000E+00
                       5.0000000000E-01  5.0000000000E-01  5.0000000000E-01
            znucl        1.00000

================================================================================


- Timing analysis has been suppressed with timopt=0



================================================================================

 Suggested references for the acknowledgment of ABINIT usage.

 The users of ABINIT have little formal obligations with respect to the ABINIT group
 (those specified in the GNU General Public License, http://www.gnu.org/copyleft/gpl.txt).
 However, it is common practice in the scientific literature,
 to acknowledge the efforts of people that have made the research possible.
 In this spirit, please find below suggested citations of work written by ABINIT developers,
 corresponding to implementations inside of ABINIT that you have used in the present run.
 Note also that it will be of great value to readers of publications presenting these results,
 to read papers enabling them to understand the theoretical formalism and details
 of the ABINIT implementation.
 For information on why they are suggested, see also http://www.abinit.org/about/?text=acknowledgments.

 [1] ABINIT : First-principles approach of materials and nanosystem properties.
 X. Gonze, B. Amadon, P.-M. Anglade, J.-M. Beuken, F. Bottin, P. Boulanger, F. Bruneval,
 D. Caliste, R. Caracas, M. Cote, T. Deutsch, L. Genovese, Ph. Ghosez, M. Giantomassi
 S. Goedecker, D.R. Hamann, P. Hermet, F. Jollet, G. Jomard, S. Leroux, M. Mancini, S. Mazevet,
 M.J.T. Oliveira, G. Onida, Y. Pouillon, T. Rangel, G.-M. Rignanese, D. Sangalli, R. Shaltaf,
 M. Torrent, M.J. Verstraete, G. Zerah, J.W. Zwanziger
 Computer Phys. Comm. 180, 2582-2615 (2009).
 Comment : the third generic paper describing the ABINIT project.
 Note that a version of this paper, that is not formatted for Computer Phys. Comm. 
 is available at http://www.abinit.org/about/ABINIT_CPC_v10.pdf .
 The licence allows the authors to put it on the Web.

 [2] A brief introduction to the ABINIT software package.
 X. Gonze, G.-M. Rignanese, M. Verstraete, J.-M. Beuken, Y. Pouillon, R. Caracas, F. Jollet,
 M. Torrent, G. Zerah, M. Mikami, Ph. Ghosez, M. Veithen, J.-Y. Raty, V. Olevano, F. Bruneval,
 L. Reining, R. Godby, G. Onida, D.R. Hamann, and D.C. Allan.
 Z. Kristallogr. 220, 558-562 (2005).
 Comment : the second generic paper describing the ABINIT project. Note that this paper
 should be cited especially if you are using the GW part of ABINIT, as several authors
 of this part are not in the list of authors of the first or third paper.
 The .pdf of the latter paper is available at http://www.abinit.org/about/zfk_0505-06_558-562.pdf.
 Note that it should not redistributed (Copyright by Oldenburg Wissenshaftverlag,
 the licence allows the authors to put it on the Web).


 And optionally :

 [3] First-principles computation of material properties : the ABINIT software project. 
 X. Gonze, J.-M. Beuken, R. Caracas, F. Detraux, M. Fuchs, G.-M. Rignanese, L. Sindic,
 M. Verstraete, G. Zerah, F. Jollet, M. Torrent, A. Roy, M. Mikami, Ph. Ghosez, J.-Y. Raty, D.C. Allan.
 Computational Materials Science 25, 478-492 (2002). http://dx.doi.org/10.1016/S0927-0256(02)00325-7
 Comment : the original paper describing the ABINIT project.

 [4] Fast radix 2, 3, 4 and 5 kernels for Fast Fourier Transformations
 on computers with overlapping multiply-add instructions.
 S. Goedecker, SIAM J. on Scientific Computing 18, 1605 (1997).
-
- Proc.   0 individual time (sec): cpu=          6.8  wall=          6.8

================================================================================

 Calculation completed.
.Delivered   10 WARNINGs and  15 COMMENTs to log file.
+Overall time at end (sec) : cpu=          6.8  wall=          6.8
