
.Version 7.9.3 of ABINIT 
.(MPI version, prepared for a x86_64_linux_gnu4.7 computer) 

.Copyright (C) 1998-2014 ABINIT group . 
 ABINIT comes with ABSOLUTELY NO WARRANTY.
 It is free software, and you are welcome to redistribute it
 under certain conditions (GNU General Public License,
 see ~abinit/COPYING or http://www.gnu.org/copyleft/gpl.txt).

 ABINIT is a project of the Universite Catholique de Louvain,
 Corning Inc. and other collaborators, see ~abinit/doc/developers/contributors.txt .
 Please read ~abinit/doc/users/acknowledgments.html for suggested
 acknowledgments of the ABINIT effort.
 For more information, see http://www.abinit.org .

.Starting date : Sat 30 Aug 2014.
- ( at 22h38 )
  
- input  file    -> t71.in
- output file    -> t71.out
- root for input  files -> t71i
- root for output files -> t71o


 DATASET    1 : space group Fd -3 m (#227); Bravais cF (face-center cubic)
================================================================================
 Values of the parameters that define the memory need for DATASET  1.
   intxc =         0  ionmov =         0    iscf =         7 xclevel =         1
  lmnmax =         2   lnmax =         2   mband =        55  mffmem =         1
P  mgfft =        24   mkmem =        16 mpssoang=         3     mpw =       544
  mqgrid =      3001   natom =         2    nfft =     13824    nkpt =        16
  nloalg =         4  nspden =         1 nspinor =         1  nsppol =         1
    nsym =        48  n1xccc =      2501  ntypat =         1  occopt =         1
================================================================================
P This job should need less than                      12.158 Mbytes of memory.
  Rough estimation (10% accuracy) of disk space for files :
_ WF disk file :      7.307 Mbytes ; DEN or POT disk file :      0.107 Mbytes.
================================================================================


 DATASET    2 : space group Fd -3 m (#227); Bravais cF (face-center cubic)
================================================================================
 Values of the parameters that define the memory need for DATASET  2.
   intxc =         0  ionmov =         0    iscf =         7 xclevel =         1
  lmnmax =         2   lnmax =         2   mband =        25  mffmem =         1
P  mgfft =        24   mkmem =        16 mpssoang=         3     mpw =       489
  mqgrid =      3001   natom =         2    nfft =     13824    nkpt =        16
  nloalg =         4  nspden =         1 nspinor =         1  nsppol =         1
    nsym =        48  n1xccc =      2501  ntypat =         1  occopt =         1
================================================================================
P This job should need less than                       7.678 Mbytes of memory.
  Rough estimation (10% accuracy) of disk space for files :
_ WF disk file :      2.987 Mbytes ; DEN or POT disk file :      0.107 Mbytes.
================================================================================


 DATASET    3 : space group Fd -3 m (#227); Bravais cF (face-center cubic)
================================================================================
 Values of the parameters that define the memory need for DATASET  3.
   intxc =         0  ionmov =         0    iscf =         7 xclevel =         1
  lmnmax =         2   lnmax =         2   mband =        25  mffmem =         1
P  mgfft =        24   mkmem =        16 mpssoang=         3     mpw =       489
  mqgrid =      3001   natom =         2    nfft =     13824    nkpt =        16
  nloalg =         4  nspden =         1 nspinor =         1  nsppol =         1
    nsym =        48  n1xccc =      2501  ntypat =         1  occopt =         1
================================================================================
P This job should need less than                       7.678 Mbytes of memory.
  Rough estimation (10% accuracy) of disk space for files :
_ WF disk file :      2.987 Mbytes ; DEN or POT disk file :      0.107 Mbytes.
================================================================================

--------------------------------------------------------------------------------
------------- Echo of variables that govern the present computation ------------
--------------------------------------------------------------------------------
-
- outvars: echo of selected default values                                      
-   accesswff0 =  0 , fftalg0 =112 , wfoptalg0 =  0
-
- outvars: echo of global parameters not present in the input file              
-  max_nthreads =    0
-
 -outvars: echo values of preprocessed input variables --------
            acell      1.0217000000E+01  1.0217000000E+01  1.0217000000E+01 Bohr
              amu      2.80855000E+01
             bdgw           1       7       1       6       1       7
           diemac      1.20000000E+01
             ecut1     1.20000000E+01 Hartree
             ecut2     1.11566797E+01 Hartree
             ecut3     1.11566797E+01 Hartree
          ecuteps1     3.00000000E+00 Hartree
          ecuteps2     2.26915520E+00 Hartree
          ecuteps3     2.26915520E+00 Hartree
         ecutsigx1     3.00000000E+00 Hartree
         ecutsigx2     2.26915520E+00 Hartree
         ecutsigx3     2.26915520E+00 Hartree
          ecutwfn1     1.20000000E+01 Hartree
          ecutwfn2     1.11566797E+01 Hartree
          ecutwfn3     1.11566797E+01 Hartree
-          fftalg         112
        freqremax1     0.00000000E+00 Hartree
        freqremax2     9.18733135E-01 Hartree
        freqremax3     0.00000000E+00 Hartree
           getkss1          0
           getkss2          1
           getkss3          1
           getscr1          0
           getscr2          0
           getscr3          2
        gwcalctyp           2
           gwpara           2
         icutcoul1          6
         icutcoul2          6
         icutcoul3          3
          inclvkb           0
           istwfk        1    0    0    1    0    0    0    0    0    0
                         0    0    1    0    0    0
           jdtset        1    2    3
              kpt      0.00000000E+00  0.00000000E+00  0.00000000E+00
                       1.66666667E-01  0.00000000E+00  0.00000000E+00
                       3.33333333E-01  0.00000000E+00  0.00000000E+00
                       5.00000000E-01  0.00000000E+00  0.00000000E+00
                       1.66666667E-01  1.66666667E-01  0.00000000E+00
                       3.33333333E-01  1.66666667E-01  0.00000000E+00
                       5.00000000E-01  1.66666667E-01  0.00000000E+00
                      -3.33333333E-01  1.66666667E-01  0.00000000E+00
                      -1.66666667E-01  1.66666667E-01  0.00000000E+00
                       3.33333333E-01  3.33333333E-01  0.00000000E+00
                       5.00000000E-01  3.33333333E-01  0.00000000E+00
                      -3.33333333E-01  3.33333333E-01  0.00000000E+00
                       5.00000000E-01  5.00000000E-01  0.00000000E+00
                       5.00000000E-01  3.33333333E-01  1.66666667E-01
                      -3.33333333E-01  3.33333333E-01  1.66666667E-01
                      -3.33333333E-01  5.00000000E-01  1.66666667E-01
            kptgw      0.00000000E+00  0.00000000E+00  0.00000000E+00
                       5.00000000E-01  5.00000000E-01  0.00000000E+00
                       5.00000000E-01  0.00000000E+00  0.00000000E+00
         kptrlatt        6    0    0      0    6    0      0    0    6
          kptrlen      4.33470599E+01
          kssform1          3
          kssform2          1
          kssform3          1
P           mkmem          16
            natom           2
            nband1         55
            nband2         25
            nband3         25
         nbandkss1         50
         nbandkss2          0
         nbandkss3          0
           nbdbuf1          5
           nbdbuf2          0
           nbdbuf3          0
           ndtset           3
          nfreqim1         -1
          nfreqim2          5
          nfreqim3         -1
          nfreqre1         -1
          nfreqre2         15
          nfreqre3         -1
            ngfft          24      24      24
             nkpt          16
           nkptgw           3
         nomegasf1        100
         nomegasf2        250
         nomegasf3        100
           npweps1          0
           npweps2         59
           npweps3         59
          npwsigx1          0
          npwsigx2         59
          npwsigx3         59
           npwwfn1          0
           npwwfn2        531
           npwwfn3        531
           nsheps1          0
           nsheps2          6
           nsheps3          6
          nshsigx1          0
          nshsigx2          6
          nshsigx3          6
            nstep         500
             nsym          48
           ntypat           1
              occ1     2.000000  2.000000  2.000000  2.000000  0.000000  0.000000
                       0.000000  0.000000  0.000000  0.000000  0.000000  0.000000
                       0.000000  0.000000  0.000000  0.000000  0.000000  0.000000
                       0.000000  0.000000  0.000000  0.000000  0.000000  0.000000
                       0.000000  0.000000  0.000000  0.000000  0.000000  0.000000
                       0.000000  0.000000  0.000000  0.000000  0.000000  0.000000
                       0.000000  0.000000  0.000000  0.000000  0.000000  0.000000
                       0.000000  0.000000  0.000000  0.000000  0.000000  0.000000
                       0.000000  0.000000  0.000000  0.000000  0.000000  0.000000
                       0.000000
              occ2     2.000000  2.000000  2.000000  2.000000  0.000000  0.000000
                       0.000000  0.000000  0.000000  0.000000  0.000000  0.000000
                       0.000000  0.000000  0.000000  0.000000  0.000000  0.000000
                       0.000000  0.000000  0.000000  0.000000  0.000000  0.000000
                       0.000000
              occ3     2.000000  2.000000  2.000000  2.000000  0.000000  0.000000
                       0.000000  0.000000  0.000000  0.000000  0.000000  0.000000
                       0.000000  0.000000  0.000000  0.000000  0.000000  0.000000
                       0.000000  0.000000  0.000000  0.000000  0.000000  0.000000
                       0.000000
        optdriver1          0
        optdriver2          3
        optdriver3          4
            rprim      0.0000000000E+00  5.0000000000E-01  5.0000000000E-01
                       5.0000000000E-01  0.0000000000E+00  5.0000000000E-01
                       5.0000000000E-01  5.0000000000E-01  0.0000000000E+00
          spgroup         227
           spmeth1          0
           spmeth2          1
           spmeth3          0
           symchi1       0
           symchi2       1
           symchi3       0
           symrel      1  0  0   0  1  0   0  0  1      -1  0  0   0 -1  0   0  0 -1
                       0 -1  1   0 -1  0   1 -1  0       0  1 -1   0  1  0  -1  1  0
                      -1  0  0  -1  0  1  -1  1  0       1  0  0   1  0 -1   1 -1  0
                       0  1 -1   1  0 -1   0  0 -1       0 -1  1  -1  0  1   0  0  1
                      -1  0  0  -1  1  0  -1  0  1       1  0  0   1 -1  0   1  0 -1
                       0 -1  1   1 -1  0   0 -1  0       0  1 -1  -1  1  0   0  1  0
                       1  0  0   0  0  1   0  1  0      -1  0  0   0  0 -1   0 -1  0
                       0  1 -1   0  0 -1   1  0 -1       0 -1  1   0  0  1  -1  0  1
                      -1  0  1  -1  1  0  -1  0  0       1  0 -1   1 -1  0   1  0  0
                       0 -1  0   1 -1  0   0 -1  1       0  1  0  -1  1  0   0  1 -1
                       1  0 -1   0  0 -1   0  1 -1      -1  0  1   0  0  1   0 -1  1
                       0  1  0   0  0  1   1  0  0       0 -1  0   0  0 -1  -1  0  0
                       1  0 -1   0  1 -1   0  0 -1      -1  0  1   0 -1  1   0  0  1
                       0 -1  0   0 -1  1   1 -1  0       0  1  0   0  1 -1  -1  1  0
                      -1  0  1  -1  0  0  -1  1  0       1  0 -1   1  0  0   1 -1  0
                       0  1  0   1  0  0   0  0  1       0 -1  0  -1  0  0   0  0 -1
                       0  0 -1   0  1 -1   1  0 -1       0  0  1   0 -1  1  -1  0  1
                       1 -1  0   0 -1  1   0 -1  0      -1  1  0   0  1 -1   0  1  0
                       0  0  1   1  0  0   0  1  0       0  0 -1  -1  0  0   0 -1  0
                      -1  1  0  -1  0  0  -1  0  1       1 -1  0   1  0  0   1  0 -1
                       0  0  1   0  1  0   1  0  0       0  0 -1   0 -1  0  -1  0  0
                       1 -1  0   0 -1  0   0 -1  1      -1  1  0   0  1  0   0  1 -1
                       0  0 -1   1  0 -1   0  1 -1       0  0  1  -1  0  1   0 -1  1
                      -1  1  0  -1  0  1  -1  0  0       1 -1  0   1  0 -1   1  0  0
         symsigma1       0
         symsigma2       0
         symsigma3       1
            tnons      0.0000000  0.0000000  0.0000000     0.2500000  0.2500000  0.2500000
                       0.0000000  0.0000000  0.0000000     0.2500000  0.2500000  0.2500000
                       0.0000000  0.0000000  0.0000000     0.2500000  0.2500000  0.2500000
                       0.0000000  0.0000000  0.0000000     0.2500000  0.2500000  0.2500000
                       0.0000000  0.0000000  0.0000000     0.2500000  0.2500000  0.2500000
                       0.0000000  0.0000000  0.0000000     0.2500000  0.2500000  0.2500000
                       0.0000000  0.0000000  0.0000000     0.2500000  0.2500000  0.2500000
                       0.0000000  0.0000000  0.0000000     0.2500000  0.2500000  0.2500000
                       0.0000000  0.0000000  0.0000000     0.2500000  0.2500000  0.2500000
                       0.0000000  0.0000000  0.0000000     0.2500000  0.2500000  0.2500000
                       0.0000000  0.0000000  0.0000000     0.2500000  0.2500000  0.2500000
                       0.0000000  0.0000000  0.0000000     0.2500000  0.2500000  0.2500000
                       0.0000000  0.0000000  0.0000000     0.2500000  0.2500000  0.2500000
                       0.0000000  0.0000000  0.0000000     0.2500000  0.2500000  0.2500000
                       0.0000000  0.0000000  0.0000000     0.2500000  0.2500000  0.2500000
                       0.0000000  0.0000000  0.0000000     0.2500000  0.2500000  0.2500000
                       0.0000000  0.0000000  0.0000000     0.2500000  0.2500000  0.2500000
                       0.0000000  0.0000000  0.0000000     0.2500000  0.2500000  0.2500000
                       0.0000000  0.0000000  0.0000000     0.2500000  0.2500000  0.2500000
                       0.0000000  0.0000000  0.0000000     0.2500000  0.2500000  0.2500000
                       0.0000000  0.0000000  0.0000000     0.2500000  0.2500000  0.2500000
                       0.0000000  0.0000000  0.0000000     0.2500000  0.2500000  0.2500000
                       0.0000000  0.0000000  0.0000000     0.2500000  0.2500000  0.2500000
                       0.0000000  0.0000000  0.0000000     0.2500000  0.2500000  0.2500000
           tolwfr1     1.00000000E-10
           tolwfr2     0.00000000E+00
           tolwfr3     0.00000000E+00
            typat      1  1
              wtk        0.00463    0.03704    0.03704    0.01852    0.02778    0.11111
                         0.11111    0.11111    0.05556    0.02778    0.11111    0.05556
                         0.01389    0.11111    0.11111    0.05556
           xangst      0.0000000000E+00  0.0000000000E+00  0.0000000000E+00
                       1.3516508850E+00  1.3516508850E+00  1.3516508850E+00
            xcart      0.0000000000E+00  0.0000000000E+00  0.0000000000E+00
                       2.5542500000E+00  2.5542500000E+00  2.5542500000E+00
             xred      0.0000000000E+00  0.0000000000E+00  0.0000000000E+00
                       2.5000000000E-01  2.5000000000E-01  2.5000000000E-01
            znucl       14.00000

================================================================================

 chkinp: Checking input parameters for consistency, jdtset=   1.

 chkinp: Checking input parameters for consistency, jdtset=   2.

 chkinp: Checking input parameters for consistency, jdtset=   3.

================================================================================
== DATASET  1 ==================================================================
-   nproc =    1

 Exchange-correlation functional for the present dataset will be:
  LDA: new Teter (4/93) with spin-polarized option - ixc=1
 Citation for XC functional:
  S. Goedecker, M. Teter, J. Huetter, PRB 54, 1703 (1996)

 Real(R)+Recip(G) space primitive vectors, cartesian coordinates (Bohr,Bohr^-1):
 R(1)=  0.0000000  5.1085000  5.1085000  G(1)= -0.0978761  0.0978761  0.0978761
 R(2)=  5.1085000  0.0000000  5.1085000  G(2)=  0.0978761 -0.0978761  0.0978761
 R(3)=  5.1085000  5.1085000  0.0000000  G(3)=  0.0978761  0.0978761 -0.0978761
 Unit cell volume ucvol=  2.6663072E+02 bohr^3
 Angles (23,13,12)=  6.00000000E+01  6.00000000E+01  6.00000000E+01 degrees

 getcut: wavevector=  0.0000  0.0000  0.0000  ngfft=  24  24  24
         ecut(hartree)=     12.000   => boxcut(ratio)=   2.13033

--- Pseudopotential description ------------------------------------------------
- pspini: atom type   1  psp file is /home/gonze/ABINIT/ABINITv7.9.3/trunk/7.9.3-private/tests/Psps_for_tests/14si.pspnc
- pspatm: opening atomic psp file    /home/gonze/ABINIT/ABINITv7.9.3/trunk/7.9.3-private/tests/Psps_for_tests/14si.pspnc
-  Troullier-Martins psp for element  Si        Thu Oct 27 17:31:21 EDT 1994
- 14.00000   4.00000    940714                znucl, zion, pspdat
    1    1    2    2      2001   0.00000      pspcod,pspxc,lmax,lloc,mmax,r2well
    0   5.907  14.692    1   2.0872718        l,e99.0,e99.9,nproj,rcpsp
   0.00000000   0.00000000   0.00000000   0.00000000     rms, ekb1, ekb2, epsatm
    1   2.617   4.181    1   2.0872718        l,e99.0,e99.9,nproj,rcpsp
   0.00000000   0.00000000   0.00000000   0.00000000     rms, ekb1, ekb2, epsatm
    2   0.000   0.000    0   2.0872718        l,e99.0,e99.9,nproj,rcpsp
   0.00000000   0.00000000   0.00000000   0.00000000     rms, ekb1, ekb2, epsatm
    1.80626423934776    0.22824404341771    1.17378968127746   rchrg,fchrg,qchrg
 pspatm: epsatm=    1.43386982
         --- l  ekb(1:nproj) -->
             0    3.287949
             1    1.849886
 pspatm: atomic psp has been read  and splines computed

   2.29419171E+01                                ecore*ucvol(ha*bohr**3)
--------------------------------------------------------------------------------

P newkpt: treating     55 bands with npw=     531 for ikpt=   1 by node    0
P newkpt: treating     55 bands with npw=     540 for ikpt=   2 by node    0
P newkpt: treating     55 bands with npw=     528 for ikpt=   3 by node    0
P newkpt: treating     55 bands with npw=     544 for ikpt=   4 by node    0
P newkpt: treating     55 bands with npw=     532 for ikpt=   5 by node    0
P newkpt: treating     55 bands with npw=     529 for ikpt=   6 by node    0
P newkpt: treating     55 bands with npw=     532 for ikpt=   7 by node    0
P newkpt: treating     55 bands with npw=     530 for ikpt=   8 by node    0
P newkpt: treating     55 bands with npw=     537 for ikpt=   9 by node    0
P newkpt: treating     55 bands with npw=     540 for ikpt=  10 by node    0
P newkpt: treating     55 bands with npw=     528 for ikpt=  11 by node    0
P newkpt: treating     55 bands with npw=     528 for ikpt=  12 by node    0
P newkpt: treating     55 bands with npw=     524 for ikpt=  13 by node    0
P newkpt: treating     55 bands with npw=     535 for ikpt=  14 by node    0
P newkpt: treating     55 bands with npw=     524 for ikpt=  15 by node    0
P newkpt: treating     55 bands with npw=     518 for ikpt=  16 by node    0

_setup2: Arith. and geom. avg. npw (full set) are     530.199     530.171

================================================================================

     iter   Etot(hartree)      deltaE(h)  residm     vres2
 ETOT  1  -8.8690344765279    -8.869E+00 1.579E-02 1.033E+01
 ETOT  2  -8.8740983157342    -5.064E-03 1.092E-04 2.613E-01
 ETOT  3  -8.8741696717167    -7.136E-05 1.607E-05 5.744E-03
 ETOT  4  -8.8741707263139    -1.055E-06 9.814E-07 2.457E-05
 ETOT  5  -8.8741707320567    -5.743E-09 6.524E-08 1.327E-08
 ETOT  6  -8.8741707320580    -1.293E-12 4.185E-09 4.716E-11
 ETOT  7  -8.8741707320581    -1.048E-13 2.973E-10 4.917E-13
 ETOT  8  -8.8741707320581    -4.441E-14 9.859E-11 9.234E-16

 At SCF step    8   max residual=  9.86E-11 < tolwfr=  1.00E-10 =>converged.

 Cartesian components of stress tensor (hartree/bohr^3)
  sigma(1 1)=  3.24327172E-05  sigma(3 2)=  0.00000000E+00
  sigma(2 2)=  3.24327172E-05  sigma(3 1)=  0.00000000E+00
  sigma(3 3)=  3.24327172E-05  sigma(2 1)=  0.00000000E+00


======================================================================
 Calculating and writing out Kohn-Sham electronic Structure file
 Using conjugate gradient wavefunctions and energies (kssform=3)
 number of Gamma centered plane waves    749
 number of Gamma centered shells     36
 number of bands     50
 maximum angular momentum components      3
 Conjugate gradient eigenvalues
   k    eigenvalues [Hartree]
   1     -0.2267  0.2170  0.2170  0.2170  0.3097  0.3097  0.3097  0.3361  0.4984
          0.5026  0.5026  0.6268  0.6268  0.6268  0.7705  1.0638  1.0638  1.0638
          1.1077  1.1077  1.1489  1.1489  1.1489  1.3034  1.3034  1.3034  1.4514
          1.4964  1.4964  1.4964  1.6390  1.6390  1.7169  1.7169  1.7348  1.7399
          1.7399  1.7399  1.7810  1.8368  1.8368  1.8368  1.8774  1.8774  1.8774
          1.8876  1.8876  1.8876  1.9366  1.9366
   2     -0.2132  0.1283  0.2002  0.2002  0.3005  0.3337  0.3337  0.4129  0.4777
          0.4777  0.5418  0.6023  0.6977  0.6977  0.8453  0.9497  0.9497  0.9650
          1.0949  1.0949  1.1769  1.1769  1.2183  1.3157  1.3526  1.4161  1.4161
          1.4628  1.4628  1.5166  1.5267  1.5267  1.6193  1.6193  1.6407  1.7277
          1.7408  1.7408  1.7447  1.7899  1.8392  1.8392  1.8500  1.8809  1.8809
          1.9140  1.9991  2.0010  2.0010  2.0171
   3     -0.1752  0.0186  0.1798  0.1798  0.2784  0.3443  0.3443  0.5000  0.5105
          0.5105  0.5438  0.7096  0.7544  0.7544  0.8260  0.8657  0.8657  1.0137
          1.0997  1.0997  1.1373  1.1938  1.1938  1.2774  1.2987  1.2987  1.3475
          1.4184  1.4184  1.4617  1.4617  1.5010  1.5591  1.6210  1.6846  1.7082
          1.7082  1.7269  1.7333  1.7333  1.8223  1.8265  1.8265  1.9946  1.9946
          2.0347  2.0616  2.0803  2.0803  2.1846
   4     -0.1392 -0.0427  0.1724  0.1724  0.2699  0.3379  0.3379  0.4937  0.6064
          0.6064  0.6270  0.6327  0.6327  0.6841  0.9173  0.9457  1.0119  1.0119
          1.0181  1.0181  1.1523  1.1925  1.1925  1.2155  1.2155  1.2510  1.3710
          1.3872  1.3988  1.3988  1.4256  1.4256  1.5085  1.5667  1.7228  1.7234
          1.7234  1.7800  1.7800  1.8001  1.8105  1.9373  1.9373  2.0011  2.0019
          2.0019  2.1372  2.1648  2.1648  2.1968
   5     -0.2086  0.1417  0.1723  0.1723  0.2765  0.3715  0.3759  0.3759  0.4567
          0.5225  0.5661  0.6580  0.6580  0.6782  0.8857  0.9297  0.9297  0.9800
          1.0119  1.0882  1.1828  1.2065  1.2065  1.3871  1.3871  1.3947  1.4190
          1.4190  1.4328  1.4440  1.5163  1.5655  1.6063  1.6457  1.6693  1.6693
          1.7140  1.7564  1.7564  1.8120  1.8120  1.8376  1.8647  1.9097  1.9153
          1.9463  1.9463  1.9591  2.0164  2.0164
   6     -0.1782  0.0526  0.1423  0.1517  0.2860  0.3635  0.3811  0.4026  0.5481
          0.5516  0.5937  0.6839  0.7216  0.7764  0.8048  0.8381  0.9424  0.9749
          1.0095  1.0695  1.1475  1.1834  1.2194  1.2961  1.3095  1.3126  1.3836
          1.4089  1.4284  1.4746  1.5231  1.5414  1.5603  1.6029  1.6281  1.6694
          1.7017  1.7307  1.7467  1.8287  1.8312  1.8667  1.8896  1.8979  1.9184
          1.9663  2.0229  2.0847  2.0890  2.1016
   7     -0.1334 -0.0285  0.1131  0.1507  0.2886  0.3657  0.3856  0.4505  0.5587
          0.6028  0.6451  0.6520  0.6755  0.8060  0.8700  0.9154  0.9534  0.9701
          0.9924  1.0516  1.0933  1.1720  1.2055  1.2205  1.2271  1.2957  1.3086
          1.3281  1.3907  1.4607  1.4803  1.4948  1.5316  1.5788  1.6535  1.6742
          1.7337  1.7766  1.8395  1.8694  1.8963  1.9303  1.9438  1.9511  1.9837
          2.0041  2.0126  2.0734  2.0860  2.1949
   8     -0.1479 -0.0060  0.1028  0.1687  0.3040  0.3658  0.3710  0.4813  0.4860
          0.5590  0.6340  0.6844  0.7598  0.7835  0.8106  0.8727  0.9490  1.0161
          1.0292  1.0565  1.1287  1.1291  1.2028  1.2310  1.2403  1.2637  1.3090
          1.3878  1.4416  1.4616  1.4922  1.5026  1.5552  1.5779  1.6321  1.6871
          1.7151  1.7161  1.7733  1.7939  1.8746  1.9468  1.9667  1.9696  1.9899
          2.0325  2.0379  2.1159  2.1226  2.1885
   9     -0.1912  0.0793  0.1262  0.1961  0.3264  0.3464  0.3561  0.4214  0.4406
          0.5595  0.5948  0.6360  0.7055  0.7877  0.8056  0.8992  0.9699  0.9758
          0.9879  1.0385  1.1761  1.1954  1.2545  1.2915  1.3434  1.3452  1.3719
          1.4639  1.4743  1.4768  1.4866  1.5243  1.5786  1.6065  1.6329  1.6491
          1.6839  1.7174  1.7327  1.7908  1.7958  1.8523  1.8595  1.9447  1.9588
          1.9939  2.0002  2.0221  2.0526  2.1589
  10     -0.1556  0.0320  0.1267  0.1267  0.2394  0.2857  0.4829  0.4829  0.5712
          0.5819  0.6901  0.7120  0.7120  0.7690  0.8155  0.8165  0.8165  0.9034
          1.0552  1.1149  1.1514  1.1514  1.1800  1.2331  1.2351  1.2735  1.2735
          1.4617  1.5227  1.5263  1.5263  1.5601  1.5703  1.6296  1.6296  1.6976
          1.6976  1.7043  1.7921  1.8042  1.8148  1.8148  1.8384  1.8853  1.9808
          1.9996  1.9996  2.0298  2.1156  2.2022
  11     -0.1121 -0.0256  0.0805  0.1216  0.2516  0.3134  0.4894  0.4900  0.6042
          0.6107  0.6714  0.6835  0.7530  0.7936  0.8050  0.8979  0.9003  0.9294
          0.9695  1.0421  1.0692  1.0825  1.1084  1.1960  1.2842  1.2895  1.3749
          1.3857  1.3976  1.4837  1.5159  1.5251  1.5628  1.6416  1.6730  1.6862
          1.7000  1.7203  1.8263  1.8265  1.8601  1.8698  1.9440  1.9541  1.9960
          2.0213  2.0509  2.0805  2.0876  2.1762
  12     -0.1045 -0.0335  0.0510  0.1382  0.2704  0.4278  0.4539  0.4745  0.4860
          0.4988  0.7409  0.7608  0.7881  0.7967  0.8276  0.8601  0.8854  0.9447
          1.0311  1.0483  1.0570  1.0818  1.1956  1.2041  1.2257  1.2425  1.2907
          1.2926  1.4736  1.4852  1.5021  1.5158  1.5665  1.6025  1.6209  1.6670
          1.7756  1.7759  1.8067  1.8241  1.8978  1.9268  1.9662  1.9858  1.9869
          2.0201  2.0900  2.0997  2.1127  2.1914
  13     -0.0721 -0.0721  0.1105  0.1105  0.2383  0.2383  0.5855  0.5855  0.6216
          0.6216  0.6804  0.6804  0.6874  0.6874  0.9066  0.9066  0.9381  0.9381
          0.9610  0.9610  0.9912  0.9912  1.1511  1.1511  1.2968  1.2968  1.4632
          1.4632  1.4677  1.4677  1.5362  1.5362  1.5494  1.5494  1.6774  1.6774
          1.7108  1.7108  1.7487  1.7487  1.8772  1.8772  1.9387  1.9387  2.0252
          2.0252  2.0874  2.0874  2.2080  2.2080
  14     -0.1412  0.0084  0.0829  0.1309  0.3191  0.3501  0.3704  0.4755  0.5461
          0.5787  0.6903  0.7016  0.7232  0.7632  0.8232  0.8701  0.9328  0.9829
          0.9891  1.0494  1.0897  1.1110  1.1933  1.2243  1.2439  1.3235  1.3637
          1.3793  1.4043  1.4159  1.4412  1.5631  1.6040  1.6448  1.6700  1.6753
          1.7239  1.7319  1.7751  1.7858  1.8694  1.8851  1.9116  1.9714  1.9757
          2.0226  2.0364  2.0928  2.0964  2.1451
  15     -0.1041 -0.0364  0.0665  0.1133  0.3372  0.3452  0.4389  0.4543  0.4933
          0.6242  0.6540  0.7074  0.8107  0.8331  0.8410  0.8707  0.8938  0.9665
          0.9837  1.0114  1.0576  1.1481  1.1639  1.1681  1.2374  1.2996  1.3302
          1.3493  1.3615  1.3943  1.4456  1.5379  1.6098  1.6631  1.6882  1.7250
          1.7724  1.7751  1.7838  1.8185  1.8577  1.8722  1.9170  1.9637  1.9982
          2.0186  2.0968  2.1146  2.1762  2.1936
  16     -0.0675 -0.0675  0.0800  0.0800  0.3147  0.3147  0.4635  0.4635  0.6045
          0.6045  0.6909  0.6909  0.8196  0.8196  0.8487  0.8487  0.9010  0.9010
          1.0020  1.0020  1.0644  1.0644  1.1300  1.1300  1.2924  1.2924  1.3482
          1.3482  1.4007  1.4007  1.5666  1.5666  1.5924  1.5924  1.6854  1.6854
          1.7442  1.7442  1.8019  1.8019  1.8893  1.8893  1.9888  1.9888  2.0010
          2.0010  2.0899  2.0899  2.1218  2.1218
 Test on the normalization of the wavefunctions
  min sum_G |a(n,k,G)| =  1.000000
  max sum_G |a(n,k,G)| =  1.000000
 Test on the orthogonalization of the wavefunctions
  min sum_G a(n,k,G)a(n',k,G) =  0.000000
  max sum_G a(n,k,G)a(n',k,G) =  0.000000

================================================================================

 ----iterations are completed or convergence reached----

 Mean square residual over all n,k,spin=   1.0531E-06; max=  4.2713E-04
   0.0000  0.0000  0.0000    1  1.04533E-05 kpt; spin; max resid(k); each band:
  4.26E-13 8.81E-13 9.17E-13 9.20E-13 3.81E-13 3.78E-13 3.77E-13 2.91E-13
  6.77E-13 3.62E-13 3.62E-13 1.60E-12 2.68E-12 1.03E-12 2.40E-12 5.09E-13
  5.50E-13 5.79E-13 3.35E-13 3.35E-13 6.87E-13 1.05E-12 1.27E-12 8.90E-12
  8.90E-12 8.90E-12 8.35E-13 8.82E-13 1.18E-12 1.66E-12 7.26E-13 7.26E-13
  3.16E-13 3.15E-13 3.71E-12 2.18E-12 1.69E-12 8.75E-12 7.73E-13 1.52E-12
  1.45E-12 2.13E-12 1.90E-12 1.77E-12 1.96E-12 4.64E-11 4.99E-11 5.27E-11
  5.27E-12 1.06E-11 5.99E-11 6.06E-11 2.37E-06 1.82E-06 1.05E-05
   0.1667  0.0000  0.0000    1  1.22813E-07 kpt; spin; max resid(k); each band:
  4.28E-13 2.88E-13 3.06E-13 3.06E-13 3.46E-13 3.73E-13 3.73E-13 2.84E-13
  4.01E-13 4.02E-13 8.76E-13 6.29E-13 5.06E-13 5.11E-13 8.75E-13 4.74E-13
  4.74E-13 5.87E-13 5.20E-13 5.10E-13 6.46E-13 6.56E-13 6.35E-13 8.91E-12
  7.70E-13 4.96E-13 5.27E-13 9.40E-13 9.42E-13 1.01E-12 8.77E-13 8.78E-13
  5.85E-13 6.61E-13 9.60E-13 9.64E-13 7.31E-13 7.26E-13 1.38E-11 1.79E-12
  8.00E-13 8.15E-13 1.10E-12 8.09E-13 8.79E-13 4.85E-12 7.74E-12 3.08E-12
  5.16E-12 2.41E-11 3.78E-12 3.70E-12 6.09E-11 1.32E-10 1.23E-07
   0.3333  0.0000  0.0000    1  4.90965E-06 kpt; spin; max resid(k); each band:
  2.75E-13 2.87E-13 3.09E-13 3.09E-13 3.56E-13 4.38E-13 4.21E-13 5.87E-13
  4.03E-13 4.04E-13 6.37E-13 6.78E-13 4.07E-13 3.85E-13 4.20E-13 5.89E-13
  6.00E-13 8.74E-13 5.59E-13 5.88E-13 5.36E-13 5.69E-13 5.58E-13 5.68E-13
  5.76E-13 5.94E-13 9.33E-12 9.36E-13 8.04E-13 7.98E-13 1.00E-12 7.22E-13
  7.64E-13 2.42E-11 6.98E-13 5.95E-13 4.28E-13 6.21E-13 6.98E-13 6.54E-13
  9.15E-13 6.84E-13 6.40E-13 1.29E-12 1.23E-12 1.70E-12 3.23E-12 2.29E-12
  1.95E-12 8.08E-11 2.28E-11 4.58E-11 2.34E-08 9.96E-09 4.91E-06
   0.5000  0.0000  0.0000    1  1.18243E-09 kpt; spin; max resid(k); each band:
  2.50E-13 2.81E-13 3.04E-13 3.04E-13 3.00E-13 4.50E-13 4.50E-13 7.96E-13
  3.70E-13 3.70E-13 4.78E-13 4.09E-13 4.09E-13 5.06E-13 5.27E-13 5.44E-13
  7.19E-13 7.20E-13 4.39E-13 4.39E-13 7.97E-13 4.96E-13 4.96E-13 5.58E-13
  5.54E-13 6.00E-13 8.22E-12 5.72E-13 7.77E-13 7.77E-13 7.17E-13 7.17E-13
  6.79E-13 1.73E-11 5.06E-13 7.01E-13 6.99E-13 6.51E-13 6.52E-13 8.46E-13
  9.07E-13 4.47E-13 4.46E-13 8.74E-13 1.31E-12 1.32E-12 6.21E-12 1.14E-11
  1.62E-11 2.77E-11 5.52E-11 3.25E-11 7.72E-11 6.97E-10 1.18E-09
   0.1667  0.1667  0.0000    1  3.19573E-09 kpt; spin; max resid(k); each band:
  4.28E-13 2.52E-13 3.22E-13 3.23E-13 4.25E-13 3.46E-13 3.58E-13 3.58E-13
  3.38E-13 3.63E-13 8.79E-13 5.44E-13 5.51E-13 6.65E-13 7.66E-13 5.21E-13
  5.21E-13 3.17E-13 5.10E-13 5.40E-13 4.73E-13 5.91E-13 5.92E-13 7.05E-13
  7.08E-13 1.07E-12 5.52E-13 5.64E-13 3.80E-13 7.68E-13 7.42E-13 1.10E-12
  8.84E-13 7.16E-13 6.67E-13 6.82E-13 2.31E-12 7.33E-13 8.69E-13 6.55E-13
  6.68E-13 1.91E-12 1.04E-12 1.71E-12 1.03E-12 1.68E-12 1.90E-12 4.49E-11
  9.43E-13 1.18E-12 4.33E-11 5.35E-12 3.80E-11 5.31E-11 3.20E-09
   0.3333  0.1667  0.0000    1  4.98812E-06 kpt; spin; max resid(k); each band:
  3.61E-13 3.18E-13 3.88E-13 3.29E-13 5.05E-13 4.97E-13 4.31E-13 3.82E-13
  6.21E-13 3.79E-13 7.21E-13 1.03E-12 4.04E-13 4.67E-13 5.53E-13 8.76E-13
  6.06E-13 4.28E-13 5.86E-13 6.11E-13 6.30E-13 9.49E-13 5.47E-13 9.92E-13
  7.59E-13 1.21E-12 7.55E-13 5.72E-13 8.27E-13 5.66E-13 9.44E-13 7.64E-13
  6.37E-13 7.44E-13 1.87E-12 2.70E-12 9.27E-13 8.81E-13 5.83E-13 6.28E-13
  7.93E-13 8.81E-13 1.88E-12 1.39E-12 9.39E-13 1.59E-12 3.33E-12 2.70E-12
  5.28E-12 1.89E-12 5.09E-12 1.45E-11 6.39E-11 5.08E-08 4.99E-06
   0.5000  0.1667  0.0000    1  1.12527E-04 kpt; spin; max resid(k); each band:
  2.68E-13 3.33E-13 3.58E-13 3.91E-13 4.56E-13 4.11E-13 4.91E-13 4.09E-13
  6.93E-13 5.20E-13 5.69E-13 5.47E-13 6.78E-13 5.36E-13 5.28E-13 5.21E-13
  6.80E-13 5.19E-13 5.80E-13 5.55E-13 5.47E-13 7.01E-13 7.77E-13 5.66E-13
  6.41E-13 7.22E-13 5.99E-13 8.16E-13 7.54E-13 1.48E-12 9.59E-13 6.54E-13
  7.94E-13 7.95E-13 9.78E-13 7.10E-13 6.13E-13 8.17E-13 1.12E-12 7.59E-13
  9.29E-13 7.21E-13 1.03E-12 1.84E-12 2.72E-12 3.56E-12 8.14E-13 1.92E-12
  2.49E-12 6.84E-11 4.11E-11 5.56E-10 1.45E-09 1.51E-08 1.13E-04
  -0.3333  0.1667  0.0000    1  2.14149E-08 kpt; spin; max resid(k); each band:
  2.99E-13 2.85E-13 3.49E-13 3.19E-13 4.30E-13 4.35E-13 3.95E-13 4.09E-13
  4.10E-13 5.49E-13 5.69E-13 3.85E-13 6.58E-13 3.62E-13 4.88E-13 6.09E-13
  4.56E-13 4.33E-13 6.33E-13 6.04E-13 4.78E-13 7.84E-13 5.19E-13 6.62E-13
  6.49E-13 6.55E-13 5.29E-13 8.53E-13 7.98E-13 8.21E-13 4.75E-13 1.04E-12
  6.78E-13 8.26E-13 6.99E-13 8.42E-13 6.37E-13 4.41E-13 6.11E-13 9.33E-13
  6.93E-13 1.03E-12 9.57E-13 1.07E-12 8.97E-13 9.17E-13 1.42E-12 3.12E-12
  7.54E-12 4.20E-11 4.97E-11 6.97E-11 8.45E-11 1.32E-10 2.14E-08
  -0.1667  0.1667  0.0000    1  1.08127E-05 kpt; spin; max resid(k); each band:
  4.35E-13 2.70E-13 3.59E-13 3.00E-13 3.40E-13 3.84E-13 4.27E-13 3.91E-13
  4.42E-13 3.48E-13 7.81E-13 6.02E-13 6.98E-13 8.37E-13 4.69E-13 5.99E-13
  5.02E-13 4.36E-13 7.39E-13 4.49E-13 5.90E-13 4.73E-13 7.33E-13 6.76E-13
  8.23E-13 4.08E-13 7.92E-13 8.62E-13 5.54E-13 6.36E-13 8.11E-13 5.29E-13
  9.44E-13 8.48E-13 7.11E-13 9.67E-13 1.14E-12 8.54E-13 1.40E-12 6.54E-13
  7.41E-13 8.22E-13 6.39E-13 1.62E-12 1.68E-12 2.39E-12 7.47E-13 6.89E-12
  5.21E-12 9.86E-11 3.84E-11 6.22E-11 6.25E-11 4.75E-09 1.08E-05
   0.3333  0.3333  0.0000    1  1.14503E-06 kpt; spin; max resid(k); each band:
  3.74E-13 2.66E-13 3.83E-13 3.32E-13 4.77E-13 4.71E-13 3.81E-13 3.75E-13
  3.24E-13 3.71E-13 8.29E-13 3.70E-13 3.71E-13 7.02E-13 3.22E-13 8.96E-13
  6.60E-13 4.68E-13 5.64E-13 5.22E-13 1.01E-12 6.27E-13 7.05E-13 6.58E-13
  6.12E-13 8.28E-13 5.72E-13 7.92E-13 5.40E-13 1.15E-12 7.82E-13 1.21E-12
  9.84E-13 7.92E-13 7.77E-13 8.79E-13 7.22E-13 9.58E-13 1.13E-12 1.54E-12
  1.07E-12 1.01E-12 1.49E-11 1.29E-12 2.40E-12 2.56E-12 1.44E-12 3.06E-12
  2.38E-11 2.45E-11 1.22E-11 1.24E-11 9.27E-11 1.97E-09 1.15E-06
   0.5000  0.3333  0.0000    1  2.11125E-04 kpt; spin; max resid(k); each band:
  3.16E-13 3.40E-13 4.06E-13 5.05E-13 4.70E-13 4.73E-13 4.13E-13 5.39E-13
  4.96E-13 5.02E-13 1.04E-12 8.88E-13 7.39E-13 7.67E-13 4.14E-13 5.87E-13
  8.68E-13 8.88E-13 4.98E-13 7.01E-13 8.93E-13 7.21E-13 5.74E-13 6.77E-13
  6.54E-13 7.40E-13 6.58E-13 8.67E-13 8.40E-13 1.85E-12 7.66E-13 8.82E-13
  9.68E-13 1.27E-12 9.66E-13 1.38E-12 1.00E-12 6.92E-13 1.42E-12 6.81E-13
  1.31E-12 2.17E-12 9.28E-13 2.07E-12 9.17E-13 2.54E-12 2.15E-12 5.44E-12
  3.40E-12 8.78E-11 7.73E-11 5.03E-10 1.33E-10 4.12E-06 2.11E-04
  -0.3333  0.3333  0.0000    1  1.37773E-05 kpt; spin; max resid(k); each band:
  3.06E-13 3.00E-13 5.81E-13 3.28E-13 4.96E-13 4.50E-13 4.13E-13 3.95E-13
  4.00E-13 3.92E-13 6.82E-13 1.28E-12 5.05E-13 3.14E-13 3.96E-13 3.73E-13
  5.10E-13 1.23E-12 5.16E-13 4.23E-13 8.29E-13 6.92E-13 5.20E-13 6.96E-13
  6.75E-13 8.72E-13 8.16E-13 4.87E-13 6.60E-13 1.26E-12 9.15E-13 7.70E-13
  9.17E-13 2.63E-12 1.18E-12 5.57E-13 8.54E-13 3.02E-13 6.12E-13 3.21E-12
  1.74E-12 1.31E-12 2.45E-12 7.28E-13 1.54E-12 2.88E-12 3.74E-12 2.35E-12
  1.38E-11 6.55E-11 3.64E-11 9.41E-11 4.56E-11 2.83E-06 1.38E-05
   0.5000  0.5000  0.0000    1  8.76350E-05 kpt; spin; max resid(k); each band:
  3.26E-13 2.94E-13 5.21E-13 3.63E-13 5.01E-13 4.93E-13 4.27E-13 4.21E-13
  1.50E-12 6.19E-13 3.65E-13 3.66E-13 5.32E-13 5.03E-13 6.35E-13 6.72E-13
  1.52E-12 1.05E-12 4.54E-13 4.69E-13 6.42E-13 5.84E-13 4.39E-13 4.74E-13
  8.23E-13 5.67E-13 6.96E-13 6.38E-13 1.92E-12 9.49E-13 6.69E-13 6.76E-13
  7.71E-13 6.87E-13 8.78E-13 2.28E-12 9.31E-13 1.13E-12 1.23E-12 1.54E-12
  1.94E-12 1.03E-12 1.07E-12 8.21E-13 4.32E-13 9.59E-13 4.33E-13 7.93E-13
  6.27E-11 3.81E-11 2.34E-08 8.49E-06 1.09E-07 8.76E-05 4.25E-07
   0.5000  0.3333  0.1667    1  4.27133E-04 kpt; spin; max resid(k); each band:
  3.46E-13 1.10E-12 3.94E-13 5.21E-13 4.45E-13 7.36E-13 3.99E-13 4.62E-13
  5.09E-13 4.55E-13 6.09E-13 7.64E-13 8.44E-13 2.47E-12 6.25E-13 4.15E-13
  9.14E-13 5.13E-13 7.66E-13 6.73E-13 4.62E-13 6.68E-13 2.18E-12 1.32E-12
  6.10E-13 7.53E-13 1.30E-12 7.78E-13 7.25E-13 1.06E-12 2.66E-12 7.35E-13
  1.60E-12 9.68E-13 1.15E-12 1.27E-12 8.17E-13 6.35E-13 8.59E-13 1.07E-12
  9.02E-13 1.01E-12 1.14E-12 1.07E-12 1.26E-12 2.09E-12 1.44E-12 8.32E-12
  1.75E-11 2.43E-11 4.88E-11 9.76E-11 7.80E-11 3.65E-07 4.27E-04
  -0.3333  0.3333  0.1667    1  2.13727E-05 kpt; spin; max resid(k); each band:
  2.77E-13 3.04E-13 4.47E-13 3.86E-13 5.16E-13 3.95E-13 4.16E-13 3.87E-13
  3.80E-13 4.02E-13 4.10E-13 7.31E-13 4.47E-13 4.81E-13 8.70E-13 7.48E-13
  6.08E-13 6.01E-13 4.39E-13 9.02E-13 7.64E-13 6.46E-13 7.22E-13 5.60E-13
  5.77E-13 6.67E-13 7.85E-13 7.35E-13 8.38E-13 6.48E-13 6.34E-13 9.00E-13
  4.34E-13 1.06E-12 7.42E-13 1.23E-12 5.84E-13 9.50E-13 1.26E-12 1.04E-12
  9.55E-13 1.07E-12 1.31E-12 1.57E-12 1.36E-12 3.77E-12 5.53E-12 1.26E-11
  6.82E-11 4.95E-11 7.70E-11 1.86E-10 4.18E-09 1.66E-08 2.14E-05
  -0.3333  0.5000  0.1667    1  2.34713E-09 kpt; spin; max resid(k); each band:
  2.82E-13 2.76E-13 3.99E-13 3.92E-13 4.45E-13 4.43E-13 4.02E-13 3.98E-13
  4.04E-13 4.08E-13 4.06E-13 3.89E-13 6.15E-13 6.14E-13 4.62E-13 4.61E-13
  6.78E-13 6.77E-13 4.16E-13 4.28E-13 6.46E-13 6.40E-13 6.21E-13 6.23E-13
  4.66E-13 4.68E-13 6.70E-13 6.71E-13 6.54E-13 6.55E-13 8.07E-13 8.10E-13
  9.06E-13 8.61E-13 7.15E-13 6.89E-13 7.18E-13 6.82E-13 8.99E-13 7.06E-13
  7.77E-13 7.97E-13 8.47E-13 8.95E-13 1.50E-12 1.56E-12 4.35E-12 5.92E-12
  2.96E-12 5.68E-12 7.86E-11 8.81E-11 9.89E-11 2.35E-09 4.22E-10
 reduced coordinates (array xred) for    2 atoms
       0.000000000000      0.000000000000      0.000000000000
       0.250000000000      0.250000000000      0.250000000000
 rms dE/dt=  0.0000E+00; max dE/dt=  0.0000E+00; dE/dt below (all hartree)
    1       0.000000000000      0.000000000000      0.000000000000
    2       0.000000000000      0.000000000000      0.000000000000

 cartesian coordinates (angstrom) at end:
    1      0.00000000000000     0.00000000000000     0.00000000000000
    2      1.35165088504101     1.35165088504101     1.35165088504101

 cartesian forces (hartree/bohr) at end:
    1     -0.00000000000000    -0.00000000000000    -0.00000000000000
    2     -0.00000000000000    -0.00000000000000    -0.00000000000000
 frms,max,avg= 0.0000000E+00 0.0000000E+00   0.000E+00  0.000E+00  0.000E+00 h/b

 cartesian forces (eV/Angstrom) at end:
    1     -0.00000000000000    -0.00000000000000    -0.00000000000000
    2     -0.00000000000000    -0.00000000000000    -0.00000000000000
 frms,max,avg= 0.0000000E+00 0.0000000E+00   0.000E+00  0.000E+00  0.000E+00 e/A
 length scales= 10.217000000000 10.217000000000 10.217000000000 bohr
              =  5.406603540164  5.406603540164  5.406603540164 angstroms
 prteigrs : about to open file t71o_DS1_EIG
 Fermi (or HOMO) energy (hartree) =   0.21703   Average Vxc (hartree)=  -0.35439
 Eigenvalues (hartree) for nkpt=  16  k points:
 kpt#   1, nband= 55, wtk=  0.00463, kpt=  0.0000  0.0000  0.0000 (reduced coord)
  -0.22666   0.21703   0.21703   0.21703   0.30967   0.30967   0.30967   0.33610
   0.49840   0.50260   0.50260   0.62682   0.62682   0.62682   0.77050   1.06377
   1.06377   1.06377   1.10767   1.10767   1.14895   1.14895   1.14895   1.30345
   1.30345   1.30345   1.45139   1.49639   1.49639   1.49639   1.63903   1.63903
   1.71690   1.71690   1.73485   1.73992   1.73992   1.73992   1.78096   1.83677
   1.83677   1.83677   1.87739   1.87739   1.87739   1.88761   1.88761   1.88761
   1.93664   1.93664   1.93664   2.03200   2.11060   2.11060   2.11082
 kpt#   2, nband= 55, wtk=  0.03704, kpt=  0.1667  0.0000  0.0000 (reduced coord)
  -0.21320   0.12830   0.20015   0.20015   0.30049   0.33375   0.33375   0.41291
   0.47770   0.47770   0.54176   0.60234   0.69768   0.69768   0.84530   0.94968
   0.94968   0.96499   1.09492   1.09492   1.17693   1.17693   1.21826   1.31570
   1.35260   1.41605   1.41605   1.46276   1.46276   1.51663   1.52666   1.52666
   1.61930   1.61930   1.64066   1.72773   1.74080   1.74080   1.74473   1.78995
   1.83924   1.83924   1.85005   1.88089   1.88089   1.91396   1.99910   2.00101
   2.00101   2.01715   2.03760   2.03760   2.11384   2.17819   2.17819
 kpt#   3, nband= 55, wtk=  0.03704, kpt=  0.3333  0.0000  0.0000 (reduced coord)
  -0.17519   0.01861   0.17975   0.17975   0.27843   0.34434   0.34434   0.50003
   0.51050   0.51050   0.54379   0.70957   0.75436   0.75436   0.82596   0.86565
   0.86565   1.01370   1.09967   1.09967   1.13731   1.19383   1.19383   1.27742
   1.29866   1.29866   1.34752   1.41843   1.41843   1.46168   1.46168   1.50100
   1.55911   1.62095   1.68460   1.70822   1.70822   1.72686   1.73330   1.73330
   1.82234   1.82648   1.82648   1.99458   1.99458   2.03467   2.06160   2.08029
   2.08029   2.18459   2.19737   2.19737   2.29436   2.31911   2.31913
 kpt#   4, nband= 55, wtk=  0.01852, kpt=  0.5000  0.0000  0.0000 (reduced coord)
  -0.13917  -0.04267   0.17244   0.17244   0.26995   0.33788   0.33788   0.49366
   0.60635   0.60635   0.62696   0.63271   0.63271   0.68409   0.91728   0.94575
   1.01191   1.01191   1.01810   1.01810   1.15229   1.19252   1.19252   1.21554
   1.21554   1.25103   1.37105   1.38722   1.39884   1.39884   1.42558   1.42558
   1.50852   1.56669   1.72283   1.72339   1.72339   1.78002   1.78002   1.80010
   1.81052   1.93726   1.93726   2.00112   2.00188   2.00188   2.13724   2.16477
   2.16477   2.19677   2.19677   2.20208   2.21841   2.28409   2.28409
 kpt#   5, nband= 55, wtk=  0.02778, kpt=  0.1667  0.1667  0.0000 (reduced coord)
  -0.20860   0.14169   0.17227   0.17227   0.27653   0.37147   0.37587   0.37587
   0.45671   0.52251   0.56610   0.65801   0.65801   0.67815   0.88572   0.92968
   0.92968   0.98003   1.01189   1.08816   1.18279   1.20651   1.20651   1.38710
   1.38710   1.39466   1.41899   1.41899   1.43277   1.44399   1.51634   1.56549
   1.60626   1.64567   1.66932   1.66932   1.71397   1.75643   1.75643   1.81202
   1.81202   1.83757   1.86472   1.90971   1.91531   1.94631   1.94631   1.95907
   2.01643   2.01643   2.01712   2.07061   2.10976   2.19431   2.19431
 kpt#   6, nband= 55, wtk=  0.11111, kpt=  0.3333  0.1667  0.0000 (reduced coord)
  -0.17815   0.05256   0.14231   0.15173   0.28601   0.36349   0.38109   0.40263
   0.54806   0.55163   0.59374   0.68391   0.72156   0.77638   0.80484   0.83813
   0.94245   0.97491   1.00952   1.06949   1.14749   1.18339   1.21941   1.29611
   1.30951   1.31261   1.38364   1.40885   1.42845   1.47464   1.52312   1.54138
   1.56034   1.60286   1.62807   1.66944   1.70170   1.73073   1.74666   1.82874
   1.83116   1.86671   1.88964   1.89790   1.91844   1.96634   2.02286   2.08474
   2.08905   2.10159   2.10959   2.17266   2.26549   2.30977   2.33339
 kpt#   7, nband= 55, wtk=  0.11111, kpt=  0.5000  0.1667  0.0000 (reduced coord)
  -0.13339  -0.02853   0.11305   0.15072   0.28855   0.36569   0.38560   0.45051
   0.55873   0.60278   0.64508   0.65203   0.67553   0.80600   0.86999   0.91544
   0.95341   0.97013   0.99238   1.05164   1.09332   1.17200   1.20550   1.22046
   1.22708   1.29570   1.30865   1.32812   1.39069   1.46069   1.48026   1.49480
   1.53162   1.57876   1.65352   1.67424   1.73365   1.77658   1.83948   1.86937
   1.89628   1.93025   1.94382   1.95106   1.98369   2.00407   2.01265   2.07340
   2.08603   2.19490   2.20528   2.26414   2.26889   2.29203   2.33569
 kpt#   8, nband= 55, wtk=  0.11111, kpt= -0.3333  0.1667  0.0000 (reduced coord)
  -0.14790  -0.00604   0.10280   0.16866   0.30399   0.36578   0.37102   0.48133
   0.48599   0.55904   0.63397   0.68438   0.75979   0.78355   0.81058   0.87271
   0.94896   1.01607   1.02919   1.05650   1.12875   1.12909   1.20276   1.23098
   1.24027   1.26373   1.30897   1.38784   1.44157   1.46164   1.49216   1.50255
   1.55519   1.57785   1.63212   1.68712   1.71506   1.71612   1.77329   1.79391
   1.87463   1.94678   1.96669   1.96964   1.98987   2.03246   2.03790   2.11589
   2.12258   2.18853   2.20102   2.21623   2.24707   2.26570   2.30363
 kpt#   9, nband= 55, wtk=  0.05556, kpt= -0.1667  0.1667  0.0000 (reduced coord)
  -0.19122   0.07931   0.12619   0.19605   0.32639   0.34641   0.35605   0.42144
   0.44057   0.55954   0.59485   0.63605   0.70548   0.78769   0.80562   0.89923
   0.96988   0.97579   0.98788   1.03848   1.17610   1.19538   1.25451   1.29145
   1.34338   1.34522   1.37191   1.46387   1.47429   1.47684   1.48664   1.52434
   1.57860   1.60653   1.63293   1.64913   1.68389   1.71737   1.73271   1.79079
   1.79582   1.85225   1.85953   1.94468   1.95877   1.99393   2.00024   2.02210
   2.05265   2.15890   2.15975   2.17897   2.18063   2.24447   2.28861
 kpt#  10, nband= 55, wtk=  0.02778, kpt=  0.3333  0.3333  0.0000 (reduced coord)
  -0.15563   0.03200   0.12668   0.12668   0.23938   0.28574   0.48293   0.48293
   0.57125   0.58194   0.69009   0.71198   0.71198   0.76895   0.81548   0.81654
   0.81654   0.90342   1.05521   1.11489   1.15143   1.15143   1.17996   1.23309
   1.23509   1.27353   1.27353   1.46166   1.52267   1.52631   1.52631   1.56012
   1.57030   1.62964   1.62964   1.69757   1.69757   1.70432   1.79208   1.80422
   1.81483   1.81483   1.83837   1.88527   1.98080   1.99956   1.99956   2.02982
   2.11563   2.20219   2.20248   2.20248   2.21301   2.33997   2.33997
 kpt#  11, nband= 55, wtk=  0.11111, kpt=  0.5000  0.3333  0.0000 (reduced coord)
  -0.11213  -0.02563   0.08053   0.12163   0.25162   0.31344   0.48936   0.48997
   0.60422   0.61066   0.67145   0.68348   0.75299   0.79364   0.80503   0.89793
   0.90029   0.92939   0.96952   1.04214   1.06920   1.08253   1.10838   1.19601
   1.28417   1.28948   1.37489   1.38569   1.39764   1.48367   1.51591   1.52514
   1.56285   1.64164   1.67301   1.68622   1.70004   1.72034   1.82631   1.82654
   1.86014   1.86980   1.94395   1.95410   1.99605   2.02128   2.05085   2.08051
   2.08762   2.17618   2.20141   2.26543   2.26855   2.31065   2.34208
 kpt#  12, nband= 55, wtk=  0.05556, kpt= -0.3333  0.3333  0.0000 (reduced coord)
  -0.10454  -0.03347   0.05102   0.13817   0.27045   0.42777   0.45390   0.47451
   0.48605   0.49875   0.74095   0.76080   0.78809   0.79669   0.82761   0.86013
   0.88538   0.94467   1.03114   1.04834   1.05701   1.08177   1.19564   1.20409
   1.22574   1.24248   1.29069   1.29261   1.47359   1.48519   1.50212   1.51583
   1.56648   1.60252   1.62093   1.66698   1.77555   1.77588   1.80669   1.82408
   1.89781   1.92680   1.96620   1.98585   1.98692   2.02010   2.09003   2.09966
   2.11271   2.19137   2.20849   2.23000   2.23832   2.29215   2.30660
 kpt#  13, nband= 55, wtk=  0.01389, kpt=  0.5000  0.5000  0.0000 (reduced coord)
  -0.07215  -0.07215   0.11052   0.11052   0.23834   0.23834   0.58549   0.58549
   0.62159   0.62159   0.68041   0.68041   0.68738   0.68738   0.90663   0.90663
   0.93805   0.93805   0.96102   0.96102   0.99119   0.99119   1.15109   1.15109
   1.29684   1.29684   1.46316   1.46316   1.46773   1.46773   1.53620   1.53620
   1.54937   1.54937   1.67739   1.67739   1.71075   1.71075   1.74870   1.74870
   1.87719   1.87719   1.93871   1.93871   2.02522   2.02522   2.08743   2.08743
   2.20796   2.20796   2.28917   2.28918   2.29909   2.29925   2.31123
 kpt#  14, nband= 55, wtk=  0.11111, kpt=  0.5000  0.3333  0.1667 (reduced coord)
  -0.14116   0.00841   0.08287   0.13088   0.31906   0.35010   0.37035   0.47546
   0.54615   0.57870   0.69032   0.70156   0.72318   0.76316   0.82322   0.87011
   0.93278   0.98288   0.98913   1.04943   1.08972   1.11101   1.19325   1.22434
   1.24394   1.32346   1.36373   1.37934   1.40430   1.41589   1.44115   1.56309
   1.60403   1.64477   1.67004   1.67531   1.72392   1.73187   1.77510   1.78578
   1.86939   1.88510   1.91159   1.97137   1.97569   2.02256   2.03639   2.09281
   2.09640   2.14513   2.20506   2.24004   2.25688   2.30627   2.35566
 kpt#  15, nband= 55, wtk=  0.11111, kpt= -0.3333  0.3333  0.1667 (reduced coord)
  -0.10412  -0.03641   0.06647   0.11326   0.33720   0.34515   0.43887   0.45427
   0.49329   0.62417   0.65397   0.70739   0.81065   0.83310   0.84096   0.87071
   0.89378   0.96646   0.98368   1.01144   1.05763   1.14806   1.16394   1.16810
   1.23738   1.29957   1.33018   1.34933   1.36153   1.39435   1.44562   1.53786
   1.60982   1.66308   1.68819   1.72496   1.77241   1.77513   1.78377   1.81854
   1.85772   1.87223   1.91705   1.96369   1.99820   2.01863   2.09676   2.11459
   2.17622   2.19363   2.22939   2.24423   2.25992   2.28192   2.30830
 kpt#  16, nband= 55, wtk=  0.05556, kpt= -0.3333  0.5000  0.1667 (reduced coord)
  -0.06747  -0.06747   0.08001   0.08001   0.31472   0.31472   0.46346   0.46346
   0.60448   0.60448   0.69089   0.69089   0.81958   0.81958   0.84870   0.84870
   0.90102   0.90102   1.00199   1.00199   1.06439   1.06439   1.12996   1.12996
   1.29242   1.29242   1.34820   1.34820   1.40074   1.40074   1.56660   1.56660
   1.59238   1.59238   1.68537   1.68537   1.74419   1.74419   1.80186   1.80186
   1.88928   1.88928   1.98879   1.98879   2.00097   2.00097   2.08992   2.08992
   2.12175   2.12175   2.23774   2.23774   2.27123   2.27123   2.34071
 Total charge density [el/Bohr^3]
,     Maximum=    8.5108E-02  at reduced coord.    0.1250    0.1250    0.6250
,Next maximum=    8.5108E-02  at reduced coord.    0.1250    0.6250    0.1250
,     Minimum=    3.4868E-03  at reduced coord.    0.5000    0.5000    0.5000
,Next minimum=    3.4868E-03  at reduced coord.    0.7500    0.7500    0.7500
,  Integrated=    8.0000E+00

--------------------------------------------------------------------------------
 Components of total free energy (in Hartree) :

    Kinetic energy  =  3.03041979428516E+00
    Hartree energy  =  5.40895715022566E-01
    XC energy       = -3.53997188834834E+00
    Ewald energy    = -8.43581958561899E+00
    PspCore energy  =  8.60437873148613E-02
    Loc. psp. energy= -2.43551034532152E+00
    NL   psp  energy=  1.87977179060813E+00
    >>>>>>>>> Etotal= -8.87417073205814E+00

 Other information on the energy :
    Total energy(eV)= -2.41478466229211E+02 ; Band energy (Ha)=   2.3217313289E-01
--------------------------------------------------------------------------------

 Cartesian components of stress tensor (hartree/bohr^3)
  sigma(1 1)=  3.24327172E-05  sigma(3 2)=  0.00000000E+00
  sigma(2 2)=  3.24327172E-05  sigma(3 1)=  0.00000000E+00
  sigma(3 3)=  3.24327172E-05  sigma(2 1)=  0.00000000E+00

-Cartesian components of stress tensor (GPa)         [Pressure= -9.5420E-01 GPa]
- sigma(1 1)=  9.54203322E-01  sigma(3 2)=  0.00000000E+00
- sigma(2 2)=  9.54203322E-01  sigma(3 1)=  0.00000000E+00
- sigma(3 3)=  9.54203322E-01  sigma(2 1)=  0.00000000E+00

================================================================================
== DATASET  2 ==================================================================
-   nproc =    1

 mkfilename : getkss/=0, take file _KSS from output of DATASET   1.

 Exchange-correlation functional for the present dataset will be:
  LDA: new Teter (4/93) with spin-polarized option - ixc=1
 Citation for XC functional:
  S. Goedecker, M. Teter, J. Huetter, PRB 54, 1703 (1996)

 SCREENING: Calculation of the susceptibility and dielectric matrices 

 Based on a program developped by R.W. Godby, V. Olevano, G. Onida, and L. Reining.
 Incorporated in ABINIT by V. Olevano, G.-M. Rignanese, and M. Torrent.
.Using double precision arithmetic ; gwpc =  8

 Real(R)+Recip(G) space primitive vectors, cartesian coordinates (Bohr,Bohr^-1):
 R(1)=  0.0000000  5.1085000  5.1085000  G(1)= -0.0978761  0.0978761  0.0978761
 R(2)=  5.1085000  0.0000000  5.1085000  G(2)=  0.0978761 -0.0978761  0.0978761
 R(3)=  5.1085000  5.1085000  0.0000000  G(3)=  0.0978761  0.0978761 -0.0978761
 Unit cell volume ucvol=  2.6663072E+02 bohr^3
 Angles (23,13,12)=  6.00000000E+01  6.00000000E+01  6.00000000E+01 degrees

--- Pseudopotential description ------------------------------------------------
- pspini: atom type   1  psp file is /home/gonze/ABINIT/ABINITv7.9.3/trunk/7.9.3-private/tests/Psps_for_tests/14si.pspnc
- pspatm: opening atomic psp file    /home/gonze/ABINIT/ABINITv7.9.3/trunk/7.9.3-private/tests/Psps_for_tests/14si.pspnc
-  Troullier-Martins psp for element  Si        Thu Oct 27 17:31:21 EDT 1994
- 14.00000   4.00000    940714                znucl, zion, pspdat
    1    1    2    2      2001   0.00000      pspcod,pspxc,lmax,lloc,mmax,r2well
    0   5.907  14.692    1   2.0872718        l,e99.0,e99.9,nproj,rcpsp
   0.00000000   0.00000000   0.00000000   0.00000000     rms, ekb1, ekb2, epsatm
    1   2.617   4.181    1   2.0872718        l,e99.0,e99.9,nproj,rcpsp
   0.00000000   0.00000000   0.00000000   0.00000000     rms, ekb1, ekb2, epsatm
    2   0.000   0.000    0   2.0872718        l,e99.0,e99.9,nproj,rcpsp
   0.00000000   0.00000000   0.00000000   0.00000000     rms, ekb1, ekb2, epsatm
    1.80626423934776    0.22824404341771    1.17378968127746   rchrg,fchrg,qchrg
 pspatm: epsatm=    1.43386982
         --- l  ekb(1:nproj) -->
             0    3.287949
             1    1.849886
 pspatm: atomic psp has been read  and splines computed

--------------------------------------------------------------------------------

 ==== K-mesh for the wavefunctions ====
 Number of points in the irreducible wedge :    16
 Reduced coordinates and weights : 

     1)     0.00000000E+00  0.00000000E+00  0.00000000E+00       0.00463
     2)     1.66666667E-01  0.00000000E+00  0.00000000E+00       0.03704
     3)     3.33333333E-01  0.00000000E+00  0.00000000E+00       0.03704
     4)     5.00000000E-01  0.00000000E+00  0.00000000E+00       0.01852
     5)     1.66666667E-01  1.66666667E-01  0.00000000E+00       0.02778
     6)     3.33333333E-01  1.66666667E-01  0.00000000E+00       0.11111
     7)     5.00000000E-01  1.66666667E-01  0.00000000E+00       0.11111
     8)    -3.33333333E-01  1.66666667E-01  0.00000000E+00       0.11111
     9)    -1.66666667E-01  1.66666667E-01  0.00000000E+00       0.05556
    10)     3.33333333E-01  3.33333333E-01  0.00000000E+00       0.02778
    11)     5.00000000E-01  3.33333333E-01  0.00000000E+00       0.11111
    12)    -3.33333333E-01  3.33333333E-01  0.00000000E+00       0.05556
    13)     5.00000000E-01  5.00000000E-01  0.00000000E+00       0.01389
    14)     5.00000000E-01  3.33333333E-01  1.66666667E-01       0.11111
    15)    -3.33333333E-01  3.33333333E-01  1.66666667E-01       0.11111
    16)    -3.33333333E-01  5.00000000E-01  1.66666667E-01       0.05556

 Together with 48 symmetry operations and time-reversal symmetry 
 yields   216 points in the full Brillouin Zone.


 ==== Q-mesh for the screening function ====
 Number of points in the irreducible wedge :    16
 Reduced coordinates and weights : 

     1)     0.00000000E+00  0.00000000E+00  0.00000000E+00       0.00463
     2)     1.66666667E-01  0.00000000E+00  0.00000000E+00       0.03704
     3)     3.33333333E-01  0.00000000E+00  0.00000000E+00       0.03704
     4)     5.00000000E-01  0.00000000E+00  0.00000000E+00       0.01852
     5)     1.66666667E-01  1.66666667E-01  0.00000000E+00       0.02778
     6)     3.33333333E-01  1.66666667E-01  0.00000000E+00       0.11111
     7)     5.00000000E-01  1.66666667E-01  0.00000000E+00       0.11111
     8)    -3.33333333E-01  1.66666667E-01  0.00000000E+00       0.11111
     9)    -1.66666667E-01  1.66666667E-01  0.00000000E+00       0.05556
    10)     3.33333333E-01  3.33333333E-01  0.00000000E+00       0.02778
    11)     5.00000000E-01  3.33333333E-01  0.00000000E+00       0.11111
    12)    -3.33333333E-01  3.33333333E-01  0.00000000E+00       0.05556
    13)     5.00000000E-01  5.00000000E-01  0.00000000E+00       0.01389
    14)     5.00000000E-01  3.33333333E-01  1.66666667E-01       0.11111
    15)    -3.33333333E-01  3.33333333E-01  1.66666667E-01       0.11111
    16)    -3.33333333E-01  5.00000000E-01  1.66666667E-01       0.05556

 Together with 48 symmetry operations and time-reversal symmetry 
 yields   216 points in the full Brillouin Zone.


 setmesh: FFT mesh size selected  =  20x 20x 20
          total number of points  =     8000


 screening : taking advantage of time-reversal symmetry 
 Maximum band index for partially occupied states nbvw =     4
 Remaining bands to be divided among processors   nbcw =    21
P Number of bands treated by each node ~   21

 k       eigenvalues [eV]
  1         -6.17   5.91   5.91   5.91   8.43   8.43   8.43   9.15  13.56  13.68
            13.68  17.06  17.06  17.06  20.97  28.95  28.95  28.95  30.14  30.14
            31.26  31.26  31.26  35.47  35.47
  2         -5.80   3.49   5.45   5.45   8.18   9.08   9.08  11.24  13.00  13.00
            14.74  16.39  18.98  18.98  23.00  25.84  25.84  26.26  29.79  29.79
            32.03  32.03  33.15  35.80  36.81
  3         -4.77   0.51   4.89   4.89   7.58   9.37   9.37  13.61  13.89  13.89
            14.80  19.31  20.53  20.53  22.48  23.56  23.56  27.58  29.92  29.92
            30.95  32.49  32.49  34.76  35.34
  4         -3.79  -1.16   4.69   4.69   7.35   9.19   9.19  13.43  16.50  16.50
            17.06  17.22  17.22  18.62  24.96  25.74  27.54  27.54  27.70  27.70
            31.36  32.45  32.45  33.08  33.08
  5         -5.68   3.86   4.69   4.69   7.52  10.11  10.23  10.23  12.43  14.22
            15.40  17.91  17.91  18.45  24.10  25.30  25.30  26.67  27.53  29.61
            32.19  32.83  32.83  37.74  37.74
  6         -4.85   1.43   3.87   4.13   7.78   9.89  10.37  10.96  14.91  15.01
            16.16  18.61  19.63  21.13  21.90  22.81  25.65  26.53  27.47  29.10
            31.22  32.20  33.18  35.27  35.63
  7         -3.63  -0.78   3.08   4.10   7.85   9.95  10.49  12.26  15.20  16.40
            17.55  17.74  18.38  21.93  23.67  24.91  25.94  26.40  27.00  28.62
            29.75  31.89  32.80  33.21  33.39
  8         -4.02  -0.16   2.80   4.59   8.27   9.95  10.10  13.10  13.22  15.21
            17.25  18.62  20.68  21.32  22.06  23.75  25.82  27.65  28.01  28.75
            30.71  30.72  32.73  33.50  33.75
  9         -5.20   2.16   3.43   5.33   8.88   9.43   9.69  11.47  11.99  15.23
            16.19  17.31  19.20  21.43  21.92  24.47  26.39  26.55  26.88  28.26
            32.00  32.53  34.14  35.14  36.56
 10         -4.23   0.87   3.45   3.45   6.51   7.78  13.14  13.14  15.54  15.84
            18.78  19.37  19.37  20.92  22.19  22.22  22.22  24.58  28.71  30.34
            31.33  31.33  32.11  33.55  33.61
 11         -3.05  -0.70   2.19   3.31   6.85   8.53  13.32  13.33  16.44  16.62
            18.27  18.60  20.49  21.60  21.91  24.43  24.50  25.29  26.38  28.36
            29.09  29.46  30.16  32.55  34.94
 12         -2.84  -0.91   1.39   3.76   7.36  11.64  12.35  12.91  13.23  13.57
            20.16  20.70  21.44  21.68  22.52  23.41  24.09  25.71  28.06  28.53
            28.76  29.44  32.54  32.76  33.35
 13         -1.96  -1.96   3.01   3.01   6.49   6.49  15.93  15.93  16.91  16.91
            18.51  18.51  18.70  18.70  24.67  24.67  25.53  25.53  26.15  26.15
            26.97  26.97  31.32  31.32  35.29
 14         -3.84   0.23   2.26   3.56   8.68   9.53  10.08  12.94  14.86  15.75
            18.78  19.09  19.68  20.77  22.40  23.68  25.38  26.75  26.92  28.56
            29.65  30.23  32.47  33.32  33.85
 15         -2.83  -0.99   1.81   3.08   9.18   9.39  11.94  12.36  13.42  16.98
            17.80  19.25  22.06  22.67  22.88  23.69  24.32  26.30  26.77  27.52
            28.78  31.24  31.67  31.79  33.67
 16         -1.84  -1.84   2.18   2.18   8.56   8.56  12.61  12.61  16.45  16.45
            18.80  18.80  22.30  22.30  23.09  23.09  24.52  24.52  27.27  27.27
            28.96  28.96  30.75  30.75  35.17
 Number of electrons calculated from density =    8.0000; Expected =    8.0000
 average of density, n =  0.030004
 r_s =    1.9964
 omega_plasma =   16.7088 [eV]


 calculating chi0 at frequencies [eV] :
  1    0.000000E+00    0.000000E+00
  2    1.785714E+00    0.000000E+00
  3    3.571429E+00    0.000000E+00
  4    5.357143E+00    0.000000E+00
  5    7.142857E+00    0.000000E+00
  6    8.928571E+00    0.000000E+00
  7    1.071429E+01    0.000000E+00
  8    1.250000E+01    0.000000E+00
  9    1.428571E+01    0.000000E+00
 10    1.607143E+01    0.000000E+00
 11    1.785714E+01    0.000000E+00
 12    1.964286E+01    0.000000E+00
 13    2.142857E+01    0.000000E+00
 14    2.321429E+01    0.000000E+00
 15    2.500000E+01    0.000000E+00
 16    0.000000E+00    3.271580E+00
 17    0.000000E+00    8.464891E+00
 18    0.000000E+00    1.670876E+01
 19    0.000000E+00    2.979508E+01
 20    0.000000E+00    5.056832E+01


--------------------------------------------------------------------------------
  q-point number  1        q = ( 0.000000, 0.000000, 0.000000) [r.l.u.]
--------------------------------------------------------------------------------
  chi0(G,G') at the    1 th omega   0.0000   0.0000 [eV]
       1       2       3       4       5       6       7       8       9
    1  -0.000   0.000  -0.000  -0.000   0.000   0.000  -0.000  -0.000   0.000
       -0.000   0.000   0.000  -0.000  -0.000   0.000   0.000  -0.000  -0.000

    2   0.000 -18.112  -0.000  -0.154   0.000  -0.154  -0.000  -0.153  -0.000
       -0.000  -0.000  -4.557  -0.000  -0.327   0.000  -0.329   0.000  -0.334

  chi0(G,G') at the    2 th omega   1.7857   0.0000 [eV]
       1       2       3       4       5       6       7       8       9
    1  -0.000   0.000  -0.000  -0.000   0.000   0.000  -0.000  -0.000   0.000
       -0.000   0.000   0.000  -0.000  -0.000   0.000   0.000  -0.000  -0.000

    2   0.000 -18.972   0.106  -0.189   0.006  -0.189   0.006  -0.188   0.006
       -0.000  -0.233  -5.021  -0.007  -0.354  -0.007  -0.355  -0.007  -0.360

  chi0(G,G') at the    3 th omega   3.5714   0.0000 [eV]
       1       2       3       4       5       6       7       8       9
    1  -0.000  -0.000  -0.001   0.000   0.002  -0.000  -0.002   0.000   0.001
       -0.000   0.001  -0.000  -0.002   0.000   0.002  -0.000  -0.001   0.000

    2   0.001 -23.056   3.722  -0.818   0.105  -0.818   0.105  -0.818   0.105
        0.000  -5.245  -6.984   0.075  -1.006   0.075  -1.007   0.075  -1.012

  chi0(G,G') at the    4 th omega   5.3571   0.0000 [eV]
       1       2       3       4       5       6       7       8       9
    1   0.000   0.000  -0.000  -0.000   0.000   0.000  -0.000  -0.000   0.000
       -0.000   0.000   0.000  -0.000  -0.000   0.000   0.000  -0.000  -0.000

    2   0.000 -25.594   4.578  -0.816   1.306  -0.816   1.306  -0.816   1.306
       -0.000  -7.466  -6.715  -1.004  -0.049  -1.004  -0.050  -1.004  -0.055

  chi0(G,G') at the    5 th omega   7.1429   0.0000 [eV]
       1       2       3       4       5       6       7       8       9
    1   0.000  -0.000  -0.000   0.000   0.000  -0.000  -0.000   0.000   0.000
       -0.000   0.000  -0.000  -0.000   0.000   0.000  -0.000  -0.000   0.000

    2   0.000 -17.888   3.888   1.588  -0.021   1.588  -0.021   1.588  -0.021
        0.000  -8.930  -3.325  -1.241  -1.069  -1.241  -1.071  -1.241  -1.076

  chi0(G,G') at the    6 th omega   8.9286   0.0000 [eV]
       1       2       3       4       5       6       7       8       9
    1   0.000  -0.000  -0.000   0.000   0.000  -0.000  -0.000   0.000   0.000
       -0.000   0.000  -0.000  -0.000   0.000   0.000  -0.000  -0.000   0.000

    2   0.000 -19.464   2.690   1.763   0.137   1.763   0.137   1.763   0.137
        0.000 -10.301  -2.954   0.230   0.383   0.230   0.381   0.230   0.376

  chi0(G,G') at the    7 th omega  10.7143   0.0000 [eV]
       1       2       3       4       5       6       7       8       9
    1   0.000  -0.000  -0.000   0.000   0.000  -0.000  -0.000   0.000   0.000
       -0.000   0.000  -0.000  -0.000   0.000   0.000  -0.000  -0.000   0.000

    2   0.000  -9.365   3.107   1.010  -1.922   1.010  -1.922   1.011  -1.922
        0.000 -12.563  -2.071   0.623  -1.130   0.623  -1.131   0.623  -1.137

  chi0(G,G') at the    8 th omega  12.5000   0.0000 [eV]
       1       2       3       4       5       6       7       8       9
    1   0.000  -0.000  -0.000   0.000   0.000  -0.000  -0.000   0.000   0.000
       -0.000   0.000  -0.000  -0.000   0.000   0.000  -0.000  -0.000   0.000

    2   0.000 -11.468   7.833   0.593  -1.413   0.593  -1.413   0.594  -1.413
        0.000 -22.730  -1.742   2.268  -0.561   2.268  -0.562   2.268  -0.568

  chi0(G,G') at the    9 th omega  14.2857   0.0000 [eV]
       1       2       3       4       5       6       7       8       9
    1   0.000  -0.000  -0.000   0.000   0.000  -0.000  -0.000   0.000   0.000
       -0.000   0.000  -0.000  -0.000   0.000   0.000  -0.000  -0.000   0.000

    2   0.000  -5.978   9.856  -0.264  -0.700  -0.264  -0.700  -0.263  -0.700
        0.000 -23.413   3.057   0.210  -2.250   0.210  -2.252   0.210  -2.258

  chi0(G,G') at the   10 th omega  16.0714   0.0000 [eV]
       1       2       3       4       5       6       7       8       9
    1   0.000  -0.000   0.000   0.000  -0.000  -0.000   0.000   0.000  -0.000
       -0.000  -0.000  -0.000   0.000   0.000  -0.000  -0.000   0.000   0.000

    2  -0.000  -1.151   4.977   0.399   2.322   0.399   2.322   0.400   2.322
        0.000 -17.672   9.032   0.464  -0.901   0.464  -0.903   0.464  -0.909

  chi0(G,G') at the   11 th omega  17.8571   0.0000 [eV]
       1       2       3       4       5       6       7       8       9
    1   0.000  -0.000   0.000   0.000  -0.000  -0.000   0.000   0.000  -0.000
       -0.000  -0.000  -0.000   0.000   0.000  -0.000  -0.000   0.000   0.000

    2  -0.000  -4.063   0.443  -1.550  -0.207  -1.550  -0.207  -1.549  -0.207
        0.000 -12.822   6.400   1.020  -1.290   1.020  -1.292   1.020  -1.299

  chi0(G,G') at the   12 th omega  19.6429   0.0000 [eV]
       1       2       3       4       5       6       7       8       9
    1   0.000  -0.000   0.000   0.000  -0.000  -0.000   0.000   0.000  -0.000
       -0.000  -0.000  -0.000   0.000   0.000  -0.000  -0.000   0.000   0.000

    2  -0.000  -6.061   0.095  -2.093   3.147  -2.093   3.147  -2.092   3.147
        0.000 -16.450   1.751  -0.879  -1.841  -0.879  -1.843  -0.879  -1.850

  chi0(G,G') at the   13 th omega  21.4286   0.0000 [eV]
       1       2       3       4       5       6       7       8       9
    1   0.000  -0.000   0.000   0.000  -0.000  -0.000   0.000   0.000  -0.000
       -0.000  -0.000  -0.000   0.000   0.000  -0.000  -0.000   0.000   0.000

    2  -0.000   6.485  -0.071   0.735   0.079   0.735   0.079   0.737   0.079
        0.000 -20.563   1.330   0.569  -1.026   0.569  -1.029   0.569  -1.037

  chi0(G,G') at the   14 th omega  23.2143   0.0000 [eV]
       1       2       3       4       5       6       7       8       9
    1   0.000  -0.000   0.000   0.000  -0.000  -0.000   0.000   0.000  -0.000
       -0.000  -0.000  -0.000   0.000   0.000  -0.000  -0.000   0.000   0.000

    2  -0.000   7.444   1.370  -1.919   3.677  -1.919   3.678  -1.917   3.678
        0.000 -18.035   2.867  -1.791   2.118  -1.791   2.115  -1.791   2.107

  chi0(G,G') at the   15 th omega  25.0000   0.0000 [eV]
       1       2       3       4       5       6       7       8       9
    1   0.000  -0.000   0.000   0.000  -0.000  -0.000   0.000   0.000  -0.000
       -0.000  -0.000  -0.000   0.000   0.000  -0.000  -0.000   0.000   0.000

    2  -0.000  10.421  -1.109  -1.037   2.559  -1.037   2.559  -1.036   2.559
        0.000 -17.808  -0.892   0.326   0.985   0.326   0.981   0.326   0.972

 No. of calculated frequencies >  15, stop printing
 For q-point:  0.000010 0.000020 0.000030
  dielectric constant =  19.2703
  dielectric constant without local fields =  21.3592

  Average fulfillment of the sum rule on Im[epsilon] for q-point    1 :     55.50  [%]
  Heads and wings of the symmetrical epsilon^-1(G,G') 

   Upper and lower wings at the    1 th omega   0.0000   0.0000 [eV]
       1       2       3       4       5       6       7       8       9
      0.052   0.005  -0.005  -0.014   0.014   0.014  -0.014  -0.005   0.005
     -0.000   0.005   0.005  -0.014  -0.014   0.014   0.014  -0.005  -0.005
       1       2       3       4       5       6       7       8       9
      0.052   0.005  -0.005  -0.014   0.014   0.014  -0.014  -0.005   0.005
     -0.000  -0.005  -0.005   0.014   0.014  -0.014  -0.014   0.005   0.005


   Upper and lower wings at the    2 th omega   1.7857   0.0000 [eV]
       1       2       3       4       5       6       7       8       9
      0.037   0.004  -0.004  -0.012   0.011   0.012  -0.011  -0.004   0.004
     -0.002   0.004   0.004  -0.011  -0.012   0.011   0.012  -0.004  -0.004
       1       2       3       4       5       6       7       8       9
      0.037   0.004  -0.004  -0.011   0.012   0.011  -0.012  -0.004   0.004
     -0.002  -0.004  -0.004   0.012   0.011  -0.012  -0.011   0.004   0.004


   Upper and lower wings at the    3 th omega   3.5714   0.0000 [eV]
       1       2       3       4       5       6       7       8       9
      0.006   0.005  -0.003  -0.016   0.008   0.016  -0.008  -0.005   0.003
     -0.011   0.003   0.005  -0.008  -0.016   0.008   0.016  -0.003  -0.005
       1       2       3       4       5       6       7       8       9
      0.006   0.003  -0.005  -0.008   0.016   0.008  -0.016  -0.003   0.005
     -0.011  -0.005  -0.003   0.016   0.008  -0.016  -0.008   0.005   0.003


   Upper and lower wings at the    4 th omega   5.3571   0.0000 [eV]
       1       2       3       4       5       6       7       8       9
     -0.100   0.008   0.011  -0.024  -0.034   0.024   0.034  -0.008  -0.011
     -0.096  -0.011   0.008   0.034  -0.024  -0.034   0.024   0.011  -0.008
       1       2       3       4       5       6       7       8       9
     -0.100  -0.011  -0.008   0.034   0.024  -0.034  -0.024   0.011   0.008
     -0.096  -0.008   0.011   0.024  -0.034  -0.024   0.034   0.008  -0.011


   Upper and lower wings at the    5 th omega   7.1429   0.0000 [eV]
       1       2       3       4       5       6       7       8       9
     -0.086   0.015   0.001  -0.046  -0.004   0.046   0.004  -0.015  -0.001
     -0.091  -0.001   0.015   0.004  -0.046  -0.004   0.046   0.001  -0.015
       1       2       3       4       5       6       7       8       9
     -0.086  -0.001  -0.015   0.004   0.046  -0.004  -0.046   0.001   0.015
     -0.091  -0.015   0.001   0.046  -0.004  -0.046   0.004   0.015  -0.001


   Upper and lower wings at the    6 th omega   8.9286   0.0000 [eV]
       1       2       3       4       5       6       7       8       9
     -0.241   0.013   0.006  -0.039  -0.019   0.039   0.019  -0.013  -0.006
     -0.104  -0.006   0.013   0.019  -0.039  -0.019   0.039   0.006  -0.013
       1       2       3       4       5       6       7       8       9
     -0.241  -0.006  -0.013   0.019   0.039  -0.019  -0.039   0.006   0.013
     -0.104  -0.013   0.006   0.039  -0.019  -0.039   0.019   0.013  -0.006


   Upper and lower wings at the    7 th omega  10.7143   0.0000 [eV]
       1       2       3       4       5       6       7       8       9
     -0.362   0.032   0.003  -0.095  -0.009   0.095   0.009  -0.032  -0.003
     -0.206  -0.003   0.032   0.009  -0.095  -0.009   0.095   0.003  -0.032
       1       2       3       4       5       6       7       8       9
     -0.362  -0.003  -0.032   0.009   0.095  -0.009  -0.095   0.003   0.032
     -0.206  -0.032   0.003   0.095  -0.009  -0.095   0.009   0.032  -0.003


   Upper and lower wings at the    8 th omega  12.5000   0.0000 [eV]
       1       2       3       4       5       6       7       8       9
     -0.757   0.047   0.032  -0.141  -0.097   0.141   0.097  -0.047  -0.032
     -0.549  -0.032   0.047   0.097  -0.141  -0.097   0.141   0.032  -0.047
       1       2       3       4       5       6       7       8       9
     -0.757  -0.032  -0.047   0.097   0.141  -0.097  -0.141   0.032   0.047
     -0.549  -0.047   0.032   0.141  -0.097  -0.141   0.097   0.047  -0.032


   Upper and lower wings at the    9 th omega  14.2857   0.0000 [eV]
       1       2       3       4       5       6       7       8       9
     -1.061   0.073   0.027  -0.219  -0.082   0.220   0.082  -0.073  -0.027
     -0.964  -0.027   0.073   0.082  -0.219  -0.082   0.220   0.027  -0.073
       1       2       3       4       5       6       7       8       9
     -1.061  -0.027  -0.073   0.082   0.219  -0.082  -0.220   0.027   0.073
     -0.964  -0.073   0.027   0.219  -0.082  -0.220   0.082   0.073  -0.027


   Upper and lower wings at the   10 th omega  16.0714   0.0000 [eV]
       1       2       3       4       5       6       7       8       9
     -1.255   0.139  -0.027  -0.418   0.080   0.418  -0.080  -0.140   0.027
     -1.498   0.027   0.139  -0.080  -0.418   0.080   0.418  -0.027  -0.140
       1       2       3       4       5       6       7       8       9
     -1.255   0.027  -0.139  -0.080   0.418   0.080  -0.418  -0.027   0.140
     -1.498  -0.139  -0.027   0.418   0.080  -0.418  -0.080   0.140   0.027


   Upper and lower wings at the   11 th omega  17.8571   0.0000 [eV]
       1       2       3       4       5       6       7       8       9
     -0.426   0.108  -0.181  -0.325   0.543   0.325  -0.543  -0.109   0.181
     -3.496   0.181   0.108  -0.543  -0.325   0.543   0.325  -0.181  -0.109
       1       2       3       4       5       6       7       8       9
     -0.426   0.181  -0.108  -0.543   0.325   0.543  -0.325  -0.181   0.109
     -3.496  -0.108  -0.181   0.325   0.543  -0.325  -0.543   0.109   0.181


   Upper and lower wings at the   12 th omega  19.6429   0.0000 [eV]
       1       2       3       4       5       6       7       8       9
      2.464  -0.077  -0.150   0.229   0.450  -0.230  -0.451   0.077   0.151
     -4.677   0.150  -0.077  -0.450   0.229   0.451  -0.230  -0.151   0.077
       1       2       3       4       5       6       7       8       9
      2.464   0.150   0.077  -0.450  -0.229   0.451   0.230  -0.151  -0.077
     -4.677   0.077  -0.150  -0.229   0.450   0.230  -0.451  -0.077   0.151


   Upper and lower wings at the   13 th omega  21.4286   0.0000 [eV]
       1       2       3       4       5       6       7       8       9
      2.908  -0.055  -0.099   0.164   0.297  -0.164  -0.297   0.055   0.099
     -1.307   0.099  -0.055  -0.297   0.164   0.297  -0.164  -0.099   0.055
       1       2       3       4       5       6       7       8       9
      2.908   0.099   0.055  -0.297  -0.164   0.297   0.164  -0.099  -0.055
     -1.307   0.055  -0.099  -0.164   0.297   0.164  -0.297  -0.055   0.099


   Upper and lower wings at the   14 th omega  23.2143   0.0000 [eV]
       1       2       3       4       5       6       7       8       9
      2.249  -0.078  -0.067   0.233   0.200  -0.233  -0.200   0.078   0.067
     -0.656   0.067  -0.078  -0.200   0.233   0.200  -0.233  -0.067   0.078
       1       2       3       4       5       6       7       8       9
      2.249   0.067   0.078  -0.200  -0.233   0.200   0.233  -0.067  -0.078
     -0.656   0.078  -0.067  -0.233   0.200   0.233  -0.200  -0.078   0.067


   Upper and lower wings at the   15 th omega  25.0000   0.0000 [eV]
       1       2       3       4       5       6       7       8       9
      1.882  -0.054  -0.040   0.161   0.120  -0.161  -0.120   0.054   0.040
     -0.411   0.040  -0.054  -0.120   0.161   0.120  -0.161  -0.040   0.054
       1       2       3       4       5       6       7       8       9
      1.882   0.040   0.054  -0.120  -0.161   0.120   0.161  -0.040  -0.054
     -0.411   0.054  -0.040  -0.161   0.120   0.161  -0.120  -0.054   0.040


   Upper and lower wings at the   16 th omega   0.0000   3.2716 [eV]
       1       2       3       4       5       6       7       8       9
      0.091   0.006  -0.006  -0.019   0.019   0.019  -0.019  -0.006   0.006
      0.000   0.006   0.006  -0.019  -0.019   0.019   0.019  -0.006  -0.006
       1       2       3       4       5       6       7       8       9
      0.091   0.006  -0.006  -0.019   0.019   0.019  -0.019  -0.006   0.006
      0.000  -0.006  -0.006   0.019   0.019  -0.019  -0.019   0.006   0.006


   Upper and lower wings at the   17 th omega   0.0000   8.4649 [eV]
       1       2       3       4       5       6       7       8       9
      0.238   0.009  -0.009  -0.026   0.026   0.026  -0.026  -0.009   0.009
      0.000   0.009   0.009  -0.026  -0.026   0.026   0.026  -0.009  -0.009
       1       2       3       4       5       6       7       8       9
      0.238   0.009  -0.009  -0.026   0.026   0.026  -0.026  -0.009   0.009
      0.000  -0.009  -0.009   0.026   0.026  -0.026  -0.026   0.009   0.009


   Upper and lower wings at the   18 th omega   0.0000  16.7088 [eV]
       1       2       3       4       5       6       7       8       9
      0.480   0.009  -0.009  -0.026   0.026   0.026  -0.026  -0.009   0.009
     -0.000   0.009   0.009  -0.026  -0.026   0.026   0.026  -0.009  -0.009
       1       2       3       4       5       6       7       8       9
      0.480   0.009  -0.009  -0.026   0.026   0.026  -0.026  -0.009   0.009
     -0.000  -0.009  -0.009   0.026   0.026  -0.026  -0.026   0.009   0.009


   Upper and lower wings at the   19 th omega   0.0000  29.7951 [eV]
       1       2       3       4       5       6       7       8       9
      0.704   0.006  -0.006  -0.018   0.018   0.018  -0.018  -0.006   0.006
     -0.000   0.006   0.006  -0.018  -0.018   0.018   0.018  -0.006  -0.006
       1       2       3       4       5       6       7       8       9
      0.704   0.006  -0.006  -0.018   0.018   0.018  -0.018  -0.006   0.006
     -0.000  -0.006  -0.006   0.018   0.018  -0.018  -0.018   0.006   0.006


   Upper and lower wings at the   20 th omega   0.0000  50.5683 [eV]
       1       2       3       4       5       6       7       8       9
      0.834   0.003  -0.003  -0.009   0.009   0.009  -0.009  -0.003   0.003
      0.000   0.003   0.003  -0.009  -0.009   0.009   0.009  -0.003  -0.003
       1       2       3       4       5       6       7       8       9
      0.834   0.003  -0.003  -0.009   0.009   0.009  -0.009  -0.003   0.003
      0.000  -0.003  -0.003   0.009   0.009  -0.009  -0.009   0.003   0.003




--------------------------------------------------------------------------------
  q-point number  2        q = ( 0.166667, 0.000000, 0.000000) [r.l.u.]
--------------------------------------------------------------------------------
  chi0(G,G') at the    1 th omega   0.0000   0.0000 [eV]
       1       2       3       4       5       6       7       8       9
    1  -5.539  -1.440   1.924  -0.414  -1.378  -0.414  -1.378  -0.414  -1.378
       -0.000  -1.440  -1.924  -0.414   1.378  -0.414   1.378  -0.414   1.378

    2  -1.440 -16.940   0.000  -0.526  -0.000  -0.527  -0.000  -0.527  -0.000
[...]
    1  -6.168 -10.446 -17.242   6.981   0.621  -0.610 -10.331   0.115  -6.053
    1   0.000   0.000   0.000   1.019   0.000   0.000   0.633   0.633   0.633
    2   5.906 -11.260 -12.394   1.254   0.773  -0.294 -11.167   0.092   5.998
    2   0.000   0.000   0.000   0.000   0.000   0.000   0.000   0.000   0.000
    3   5.906 -11.260 -12.394   1.254   0.773  -0.294 -11.167   0.092   5.998
    3   0.000   0.000   0.000   0.000   0.000   0.000   0.000   0.000   0.000
    4   5.906 -11.260 -12.394   1.254   0.773  -0.294 -11.167   0.092   5.998
    4   0.000   0.000   0.000   0.000   0.000   0.000   0.000   0.000   0.000
    5   8.427 -10.063  -5.782  -3.397   0.768  -0.301  -9.384   0.679   9.106
    5   0.000   0.000   0.000  -0.002   0.000   0.000  -0.001  -0.001  -0.001
    6   8.427 -10.063  -5.782  -3.397   0.768  -0.301  -9.384   0.679   9.106
    6   0.000   0.000   0.000  -0.002   0.000   0.000  -0.001  -0.001  -0.001
    7   8.427 -10.063  -5.782  -3.397   0.768  -0.301  -9.384   0.679   9.106
    7   0.000   0.000   0.000  -0.002   0.000   0.000  -0.001  -0.001  -0.001

 E^0_gap          2.521
 E^GW_gap         3.108
 DeltaE^GW_gap    0.587


 k =    0.500   0.500   0.000
 Band     E0 <VxcLDA>   SigX SigC(E0)      Z dSigC/dE  Sig(E)    E-E0       E
    1  -1.963 -10.795 -15.736   5.056   0.692  -0.445 -10.716   0.079  -1.884
    1   0.000   0.000   0.000   0.423   0.000   0.000   0.293   0.293   0.293
    2  -1.963 -10.795 -15.736   5.056   0.692  -0.445 -10.716   0.079  -1.884
    2   0.000   0.000   0.000   0.423   0.000   0.000   0.293   0.293   0.293
    3   3.007 -10.579 -12.976   2.330   0.739  -0.354 -10.629  -0.050   2.958
    3   0.000   0.000   0.000   0.008   0.000   0.000   0.006   0.006   0.006
    4   3.007 -10.579 -12.976   2.330   0.739  -0.354 -10.629  -0.050   2.958
    4   0.000   0.000   0.000   0.008   0.000   0.000   0.006   0.006   0.006
    5   6.486  -9.126  -5.288  -3.072   0.789  -0.267  -8.522   0.604   7.090
    5   0.000   0.000   0.000  -0.000   0.000   0.000  -0.000  -0.000  -0.000
    6   6.486  -9.126  -5.288  -3.072   0.789  -0.267  -8.522   0.604   7.090
    6   0.000   0.000   0.000  -0.000   0.000   0.000  -0.000  -0.000  -0.000

 E^0_gap          3.478
 E^GW_gap         4.132
 DeltaE^GW_gap    0.654


 k =    0.500   0.000   0.000
 Band     E0 <VxcLDA>   SigX SigC(E0)      Z dSigC/dE  Sig(E)    E-E0       E
    1  -3.787 -10.799 -16.602   5.914   0.689  -0.452 -10.723   0.076  -3.711
    1   0.000   0.000   0.000   0.709   0.000   0.000   0.489   0.489   0.489
    2  -1.161 -10.206 -14.635   4.507   0.697  -0.435 -10.151   0.054  -1.106
    2   0.000   0.000   0.000   0.304   0.000   0.000   0.212   0.212   0.212
    3   4.692 -11.013 -12.698   1.700   0.762  -0.312 -11.001   0.012   4.704
    3   0.000   0.000   0.000   0.000   0.000   0.000   0.000   0.000   0.000
    4   4.692 -11.013 -12.698   1.700   0.762  -0.312 -11.001   0.012   4.704
    4   0.000   0.000   0.000   0.000   0.000   0.000   0.000   0.000   0.000
    5   7.346 -10.113  -6.078  -3.211   0.779  -0.283  -9.471   0.642   7.988
    5   0.000   0.000   0.000  -0.000   0.000   0.000  -0.000  -0.000  -0.000
    6   9.194  -9.727  -5.051  -3.719   0.766  -0.305  -8.994   0.733   9.927
    6   0.000   0.000   0.000  -0.007   0.000   0.000  -0.006  -0.006  -0.006
    7   9.194  -9.727  -5.051  -3.719   0.766  -0.305  -8.994   0.733   9.927
    7   0.000   0.000   0.000  -0.007   0.000   0.000  -0.006  -0.006  -0.006

 E^0_gap          2.653
 E^GW_gap         3.283
 DeltaE^GW_gap    0.630


== END DATASET(S) ==============================================================
================================================================================
  
 -outvars: echo values of variables after computation  --------
            acell      1.0217000000E+01  1.0217000000E+01  1.0217000000E+01 Bohr
              amu      2.80855000E+01
             bdgw           1       7       1       6       1       7
           diemac      1.20000000E+01
             ecut1     1.20000000E+01 Hartree
             ecut2     1.11566797E+01 Hartree
             ecut3     1.11566797E+01 Hartree
          ecuteps1     3.00000000E+00 Hartree
          ecuteps2     2.26915520E+00 Hartree
          ecuteps3     2.26915520E+00 Hartree
         ecutsigx1     3.00000000E+00 Hartree
         ecutsigx2     2.26915520E+00 Hartree
         ecutsigx3     2.26915520E+00 Hartree
          ecutwfn1     1.20000000E+01 Hartree
          ecutwfn2     1.11566797E+01 Hartree
          ecutwfn3     1.11566797E+01 Hartree
           etotal1    -8.8741707321E+00
           etotal2     0.0000000000E+00
           etotal3     0.0000000000E+00
            fcart1    -0.0000000000E+00 -0.0000000000E+00 -0.0000000000E+00
                      -0.0000000000E+00 -0.0000000000E+00 -0.0000000000E+00
            fcart2     0.0000000000E+00  0.0000000000E+00  0.0000000000E+00
                       0.0000000000E+00  0.0000000000E+00  0.0000000000E+00
            fcart3     0.0000000000E+00  0.0000000000E+00  0.0000000000E+00
                       0.0000000000E+00  0.0000000000E+00  0.0000000000E+00
-          fftalg         112
        freqremax1     0.00000000E+00 Hartree
        freqremax2     9.18733135E-01 Hartree
        freqremax3     0.00000000E+00 Hartree
           getkss1          0
           getkss2          1
           getkss3          1
           getscr1          0
           getscr2          0
           getscr3          2
        gwcalctyp           2
           gwpara           2
         icutcoul1          6
         icutcoul2          6
         icutcoul3          3
          inclvkb           0
           istwfk        1    0    0    1    0    0    0    0    0    0
                         0    0    1    0    0    0
           jdtset        1    2    3
              kpt      0.00000000E+00  0.00000000E+00  0.00000000E+00
                       1.66666667E-01  0.00000000E+00  0.00000000E+00
                       3.33333333E-01  0.00000000E+00  0.00000000E+00
                       5.00000000E-01  0.00000000E+00  0.00000000E+00
                       1.66666667E-01  1.66666667E-01  0.00000000E+00
                       3.33333333E-01  1.66666667E-01  0.00000000E+00
                       5.00000000E-01  1.66666667E-01  0.00000000E+00
                      -3.33333333E-01  1.66666667E-01  0.00000000E+00
                      -1.66666667E-01  1.66666667E-01  0.00000000E+00
                       3.33333333E-01  3.33333333E-01  0.00000000E+00
                       5.00000000E-01  3.33333333E-01  0.00000000E+00
                      -3.33333333E-01  3.33333333E-01  0.00000000E+00
                       5.00000000E-01  5.00000000E-01  0.00000000E+00
                       5.00000000E-01  3.33333333E-01  1.66666667E-01
                      -3.33333333E-01  3.33333333E-01  1.66666667E-01
                      -3.33333333E-01  5.00000000E-01  1.66666667E-01
            kptgw      0.00000000E+00  0.00000000E+00  0.00000000E+00
                       5.00000000E-01  5.00000000E-01  0.00000000E+00
                       5.00000000E-01  0.00000000E+00  0.00000000E+00
         kptrlatt        6    0    0      0    6    0      0    0    6
          kptrlen      4.33470599E+01
          kssform1          3
          kssform2          1
          kssform3          1
P           mkmem          16
            natom           2
            nband1         55
            nband2         25
            nband3         25
         nbandkss1         50
         nbandkss2          0
         nbandkss3          0
           nbdbuf1          5
           nbdbuf2          0
           nbdbuf3          0
           ndtset           3
          nfreqim1         -1
          nfreqim2          5
          nfreqim3         -1
          nfreqre1         -1
          nfreqre2         15
          nfreqre3         -1
            ngfft          24      24      24
             nkpt          16
           nkptgw           3
         nomegasf1        100
         nomegasf2        250
         nomegasf3        100
           npweps1          0
           npweps2         59
           npweps3         59
          npwsigx1          0
          npwsigx2         59
          npwsigx3         59
           npwwfn1          0
           npwwfn2        531
           npwwfn3        531
           nsheps1          0
           nsheps2          6
           nsheps3          6
          nshsigx1          0
          nshsigx2          6
          nshsigx3          6
            nstep         500
             nsym          48
           ntypat           1
              occ1     2.000000  2.000000  2.000000  2.000000  0.000000  0.000000
                       0.000000  0.000000  0.000000  0.000000  0.000000  0.000000
                       0.000000  0.000000  0.000000  0.000000  0.000000  0.000000
                       0.000000  0.000000  0.000000  0.000000  0.000000  0.000000
                       0.000000  0.000000  0.000000  0.000000  0.000000  0.000000
                       0.000000  0.000000  0.000000  0.000000  0.000000  0.000000
                       0.000000  0.000000  0.000000  0.000000  0.000000  0.000000
                       0.000000  0.000000  0.000000  0.000000  0.000000  0.000000
                       0.000000  0.000000  0.000000  0.000000  0.000000  0.000000
                       0.000000
              occ2     2.000000  2.000000  2.000000  2.000000  0.000000  0.000000
                       0.000000  0.000000  0.000000  0.000000  0.000000  0.000000
                       0.000000  0.000000  0.000000  0.000000  0.000000  0.000000
                       0.000000  0.000000  0.000000  0.000000  0.000000  0.000000
                       0.000000
              occ3     2.000000  2.000000  2.000000  2.000000  0.000000  0.000000
                       0.000000  0.000000  0.000000  0.000000  0.000000  0.000000
                       0.000000  0.000000  0.000000  0.000000  0.000000  0.000000
                       0.000000  0.000000  0.000000  0.000000  0.000000  0.000000
                       0.000000
        optdriver1          0
        optdriver2          3
        optdriver3          4
            rprim      0.0000000000E+00  5.0000000000E-01  5.0000000000E-01
                       5.0000000000E-01  0.0000000000E+00  5.0000000000E-01
                       5.0000000000E-01  5.0000000000E-01  0.0000000000E+00
          spgroup         227
           spmeth1          0
           spmeth2          1
           spmeth3          0
           strten1     3.2432717168E-05  3.2432717168E-05  3.2432717168E-05
                       0.0000000000E+00  0.0000000000E+00  0.0000000000E+00
           strten2     0.0000000000E+00  0.0000000000E+00  0.0000000000E+00
                       0.0000000000E+00  0.0000000000E+00  0.0000000000E+00
           strten3     0.0000000000E+00  0.0000000000E+00  0.0000000000E+00
                       0.0000000000E+00  0.0000000000E+00  0.0000000000E+00
           symchi1       0
           symchi2       1
           symchi3       0
           symrel      1  0  0   0  1  0   0  0  1      -1  0  0   0 -1  0   0  0 -1
                       0 -1  1   0 -1  0   1 -1  0       0  1 -1   0  1  0  -1  1  0
                      -1  0  0  -1  0  1  -1  1  0       1  0  0   1  0 -1   1 -1  0
                       0  1 -1   1  0 -1   0  0 -1       0 -1  1  -1  0  1   0  0  1
                      -1  0  0  -1  1  0  -1  0  1       1  0  0   1 -1  0   1  0 -1
                       0 -1  1   1 -1  0   0 -1  0       0  1 -1  -1  1  0   0  1  0
                       1  0  0   0  0  1   0  1  0      -1  0  0   0  0 -1   0 -1  0
                       0  1 -1   0  0 -1   1  0 -1       0 -1  1   0  0  1  -1  0  1
                      -1  0  1  -1  1  0  -1  0  0       1  0 -1   1 -1  0   1  0  0
                       0 -1  0   1 -1  0   0 -1  1       0  1  0  -1  1  0   0  1 -1
                       1  0 -1   0  0 -1   0  1 -1      -1  0  1   0  0  1   0 -1  1
                       0  1  0   0  0  1   1  0  0       0 -1  0   0  0 -1  -1  0  0
                       1  0 -1   0  1 -1   0  0 -1      -1  0  1   0 -1  1   0  0  1
                       0 -1  0   0 -1  1   1 -1  0       0  1  0   0  1 -1  -1  1  0
                      -1  0  1  -1  0  0  -1  1  0       1  0 -1   1  0  0   1 -1  0
                       0  1  0   1  0  0   0  0  1       0 -1  0  -1  0  0   0  0 -1
                       0  0 -1   0  1 -1   1  0 -1       0  0  1   0 -1  1  -1  0  1
                       1 -1  0   0 -1  1   0 -1  0      -1  1  0   0  1 -1   0  1  0
                       0  0  1   1  0  0   0  1  0       0  0 -1  -1  0  0   0 -1  0
                      -1  1  0  -1  0  0  -1  0  1       1 -1  0   1  0  0   1  0 -1
                       0  0  1   0  1  0   1  0  0       0  0 -1   0 -1  0  -1  0  0
                       1 -1  0   0 -1  0   0 -1  1      -1  1  0   0  1  0   0  1 -1
                       0  0 -1   1  0 -1   0  1 -1       0  0  1  -1  0  1   0 -1  1
                      -1  1  0  -1  0  1  -1  0  0       1 -1  0   1  0 -1   1  0  0
         symsigma1       0
         symsigma2       0
         symsigma3       1
            tnons      0.0000000  0.0000000  0.0000000     0.2500000  0.2500000  0.2500000
                       0.0000000  0.0000000  0.0000000     0.2500000  0.2500000  0.2500000
                       0.0000000  0.0000000  0.0000000     0.2500000  0.2500000  0.2500000
                       0.0000000  0.0000000  0.0000000     0.2500000  0.2500000  0.2500000
                       0.0000000  0.0000000  0.0000000     0.2500000  0.2500000  0.2500000
                       0.0000000  0.0000000  0.0000000     0.2500000  0.2500000  0.2500000
                       0.0000000  0.0000000  0.0000000     0.2500000  0.2500000  0.2500000
                       0.0000000  0.0000000  0.0000000     0.2500000  0.2500000  0.2500000
                       0.0000000  0.0000000  0.0000000     0.2500000  0.2500000  0.2500000
                       0.0000000  0.0000000  0.0000000     0.2500000  0.2500000  0.2500000
                       0.0000000  0.0000000  0.0000000     0.2500000  0.2500000  0.2500000
                       0.0000000  0.0000000  0.0000000     0.2500000  0.2500000  0.2500000
                       0.0000000  0.0000000  0.0000000     0.2500000  0.2500000  0.2500000
                       0.0000000  0.0000000  0.0000000     0.2500000  0.2500000  0.2500000
                       0.0000000  0.0000000  0.0000000     0.2500000  0.2500000  0.2500000
                       0.0000000  0.0000000  0.0000000     0.2500000  0.2500000  0.2500000
                       0.0000000  0.0000000  0.0000000     0.2500000  0.2500000  0.2500000
                       0.0000000  0.0000000  0.0000000     0.2500000  0.2500000  0.2500000
                       0.0000000  0.0000000  0.0000000     0.2500000  0.2500000  0.2500000
                       0.0000000  0.0000000  0.0000000     0.2500000  0.2500000  0.2500000
                       0.0000000  0.0000000  0.0000000     0.2500000  0.2500000  0.2500000
                       0.0000000  0.0000000  0.0000000     0.2500000  0.2500000  0.2500000
                       0.0000000  0.0000000  0.0000000     0.2500000  0.2500000  0.2500000
                       0.0000000  0.0000000  0.0000000     0.2500000  0.2500000  0.2500000
           tolwfr1     1.00000000E-10
           tolwfr2     0.00000000E+00
           tolwfr3     0.00000000E+00
            typat      1  1
              wtk        0.00463    0.03704    0.03704    0.01852    0.02778    0.11111
                         0.11111    0.11111    0.05556    0.02778    0.11111    0.05556
                         0.01389    0.11111    0.11111    0.05556
           xangst      0.0000000000E+00  0.0000000000E+00  0.0000000000E+00
                       1.3516508850E+00  1.3516508850E+00  1.3516508850E+00
            xcart      0.0000000000E+00  0.0000000000E+00  0.0000000000E+00
                       2.5542500000E+00  2.5542500000E+00  2.5542500000E+00
             xred      0.0000000000E+00  0.0000000000E+00  0.0000000000E+00
                       2.5000000000E-01  2.5000000000E-01  2.5000000000E-01
            znucl       14.00000

================================================================================


- Timing analysis has been suppressed with timopt=0



================================================================================

 Suggested references for the acknowledgment of ABINIT usage.

 The users of ABINIT have little formal obligations with respect to the ABINIT group
 (those specified in the GNU General Public License, http://www.gnu.org/copyleft/gpl.txt).
 However, it is common practice in the scientific literature,
 to acknowledge the efforts of people that have made the research possible.
 In this spirit, please find below suggested citations of work written by ABINIT developers,
 corresponding to implementations inside of ABINIT that you have used in the present run.
 Note also that it will be of great value to readers of publications presenting these results,
 to read papers enabling them to understand the theoretical formalism and details
 of the ABINIT implementation.
 For information on why they are suggested, see also http://www.abinit.org/about/?text=acknowledgments.

 [1] ABINIT : First-principles approach of materials and nanosystem properties.
 X. Gonze, B. Amadon, P.-M. Anglade, J.-M. Beuken, F. Bottin, P. Boulanger, F. Bruneval,
 D. Caliste, R. Caracas, M. Cote, T. Deutsch, L. Genovese, Ph. Ghosez, M. Giantomassi
 S. Goedecker, D.R. Hamann, P. Hermet, F. Jollet, G. Jomard, S. Leroux, M. Mancini, S. Mazevet,
 M.J.T. Oliveira, G. Onida, Y. Pouillon, T. Rangel, G.-M. Rignanese, D. Sangalli, R. Shaltaf,
 M. Torrent, M.J. Verstraete, G. Zerah, J.W. Zwanziger
 Computer Phys. Comm. 180, 2582-2615 (2009).
 Comment : the third generic paper describing the ABINIT project.
 Note that a version of this paper, that is not formatted for Computer Phys. Comm. 
 is available at http://www.abinit.org/about/ABINIT_CPC_v10.pdf .
 The licence allows the authors to put it on the Web.

 [2] A brief introduction to the ABINIT software package.
 X. Gonze, G.-M. Rignanese, M. Verstraete, J.-M. Beuken, Y. Pouillon, R. Caracas, F. Jollet,
 M. Torrent, G. Zerah, M. Mikami, Ph. Ghosez, M. Veithen, J.-Y. Raty, V. Olevano, F. Bruneval,
 L. Reining, R. Godby, G. Onida, D.R. Hamann, and D.C. Allan.
 Z. Kristallogr. 220, 558-562 (2005).
 Comment : the second generic paper describing the ABINIT project. Note that this paper
 should be cited especially if you are using the GW part of ABINIT, as several authors
 of this part are not in the list of authors of the first or third paper.
 The .pdf of the latter paper is available at http://www.abinit.org/about/zfk_0505-06_558-562.pdf.
 Note that it should not redistributed (Copyright by Oldenburg Wissenshaftverlag,
 the licence allows the authors to put it on the Web).


 And optionally :

 [3] First-principles computation of material properties : the ABINIT software project. 
 X. Gonze, J.-M. Beuken, R. Caracas, F. Detraux, M. Fuchs, G.-M. Rignanese, L. Sindic,
 M. Verstraete, G. Zerah, F. Jollet, M. Torrent, A. Roy, M. Mikami, Ph. Ghosez, J.-Y. Raty, D.C. Allan.
 Computational Materials Science 25, 478-492 (2002). http://dx.doi.org/10.1016/S0927-0256(02)00325-7
 Comment : the original paper describing the ABINIT project.

 [4] Fast radix 2, 3, 4 and 5 kernels for Fast Fourier Transformations
 on computers with overlapping multiply-add instructions.
 S. Goedecker, SIAM J. on Scientific Computing 18, 1605 (1997).
-
- Proc.   0 individual time (sec): cpu=         71.7  wall=         74.0

================================================================================

 Calculation completed.
.Delivered   12 WARNINGs and   6 COMMENTs to log file.
+Overall time at end (sec) : cpu=         71.7  wall=         74.0
