
.Version 7.9.3 of ABINIT 
.(MPI version, prepared for a x86_64_linux_gnu4.7 computer) 

.Copyright (C) 1998-2014 ABINIT group . 
 ABINIT comes with ABSOLUTELY NO WARRANTY.
 It is free software, and you are welcome to redistribute it
 under certain conditions (GNU General Public License,
 see ~abinit/COPYING or http://www.gnu.org/copyleft/gpl.txt).

 ABINIT is a project of the Universite Catholique de Louvain,
 Corning Inc. and other collaborators, see ~abinit/doc/developers/contributors.txt .
 Please read ~abinit/doc/users/acknowledgments.html for suggested
 acknowledgments of the ABINIT effort.
 For more information, see http://www.abinit.org .

.Starting date : Sat 30 Aug 2014.
- ( at 22h19 )
  
- input  file    -> t22.in
- output file    -> t22.out
- root for input  files -> t22i
- root for output files -> t22o


 Symmetries : space group P1 (#  1); Bravais aP (primitive triclinic)
================================================================================
 Values of the parameters that define the memory need of the present run
   intxc =         1  ionmov =         0    iscf =         7 xclevel =         1
  lmnmax =         1   lnmax =         1   mband =         1  mffmem =         1
P  mgfft =        24   mkmem =         1 mpssoang=         1     mpw =       258
  mqgrid =      3001   natom =         1    nfft =     13824    nkpt =         1
  nloalg =         4  nspden =         1 nspinor =         1  nsppol =         1
    nsym =         1  n1xccc =         0  ntypat =         1  occopt =         1
================================================================================
P This job should need less than                       3.865 Mbytes of memory.
  Rough estimation (10% accuracy) of disk space for files :
_ WF disk file :      0.006 Mbytes ; DEN or POT disk file :      0.107 Mbytes.
================================================================================

--------------------------------------------------------------------------------
------------- Echo of variables that govern the present computation ------------
--------------------------------------------------------------------------------
-
- outvars: echo of selected default values                                      
-   accesswff0 =  0 , fftalg0 =112 , wfoptalg0 =  0
-
- outvars: echo of global parameters not present in the input file              
-  max_nthreads =    0
-
 -outvars: echo values of preprocessed input variables --------
            acell      1.0000000000E+01  1.0000000000E+01  1.0000000000E+01 Bohr
              amu      1.00794000E+00
           diemac      1.00000000E+00
             ecut      5.00000000E+00 Hartree
-          fftalg         112
            intxc           1
           istwfk        2
           kptopt           0
P           mkmem           1
            natom           1
            nband           1
            ngfft          24      24      24
             nkpt           1
            nline           3
            nstep          20
             nsym           1
           ntypat           1
              occ      1.000000
           prtvol          -2
          spgroup           1
           tolwfr      1.00000000E-14
            typat      1
            znucl        1.00000

================================================================================

 chkinp: Checking input parameters for consistency.

 abinit : before driver, prtvol=-2, debugging mode => will skip driver

== END DATASET(S) ==============================================================
================================================================================

 abinit : before driver, prtvol=-2, debugging mode => will skip outvars


- Timing analysis has been suppressed with timopt=0



 abinit : before driver, prtvol=-2, debugging mode => will skip acknowledgments
-
- Proc.   0 individual time (sec): cpu=          0.1  wall=          0.1

================================================================================

 Calculation completed.
.Delivered    0 WARNINGs and   4 COMMENTs to log file.
+Overall time at end (sec) : cpu=          0.1  wall=          0.1
