
.Version 7.9.3 of ABINIT 
.(MPI version, prepared for a x86_64_linux_gnu4.7 computer) 

.Copyright (C) 1998-2014 ABINIT group . 
 ABINIT comes with ABSOLUTELY NO WARRANTY.
 It is free software, and you are welcome to redistribute it
 under certain conditions (GNU General Public License,
 see ~abinit/COPYING or http://www.gnu.org/copyleft/gpl.txt).

 ABINIT is a project of the Universite Catholique de Louvain,
 Corning Inc. and other collaborators, see ~abinit/doc/developers/contributors.txt .
 Please read ~abinit/doc/users/acknowledgments.html for suggested
 acknowledgments of the ABINIT effort.
 For more information, see http://www.abinit.org .

.Starting date : Sat 30 Aug 2014.
- ( at 22h20 )
  
- input  file    -> t01.in
- output file    -> t01.out
- root for input  files -> t01i
- root for output files -> t01o


 DATASET    1 : space group Pm m m (# 47); Bravais oP (primitive ortho.)
================================================================================
 Values of the parameters that define the memory need for DATASET  1.
   intxc =         0  ionmov =         0    iscf =         3 xclevel =         1
  lmnmax =         1   lnmax =         1   mband =         1  mffmem =         1
P  mgfft =        64   mkmem =         1 mpssoang=         1     mpw =     16869
  mqgrid =      3184   natom =         1    nfft =    262144    nkpt =         1
  nloalg =         4  nspden =         1 nspinor =         1  nsppol =         1
    nsym =         8  n1xccc =         0  ntypat =         1  occopt =         1
================================================================================
P This job should need less than                      52.041 Mbytes of memory.
P Max. in main chain + fourwf.f
P            6 blocks of mpw  integer numbers, for      0.386 Mbytes.
P           39 blocks of mpw  real(dp)  numbers, for      5.019 Mbytes.
P            2 blocks of nfft integer numbers, for      2.000 Mbytes.
P           22 blocks of nfft real(dp)  numbers, for     44.000 Mbytes.
P              Additional     real(dp)  numbers, for      0.404 Mbytes.
P              With residue estimated to be             0.231 Mbytes.
P
P Comparison of the memory needs of different chains
P Main chain + fourwf.f                52.041 Mbytes.
P Main chain + nonlop.f + opernl.f     43.976 Mbytes.
P XC chain                             34.834 Mbytes.
P mkrho chain                          37.343 Mbytes.
P fourdp chain                         37.086 Mbytes.
- parallel k-point chain               32.834 Mbytes.
P newvtr chain                         36.834 Mbytes.
  Rough estimation (10% accuracy) of disk space for files :
_ WF disk file :      0.259 Mbytes ; DEN or POT disk file :      2.002 Mbytes.
================================================================================


 DATASET    2 : space group Pm m m (# 47); Bravais oP (primitive ortho.)
================================================================================
 Values of the parameters that define the memory need for DATASET  2.
   intxc =         0  ionmov =         0    iscf =         3 xclevel =         1
  lmnmax =         1   lnmax =         1   mband =         1  mffmem =         1
P  mgfft =        64   mkmem =         1 mpssoang=         1     mpw =     16869
  mqgrid =      3184   natom =         1    nfft =    262144    nkpt =         1
  nloalg =         4  nspden =         1 nspinor =         1  nsppol =         1
    nsym =         8  n1xccc =         0  ntypat =         1  occopt =         1
================================================================================
P This job should need less than                      52.041 Mbytes of memory.
P Max. in main chain + fourwf.f
P            6 blocks of mpw  integer numbers, for      0.386 Mbytes.
P           39 blocks of mpw  real(dp)  numbers, for      5.019 Mbytes.
P            2 blocks of nfft integer numbers, for      2.000 Mbytes.
P           22 blocks of nfft real(dp)  numbers, for     44.000 Mbytes.
P              Additional     real(dp)  numbers, for      0.404 Mbytes.
P              With residue estimated to be             0.231 Mbytes.
P
P Comparison of the memory needs of different chains
P Main chain + fourwf.f                52.041 Mbytes.
P Main chain + nonlop.f + opernl.f     43.976 Mbytes.
P XC chain                             34.834 Mbytes.
P mkrho chain                          37.343 Mbytes.
P fourdp chain                         37.086 Mbytes.
- parallel k-point chain               32.834 Mbytes.
P newvtr chain                         36.834 Mbytes.
  Rough estimation (10% accuracy) of disk space for files :
_ WF disk file :      0.259 Mbytes ; DEN or POT disk file :      2.002 Mbytes.
================================================================================


 DATASET    3 : space group Pm m m (# 47); Bravais oP (primitive ortho.)
================================================================================
 Values of the parameters that define the memory need for DATASET  3.
   intxc =         0  ionmov =         0    iscf =         3 xclevel =         1
  lmnmax =         1   lnmax =         1   mband =         1  mffmem =         1
P  mgfft =        64   mkmem =         1 mpssoang=         1     mpw =     16869
  mqgrid =      3184   natom =         1    nfft =    262144    nkpt =         1
  nloalg =         4  nspden =         1 nspinor =         1  nsppol =         1
    nsym =         8  n1xccc =         0  ntypat =         1  occopt =         1
================================================================================
P This job should need less than                      52.041 Mbytes of memory.
P Max. in main chain + fourwf.f
P            6 blocks of mpw  integer numbers, for      0.386 Mbytes.
P           39 blocks of mpw  real(dp)  numbers, for      5.019 Mbytes.
P            2 blocks of nfft integer numbers, for      2.000 Mbytes.
P           22 blocks of nfft real(dp)  numbers, for     44.000 Mbytes.
P              Additional     real(dp)  numbers, for      0.404 Mbytes.
P              With residue estimated to be             0.231 Mbytes.
P
P Comparison of the memory needs of different chains
P Main chain + fourwf.f                52.041 Mbytes.
P Main chain + nonlop.f + opernl.f     43.976 Mbytes.
P XC chain                             34.834 Mbytes.
P mkrho chain                          37.343 Mbytes.
P fourdp chain                         37.086 Mbytes.
- parallel k-point chain               32.834 Mbytes.
P newvtr chain                         36.834 Mbytes.
  Rough estimation (10% accuracy) of disk space for files :
_ WF disk file :      0.259 Mbytes ; DEN or POT disk file :      2.002 Mbytes.
================================================================================


 DATASET    4 : space group Pm m m (# 47); Bravais oP (primitive ortho.)
================================================================================
 Values of the parameters that define the memory need for DATASET  4.
   intxc =         0  ionmov =         0    iscf =         3 xclevel =         1
  lmnmax =         1   lnmax =         1   mband =         1  mffmem =         1
P  mgfft =        64   mkmem =         1 mpssoang=         1     mpw =     16869
  mqgrid =      3184   natom =         1    nfft =    262144    nkpt =         1
  nloalg =         4  nspden =         1 nspinor =         1  nsppol =         1
    nsym =         8  n1xccc =         0  ntypat =         1  occopt =         1
================================================================================
P This job should need less than                      52.041 Mbytes of memory.
P Max. in main chain + fourwf.f
P            6 blocks of mpw  integer numbers, for      0.386 Mbytes.
P           39 blocks of mpw  real(dp)  numbers, for      5.019 Mbytes.
P            2 blocks of nfft integer numbers, for      2.000 Mbytes.
P           22 blocks of nfft real(dp)  numbers, for     44.000 Mbytes.
P              Additional     real(dp)  numbers, for      0.404 Mbytes.
P              With residue estimated to be             0.231 Mbytes.
P
P Comparison of the memory needs of different chains
P Main chain + fourwf.f                52.041 Mbytes.
P Main chain + nonlop.f + opernl.f     43.976 Mbytes.
P XC chain                             34.834 Mbytes.
P mkrho chain                          37.343 Mbytes.
P fourdp chain                         37.086 Mbytes.
- parallel k-point chain               32.834 Mbytes.
P newvtr chain                         36.834 Mbytes.
  Rough estimation (10% accuracy) of disk space for files :
_ WF disk file :      0.259 Mbytes ; DEN or POT disk file :      2.002 Mbytes.
================================================================================


 DATASET    5 : space group Pm m m (# 47); Bravais oP (primitive ortho.)
================================================================================
 Values of the parameters that define the memory need for DATASET  5.
   intxc =         0  ionmov =         0    iscf =         3 xclevel =         1
  lmnmax =         1   lnmax =         1   mband =         1  mffmem =         1
P  mgfft =        64   mkmem =         1 mpssoang=         1     mpw =     16869
  mqgrid =      3184   natom =         1    nfft =    262144    nkpt =         1
  nloalg =         4  nspden =         1 nspinor =         1  nsppol =         1
    nsym =         8  n1xccc =         0  ntypat =         1  occopt =         1
================================================================================
P This job should need less than                      52.041 Mbytes of memory.
P Max. in main chain + fourwf.f
P            6 blocks of mpw  integer numbers, for      0.386 Mbytes.
P           39 blocks of mpw  real(dp)  numbers, for      5.019 Mbytes.
P            2 blocks of nfft integer numbers, for      2.000 Mbytes.
P           22 blocks of nfft real(dp)  numbers, for     44.000 Mbytes.
P              Additional     real(dp)  numbers, for      0.404 Mbytes.
P              With residue estimated to be             0.231 Mbytes.
P
P Comparison of the memory needs of different chains
P Main chain + fourwf.f                52.041 Mbytes.
P Main chain + nonlop.f + opernl.f     43.976 Mbytes.
P XC chain                             34.834 Mbytes.
P mkrho chain                          37.343 Mbytes.
P fourdp chain                         37.086 Mbytes.
- parallel k-point chain               32.834 Mbytes.
P newvtr chain                         36.834 Mbytes.
  Rough estimation (10% accuracy) of disk space for files :
_ WF disk file :      0.259 Mbytes ; DEN or POT disk file :      2.002 Mbytes.
================================================================================


 DATASET    6 : space group Pm m m (# 47); Bravais oP (primitive ortho.)
================================================================================
 Values of the parameters that define the memory need for DATASET  6.
   intxc =         0  ionmov =         0    iscf =         3 xclevel =         1
  lmnmax =         1   lnmax =         1   mband =         1  mffmem =         1
P  mgfft =        64   mkmem =         1 mpssoang=         1     mpw =     16869
  mqgrid =      3184   natom =         1    nfft =    262144    nkpt =         1
  nloalg =         4  nspden =         1 nspinor =         1  nsppol =         1
    nsym =         8  n1xccc =         0  ntypat =         1  occopt =         1
================================================================================
P This job should need less than                      52.041 Mbytes of memory.
P Max. in main chain + fourwf.f
P            6 blocks of mpw  integer numbers, for      0.386 Mbytes.
P           39 blocks of mpw  real(dp)  numbers, for      5.019 Mbytes.
P            2 blocks of nfft integer numbers, for      2.000 Mbytes.
P           22 blocks of nfft real(dp)  numbers, for     44.000 Mbytes.
P              Additional     real(dp)  numbers, for      0.404 Mbytes.
P              With residue estimated to be             0.231 Mbytes.
P
P Comparison of the memory needs of different chains
P Main chain + fourwf.f                52.041 Mbytes.
P Main chain + nonlop.f + opernl.f     43.976 Mbytes.
P XC chain                             34.834 Mbytes.
P mkrho chain                          37.343 Mbytes.
P fourdp chain                         37.086 Mbytes.
- parallel k-point chain               32.834 Mbytes.
P newvtr chain                         36.834 Mbytes.
  Rough estimation (10% accuracy) of disk space for files :
_ WF disk file :      0.259 Mbytes ; DEN or POT disk file :      2.002 Mbytes.
================================================================================


 DATASET    7 : space group Pm m m (# 47); Bravais oP (primitive ortho.)
================================================================================
 Values of the parameters that define the memory need for DATASET  7.
   intxc =         0  ionmov =         0    iscf =         3 xclevel =         1
  lmnmax =         1   lnmax =         1   mband =         1  mffmem =         1
P  mgfft =        64   mkmem =         1 mpssoang=         1     mpw =     16869
  mqgrid =      3184   natom =         1    nfft =    262144    nkpt =         1
  nloalg =         4  nspden =         1 nspinor =         1  nsppol =         1
    nsym =         8  n1xccc =         0  ntypat =         1  occopt =         1
================================================================================
P This job should need less than                      52.041 Mbytes of memory.
P Max. in main chain + fourwf.f
P            6 blocks of mpw  integer numbers, for      0.386 Mbytes.
P           39 blocks of mpw  real(dp)  numbers, for      5.019 Mbytes.
P            2 blocks of nfft integer numbers, for      2.000 Mbytes.
P           22 blocks of nfft real(dp)  numbers, for     44.000 Mbytes.
P              Additional     real(dp)  numbers, for      0.404 Mbytes.
P              With residue estimated to be             0.231 Mbytes.
P
P Comparison of the memory needs of different chains
P Main chain + fourwf.f                52.041 Mbytes.
P Main chain + nonlop.f + opernl.f     43.976 Mbytes.
P XC chain                             34.834 Mbytes.
P mkrho chain                          37.343 Mbytes.
P fourdp chain                         37.086 Mbytes.
- parallel k-point chain               32.834 Mbytes.
P newvtr chain                         36.834 Mbytes.
  Rough estimation (10% accuracy) of disk space for files :
_ WF disk file :      0.259 Mbytes ; DEN or POT disk file :      2.002 Mbytes.
================================================================================


 DATASET    8 : space group Pm m m (# 47); Bravais oP (primitive ortho.)
================================================================================
 Values of the parameters that define the memory need for DATASET  8.
   intxc =         0  ionmov =         0    iscf =         3 xclevel =         1
  lmnmax =         1   lnmax =         1   mband =         1  mffmem =         1
P  mgfft =        64   mkmem =         1 mpssoang=         1     mpw =     16869
  mqgrid =      3184   natom =         1    nfft =    262144    nkpt =         1
  nloalg =         4  nspden =         1 nspinor =         1  nsppol =         1
    nsym =         8  n1xccc =         0  ntypat =         1  occopt =         1
================================================================================
P This job should need less than                      52.041 Mbytes of memory.
P Max. in main chain + fourwf.f
P            6 blocks of mpw  integer numbers, for      0.386 Mbytes.
P           39 blocks of mpw  real(dp)  numbers, for      5.019 Mbytes.
P            2 blocks of nfft integer numbers, for      2.000 Mbytes.
P           22 blocks of nfft real(dp)  numbers, for     44.000 Mbytes.
P              Additional     real(dp)  numbers, for      0.404 Mbytes.
P              With residue estimated to be             0.231 Mbytes.
P
P Comparison of the memory needs of different chains
P Main chain + fourwf.f                52.041 Mbytes.
P Main chain + nonlop.f + opernl.f     43.976 Mbytes.
P XC chain                             34.834 Mbytes.
P mkrho chain                          37.343 Mbytes.
P fourdp chain                         37.086 Mbytes.
- parallel k-point chain               32.834 Mbytes.
P newvtr chain                         36.834 Mbytes.
  Rough estimation (10% accuracy) of disk space for files :
_ WF disk file :      0.259 Mbytes ; DEN or POT disk file :      2.002 Mbytes.
================================================================================


 DATASET    9 : space group Pm m m (# 47); Bravais oP (primitive ortho.)
================================================================================
 Values of the parameters that define the memory need for DATASET  9.
   intxc =         0  ionmov =         0    iscf =         3 xclevel =         1
  lmnmax =         1   lnmax =         1   mband =         1  mffmem =         1
P  mgfft =        64   mkmem =         1 mpssoang=         1     mpw =     16869
  mqgrid =      3184   natom =         1    nfft =    262144    nkpt =         1
  nloalg =         4  nspden =         1 nspinor =         1  nsppol =         1
    nsym =         8  n1xccc =         0  ntypat =         1  occopt =         1
================================================================================
P This job should need less than                      52.041 Mbytes of memory.
P Max. in main chain + fourwf.f
P            6 blocks of mpw  integer numbers, for      0.386 Mbytes.
P           39 blocks of mpw  real(dp)  numbers, for      5.019 Mbytes.
P            2 blocks of nfft integer numbers, for      2.000 Mbytes.
P           22 blocks of nfft real(dp)  numbers, for     44.000 Mbytes.
P              Additional     real(dp)  numbers, for      0.404 Mbytes.
P              With residue estimated to be             0.231 Mbytes.
P
P Comparison of the memory needs of different chains
P Main chain + fourwf.f                52.041 Mbytes.
P Main chain + nonlop.f + opernl.f     43.976 Mbytes.
P XC chain                             34.834 Mbytes.
P mkrho chain                          37.343 Mbytes.
P fourdp chain                         37.086 Mbytes.
- parallel k-point chain               32.834 Mbytes.
P newvtr chain                         36.834 Mbytes.
  Rough estimation (10% accuracy) of disk space for files :
_ WF disk file :      0.259 Mbytes ; DEN or POT disk file :      2.002 Mbytes.
================================================================================


 DATASET   10 : space group Pm m m (# 47); Bravais oP (primitive ortho.)
================================================================================
 Values of the parameters that define the memory need for DATASET 10.
   intxc =         0  ionmov =         0    iscf =         3 xclevel =         1
  lmnmax =         1   lnmax =         1   mband =         1  mffmem =         1
P  mgfft =        64   mkmem =         1 mpssoang=         1     mpw =     16869
  mqgrid =      3184   natom =         1    nfft =    262144    nkpt =         1
  nloalg =         4  nspden =         1 nspinor =         1  nsppol =         1
    nsym =         8  n1xccc =         0  ntypat =         1  occopt =         1
================================================================================
P This job should need less than                      52.041 Mbytes of memory.
P Max. in main chain + fourwf.f
P            6 blocks of mpw  integer numbers, for      0.386 Mbytes.
P           39 blocks of mpw  real(dp)  numbers, for      5.019 Mbytes.
P            2 blocks of nfft integer numbers, for      2.000 Mbytes.
P           22 blocks of nfft real(dp)  numbers, for     44.000 Mbytes.
P              Additional     real(dp)  numbers, for      0.404 Mbytes.
P              With residue estimated to be             0.231 Mbytes.
P
P Comparison of the memory needs of different chains
P Main chain + fourwf.f                52.041 Mbytes.
P Main chain + nonlop.f + opernl.f     43.976 Mbytes.
P XC chain                             34.834 Mbytes.
P mkrho chain                          37.343 Mbytes.
P fourdp chain                         37.086 Mbytes.
- parallel k-point chain               32.834 Mbytes.
P newvtr chain                         36.834 Mbytes.
  Rough estimation (10% accuracy) of disk space for files :
_ WF disk file :      0.259 Mbytes ; DEN or POT disk file :      2.002 Mbytes.
================================================================================


 DATASET   11 : space group Pm m m (# 47); Bravais oP (primitive ortho.)
================================================================================
 Values of the parameters that define the memory need for DATASET 11.
   intxc =         0  ionmov =         0    iscf =         3 xclevel =         2
  lmnmax =         1   lnmax =         1   mband =         1  mffmem =         1
P  mgfft =        64   mkmem =         1 mpssoang=         1     mpw =     16869
  mqgrid =      3184   natom =         1    nfft =    262144    nkpt =         1
  nloalg =         4  nspden =         1 nspinor =         1  nsppol =         1
    nsym =         8  n1xccc =         0  ntypat =         1  occopt =         1
================================================================================
P This job should need less than                      56.960 Mbytes of memory.
P Max. in XC chain
P            3 blocks of mpw  integer numbers, for      0.193 Mbytes.
P            2 blocks of mpw  real(dp)  numbers, for      0.257 Mbytes.
P            2 blocks of nfft integer numbers, for      2.000 Mbytes.
P           27 blocks of nfft real(dp)  numbers, for     54.000 Mbytes.
P              Additional     real(dp)  numbers, for      0.278 Mbytes.
P              With residue estimated to be             0.231 Mbytes.
P
P Comparison of the memory needs of different chains
P Main chain + fourwf.f                52.041 Mbytes.
P Main chain + nonlop.f + opernl.f     43.976 Mbytes.
P XC chain                             56.960 Mbytes.
P mkrho chain                          37.343 Mbytes.
P fourdp chain                         37.086 Mbytes.
- parallel k-point chain               32.834 Mbytes.
P newvtr chain                         36.834 Mbytes.
  Rough estimation (10% accuracy) of disk space for files :
_ WF disk file :      0.259 Mbytes ; DEN or POT disk file :      2.002 Mbytes.
================================================================================


 DATASET   12 : space group Pm m m (# 47); Bravais oP (primitive ortho.)
================================================================================
 Values of the parameters that define the memory need for DATASET 12.
   intxc =         0  ionmov =         0    iscf =         3 xclevel =         2
  lmnmax =         1   lnmax =         1   mband =         1  mffmem =         1
P  mgfft =        64   mkmem =         1 mpssoang=         1     mpw =     16869
  mqgrid =      3184   natom =         1    nfft =    262144    nkpt =         1
  nloalg =         4  nspden =         1 nspinor =         1  nsppol =         1
    nsym =         8  n1xccc =         0  ntypat =         1  occopt =         1
================================================================================
P This job should need less than                      56.960 Mbytes of memory.
P Max. in XC chain
P            3 blocks of mpw  integer numbers, for      0.193 Mbytes.
P            2 blocks of mpw  real(dp)  numbers, for      0.257 Mbytes.
P            2 blocks of nfft integer numbers, for      2.000 Mbytes.
P           27 blocks of nfft real(dp)  numbers, for     54.000 Mbytes.
P              Additional     real(dp)  numbers, for      0.278 Mbytes.
P              With residue estimated to be             0.231 Mbytes.
P
P Comparison of the memory needs of different chains
P Main chain + fourwf.f                52.041 Mbytes.
P Main chain + nonlop.f + opernl.f     43.976 Mbytes.
P XC chain                             56.960 Mbytes.
P mkrho chain                          37.343 Mbytes.
P fourdp chain                         37.086 Mbytes.
- parallel k-point chain               32.834 Mbytes.
P newvtr chain                         36.834 Mbytes.
  Rough estimation (10% accuracy) of disk space for files :
_ WF disk file :      0.259 Mbytes ; DEN or POT disk file :      2.002 Mbytes.
================================================================================


 DATASET   13 : space group Pm m m (# 47); Bravais oP (primitive ortho.)
================================================================================
 Values of the parameters that define the memory need for DATASET 13.
   intxc =         0  ionmov =         0    iscf =         3 xclevel =         2
  lmnmax =         1   lnmax =         1   mband =         1  mffmem =         1
P  mgfft =        64   mkmem =         1 mpssoang=         1     mpw =     16869
  mqgrid =      3184   natom =         1    nfft =    262144    nkpt =         1
  nloalg =         4  nspden =         1 nspinor =         1  nsppol =         1
    nsym =         8  n1xccc =         0  ntypat =         1  occopt =         1
================================================================================
P This job should need less than                      56.960 Mbytes of memory.
P Max. in XC chain
P            3 blocks of mpw  integer numbers, for      0.193 Mbytes.
P            2 blocks of mpw  real(dp)  numbers, for      0.257 Mbytes.
P            2 blocks of nfft integer numbers, for      2.000 Mbytes.
P           27 blocks of nfft real(dp)  numbers, for     54.000 Mbytes.
P              Additional     real(dp)  numbers, for      0.278 Mbytes.
P              With residue estimated to be             0.231 Mbytes.
P
P Comparison of the memory needs of different chains
P Main chain + fourwf.f                52.041 Mbytes.
P Main chain + nonlop.f + opernl.f     43.976 Mbytes.
P XC chain                             56.960 Mbytes.
P mkrho chain                          37.343 Mbytes.
P fourdp chain                         37.086 Mbytes.
- parallel k-point chain               32.834 Mbytes.
P newvtr chain                         36.834 Mbytes.
  Rough estimation (10% accuracy) of disk space for files :
_ WF disk file :      0.259 Mbytes ; DEN or POT disk file :      2.002 Mbytes.
================================================================================


 DATASET   14 : space group Pm m m (# 47); Bravais oP (primitive ortho.)
================================================================================
 Values of the parameters that define the memory need for DATASET 14.
   intxc =         0  ionmov =         0    iscf =         3 xclevel =         2
  lmnmax =         1   lnmax =         1   mband =         1  mffmem =         1
P  mgfft =        64   mkmem =         1 mpssoang=         1     mpw =     16869
  mqgrid =      3184   natom =         1    nfft =    262144    nkpt =         1
  nloalg =         4  nspden =         1 nspinor =         1  nsppol =         1
    nsym =         8  n1xccc =         0  ntypat =         1  occopt =         1
================================================================================
P This job should need less than                      56.960 Mbytes of memory.
P Max. in XC chain
P            3 blocks of mpw  integer numbers, for      0.193 Mbytes.
P            2 blocks of mpw  real(dp)  numbers, for      0.257 Mbytes.
P            2 blocks of nfft integer numbers, for      2.000 Mbytes.
P           27 blocks of nfft real(dp)  numbers, for     54.000 Mbytes.
P              Additional     real(dp)  numbers, for      0.278 Mbytes.
P              With residue estimated to be             0.231 Mbytes.
P
P Comparison of the memory needs of different chains
P Main chain + fourwf.f                52.041 Mbytes.
P Main chain + nonlop.f + opernl.f     43.976 Mbytes.
P XC chain                             56.960 Mbytes.
P mkrho chain                          37.343 Mbytes.
P fourdp chain                         37.086 Mbytes.
- parallel k-point chain               32.834 Mbytes.
P newvtr chain                         36.834 Mbytes.
  Rough estimation (10% accuracy) of disk space for files :
_ WF disk file :      0.259 Mbytes ; DEN or POT disk file :      2.002 Mbytes.
================================================================================


 DATASET   15 : space group Pm m m (# 47); Bravais oP (primitive ortho.)
================================================================================
 Values of the parameters that define the memory need for DATASET 15.
   intxc =         0  ionmov =         0    iscf =         3 xclevel =         2
  lmnmax =         1   lnmax =         1   mband =         1  mffmem =         1
P  mgfft =        64   mkmem =         1 mpssoang=         1     mpw =     16869
  mqgrid =      3184   natom =         1    nfft =    262144    nkpt =         1
  nloalg =         4  nspden =         1 nspinor =         1  nsppol =         1
    nsym =         8  n1xccc =         0  ntypat =         1  occopt =         1
================================================================================
P This job should need less than                      56.960 Mbytes of memory.
P Max. in XC chain
P            3 blocks of mpw  integer numbers, for      0.193 Mbytes.
P            2 blocks of mpw  real(dp)  numbers, for      0.257 Mbytes.
P            2 blocks of nfft integer numbers, for      2.000 Mbytes.
P           27 blocks of nfft real(dp)  numbers, for     54.000 Mbytes.
P              Additional     real(dp)  numbers, for      0.278 Mbytes.
P              With residue estimated to be             0.231 Mbytes.
P
P Comparison of the memory needs of different chains
P Main chain + fourwf.f                52.041 Mbytes.
P Main chain + nonlop.f + opernl.f     43.976 Mbytes.
P XC chain                             56.960 Mbytes.
P mkrho chain                          37.343 Mbytes.
P fourdp chain                         37.086 Mbytes.
- parallel k-point chain               32.834 Mbytes.
P newvtr chain                         36.834 Mbytes.
  Rough estimation (10% accuracy) of disk space for files :
_ WF disk file :      0.259 Mbytes ; DEN or POT disk file :      2.002 Mbytes.
================================================================================


 DATASET   16 : space group Pm m m (# 47); Bravais oP (primitive ortho.)
================================================================================
 Values of the parameters that define the memory need for DATASET 16.
   intxc =         0  ionmov =         0    iscf =         3 xclevel =         2
  lmnmax =         1   lnmax =         1   mband =         1  mffmem =         1
P  mgfft =        64   mkmem =         1 mpssoang=         1     mpw =     16869
  mqgrid =      3184   natom =         1    nfft =    262144    nkpt =         1
  nloalg =         4  nspden =         1 nspinor =         1  nsppol =         1
    nsym =         8  n1xccc =         0  ntypat =         1  occopt =         1
================================================================================
P This job should need less than                      56.960 Mbytes of memory.
P Max. in XC chain
P            3 blocks of mpw  integer numbers, for      0.193 Mbytes.
P            2 blocks of mpw  real(dp)  numbers, for      0.257 Mbytes.
P            2 blocks of nfft integer numbers, for      2.000 Mbytes.
P           27 blocks of nfft real(dp)  numbers, for     54.000 Mbytes.
P              Additional     real(dp)  numbers, for      0.278 Mbytes.
P              With residue estimated to be             0.231 Mbytes.
P
P Comparison of the memory needs of different chains
P Main chain + fourwf.f                52.041 Mbytes.
P Main chain + nonlop.f + opernl.f     43.976 Mbytes.
P XC chain                             56.960 Mbytes.
P mkrho chain                          37.343 Mbytes.
P fourdp chain                         37.086 Mbytes.
- parallel k-point chain               32.834 Mbytes.
P newvtr chain                         36.834 Mbytes.
  Rough estimation (10% accuracy) of disk space for files :
_ WF disk file :      0.259 Mbytes ; DEN or POT disk file :      2.002 Mbytes.
================================================================================


 DATASET   17 : space group Pm m m (# 47); Bravais oP (primitive ortho.)
================================================================================
 Values of the parameters that define the memory need for DATASET 17.
   intxc =         0  ionmov =         0    iscf =         3 xclevel =         2
  lmnmax =         1   lnmax =         1   mband =         1  mffmem =         1
P  mgfft =        64   mkmem =         1 mpssoang=         1     mpw =     16869
  mqgrid =      3184   natom =         1    nfft =    262144    nkpt =         1
  nloalg =         4  nspden =         1 nspinor =         1  nsppol =         1
    nsym =         8  n1xccc =         0  ntypat =         1  occopt =         1
================================================================================
P This job should need less than                      56.960 Mbytes of memory.
P Max. in XC chain
P            3 blocks of mpw  integer numbers, for      0.193 Mbytes.
P            2 blocks of mpw  real(dp)  numbers, for      0.257 Mbytes.
P            2 blocks of nfft integer numbers, for      2.000 Mbytes.
P           27 blocks of nfft real(dp)  numbers, for     54.000 Mbytes.
P              Additional     real(dp)  numbers, for      0.278 Mbytes.
P              With residue estimated to be             0.231 Mbytes.
P
P Comparison of the memory needs of different chains
P Main chain + fourwf.f                52.041 Mbytes.
P Main chain + nonlop.f + opernl.f     43.976 Mbytes.
P XC chain                             56.960 Mbytes.
P mkrho chain                          37.343 Mbytes.
P fourdp chain                         37.086 Mbytes.
- parallel k-point chain               32.834 Mbytes.
P newvtr chain                         36.834 Mbytes.
  Rough estimation (10% accuracy) of disk space for files :
_ WF disk file :      0.259 Mbytes ; DEN or POT disk file :      2.002 Mbytes.
================================================================================


 DATASET   18 : space group Pm m m (# 47); Bravais oP (primitive ortho.)
================================================================================
 Values of the parameters that define the memory need for DATASET 18.
   intxc =         0  ionmov =         0    iscf =         3 xclevel =         2
  lmnmax =         1   lnmax =         1   mband =         1  mffmem =         1
P  mgfft =        64   mkmem =         1 mpssoang=         1     mpw =     16869
  mqgrid =      3184   natom =         1    nfft =    262144    nkpt =         1
  nloalg =         4  nspden =         1 nspinor =         1  nsppol =         1
    nsym =         8  n1xccc =         0  ntypat =         1  occopt =         1
================================================================================
P This job should need less than                      56.960 Mbytes of memory.
P Max. in XC chain
P            3 blocks of mpw  integer numbers, for      0.193 Mbytes.
P            2 blocks of mpw  real(dp)  numbers, for      0.257 Mbytes.
P            2 blocks of nfft integer numbers, for      2.000 Mbytes.
P           27 blocks of nfft real(dp)  numbers, for     54.000 Mbytes.
P              Additional     real(dp)  numbers, for      0.278 Mbytes.
P              With residue estimated to be             0.231 Mbytes.
P
P Comparison of the memory needs of different chains
P Main chain + fourwf.f                52.041 Mbytes.
P Main chain + nonlop.f + opernl.f     43.976 Mbytes.
P XC chain                             56.960 Mbytes.
P mkrho chain                          37.343 Mbytes.
P fourdp chain                         37.086 Mbytes.
- parallel k-point chain               32.834 Mbytes.
P newvtr chain                         36.834 Mbytes.
  Rough estimation (10% accuracy) of disk space for files :
_ WF disk file :      0.259 Mbytes ; DEN or POT disk file :      2.002 Mbytes.
================================================================================


 DATASET   19 : space group Pm m m (# 47); Bravais oP (primitive ortho.)
================================================================================
 Values of the parameters that define the memory need for DATASET 19.
   intxc =         0  ionmov =         0    iscf =         3 xclevel =         2
  lmnmax =         1   lnmax =         1   mband =         1  mffmem =         1
P  mgfft =        64   mkmem =         1 mpssoang=         1     mpw =     16869
  mqgrid =      3184   natom =         1    nfft =    262144    nkpt =         1
  nloalg =         4  nspden =         1 nspinor =         1  nsppol =         1
    nsym =         8  n1xccc =         0  ntypat =         1  occopt =         1
================================================================================
P This job should need less than                      56.960 Mbytes of memory.
P Max. in XC chain
P            3 blocks of mpw  integer numbers, for      0.193 Mbytes.
P            2 blocks of mpw  real(dp)  numbers, for      0.257 Mbytes.
P            2 blocks of nfft integer numbers, for      2.000 Mbytes.
P           27 blocks of nfft real(dp)  numbers, for     54.000 Mbytes.
P              Additional     real(dp)  numbers, for      0.278 Mbytes.
P              With residue estimated to be             0.231 Mbytes.
P
P Comparison of the memory needs of different chains
P Main chain + fourwf.f                52.041 Mbytes.
P Main chain + nonlop.f + opernl.f     43.976 Mbytes.
P XC chain                             56.960 Mbytes.
P mkrho chain                          37.343 Mbytes.
P fourdp chain                         37.086 Mbytes.
- parallel k-point chain               32.834 Mbytes.
P newvtr chain                         36.834 Mbytes.
  Rough estimation (10% accuracy) of disk space for files :
_ WF disk file :      0.259 Mbytes ; DEN or POT disk file :      2.002 Mbytes.
================================================================================


 DATASET   20 : space group Pm m m (# 47); Bravais oP (primitive ortho.)
================================================================================
 Values of the parameters that define the memory need for DATASET 20.
   intxc =         0  ionmov =         0    iscf =         3 xclevel =         2
  lmnmax =         1   lnmax =         1   mband =         1  mffmem =         1
P  mgfft =        64   mkmem =         1 mpssoang=         1     mpw =     16869
  mqgrid =      3184   natom =         1    nfft =    262144    nkpt =         1
  nloalg =         4  nspden =         1 nspinor =         1  nsppol =         1
    nsym =         8  n1xccc =         0  ntypat =         1  occopt =         1
================================================================================
P This job should need less than                      56.960 Mbytes of memory.
P Max. in XC chain
P            3 blocks of mpw  integer numbers, for      0.193 Mbytes.
P            2 blocks of mpw  real(dp)  numbers, for      0.257 Mbytes.
P            2 blocks of nfft integer numbers, for      2.000 Mbytes.
P           27 blocks of nfft real(dp)  numbers, for     54.000 Mbytes.
P              Additional     real(dp)  numbers, for      0.278 Mbytes.
P              With residue estimated to be             0.231 Mbytes.
P
P Comparison of the memory needs of different chains
P Main chain + fourwf.f                52.041 Mbytes.
P Main chain + nonlop.f + opernl.f     43.976 Mbytes.
P XC chain                             56.960 Mbytes.
P mkrho chain                          37.343 Mbytes.
P fourdp chain                         37.086 Mbytes.
- parallel k-point chain               32.834 Mbytes.
P newvtr chain                         36.834 Mbytes.
  Rough estimation (10% accuracy) of disk space for files :
_ WF disk file :      0.259 Mbytes ; DEN or POT disk file :      2.002 Mbytes.
================================================================================


 DATASET   21 : space group Pm m m (# 47); Bravais oP (primitive ortho.)
================================================================================
 Values of the parameters that define the memory need for DATASET 21.
   intxc =         0  ionmov =         0    iscf =         3 xclevel =         2
  lmnmax =         1   lnmax =         1   mband =         1  mffmem =         1
P  mgfft =        64   mkmem =         1 mpssoang=         1     mpw =     16869
  mqgrid =      3184   natom =         1    nfft =    262144    nkpt =         1
  nloalg =         4  nspden =         1 nspinor =         1  nsppol =         1
    nsym =         8  n1xccc =         0  ntypat =         1  occopt =         1
================================================================================
P This job should need less than                      56.960 Mbytes of memory.
P Max. in XC chain
P            3 blocks of mpw  integer numbers, for      0.193 Mbytes.
P            2 blocks of mpw  real(dp)  numbers, for      0.257 Mbytes.
P            2 blocks of nfft integer numbers, for      2.000 Mbytes.
P           27 blocks of nfft real(dp)  numbers, for     54.000 Mbytes.
P              Additional     real(dp)  numbers, for      0.278 Mbytes.
P              With residue estimated to be             0.231 Mbytes.
P
P Comparison of the memory needs of different chains
P Main chain + fourwf.f                52.041 Mbytes.
P Main chain + nonlop.f + opernl.f     43.976 Mbytes.
P XC chain                             56.960 Mbytes.
P mkrho chain                          37.343 Mbytes.
P fourdp chain                         37.086 Mbytes.
- parallel k-point chain               32.834 Mbytes.
P newvtr chain                         36.834 Mbytes.
  Rough estimation (10% accuracy) of disk space for files :
_ WF disk file :      0.259 Mbytes ; DEN or POT disk file :      2.002 Mbytes.
================================================================================


 DATASET   22 : space group Pm m m (# 47); Bravais oP (primitive ortho.)
================================================================================
 Values of the parameters that define the memory need for DATASET 22.
   intxc =         0  ionmov =         0    iscf =         3 xclevel =         2
  lmnmax =         1   lnmax =         1   mband =         1  mffmem =         1
P  mgfft =        64   mkmem =         1 mpssoang=         1     mpw =     16869
  mqgrid =      3184   natom =         1    nfft =    262144    nkpt =         1
  nloalg =         4  nspden =         1 nspinor =         1  nsppol =         1
    nsym =         8  n1xccc =         0  ntypat =         1  occopt =         1
================================================================================
P This job should need less than                      56.960 Mbytes of memory.
P Max. in XC chain
P            3 blocks of mpw  integer numbers, for      0.193 Mbytes.
P            2 blocks of mpw  real(dp)  numbers, for      0.257 Mbytes.
P            2 blocks of nfft integer numbers, for      2.000 Mbytes.
P           27 blocks of nfft real(dp)  numbers, for     54.000 Mbytes.
P              Additional     real(dp)  numbers, for      0.278 Mbytes.
P              With residue estimated to be             0.231 Mbytes.
P
P Comparison of the memory needs of different chains
P Main chain + fourwf.f                52.041 Mbytes.
P Main chain + nonlop.f + opernl.f     43.976 Mbytes.
P XC chain                             56.960 Mbytes.
P mkrho chain                          37.343 Mbytes.
P fourdp chain                         37.086 Mbytes.
- parallel k-point chain               32.834 Mbytes.
P newvtr chain                         36.834 Mbytes.
  Rough estimation (10% accuracy) of disk space for files :
_ WF disk file :      0.259 Mbytes ; DEN or POT disk file :      2.002 Mbytes.
================================================================================


 DATASET   23 : space group Pm m m (# 47); Bravais oP (primitive ortho.)
================================================================================
 Values of the parameters that define the memory need for DATASET 23.
   intxc =         0  ionmov =         0    iscf =         3 xclevel =         2
  lmnmax =         1   lnmax =         1   mband =         1  mffmem =         1
P  mgfft =        64   mkmem =         1 mpssoang=         1     mpw =     16869
  mqgrid =      3184   natom =         1    nfft =    262144    nkpt =         1
  nloalg =         4  nspden =         1 nspinor =         1  nsppol =         1
    nsym =         8  n1xccc =         0  ntypat =         1  occopt =         1
================================================================================
P This job should need less than                      56.960 Mbytes of memory.
P Max. in XC chain
P            3 blocks of mpw  integer numbers, for      0.193 Mbytes.
P            2 blocks of mpw  real(dp)  numbers, for      0.257 Mbytes.
P            2 blocks of nfft integer numbers, for      2.000 Mbytes.
P           27 blocks of nfft real(dp)  numbers, for     54.000 Mbytes.
P              Additional     real(dp)  numbers, for      0.278 Mbytes.
P              With residue estimated to be             0.231 Mbytes.
P
P Comparison of the memory needs of different chains
P Main chain + fourwf.f                52.041 Mbytes.
P Main chain + nonlop.f + opernl.f     43.976 Mbytes.
P XC chain                             56.960 Mbytes.
P mkrho chain                          37.343 Mbytes.
P fourdp chain                         37.086 Mbytes.
- parallel k-point chain               32.834 Mbytes.
P newvtr chain                         36.834 Mbytes.
  Rough estimation (10% accuracy) of disk space for files :
_ WF disk file :      0.259 Mbytes ; DEN or POT disk file :      2.002 Mbytes.
================================================================================


 DATASET   24 : space group Pm m m (# 47); Bravais oP (primitive ortho.)
================================================================================
 Values of the parameters that define the memory need for DATASET 24.
   intxc =         0  ionmov =         0    iscf =         3 xclevel =         2
  lmnmax =         1   lnmax =         1   mband =         1  mffmem =         1
P  mgfft =        64   mkmem =         1 mpssoang=         1     mpw =     16869
  mqgrid =      3184   natom =         1    nfft =    262144    nkpt =         1
  nloalg =         4  nspden =         1 nspinor =         1  nsppol =         1
    nsym =         8  n1xccc =         0  ntypat =         1  occopt =         1
================================================================================
P This job should need less than                      56.960 Mbytes of memory.
P Max. in XC chain
P            3 blocks of mpw  integer numbers, for      0.193 Mbytes.
P            2 blocks of mpw  real(dp)  numbers, for      0.257 Mbytes.
P            2 blocks of nfft integer numbers, for      2.000 Mbytes.
P           27 blocks of nfft real(dp)  numbers, for     54.000 Mbytes.
P              Additional     real(dp)  numbers, for      0.278 Mbytes.
P              With residue estimated to be             0.231 Mbytes.
P
P Comparison of the memory needs of different chains
P Main chain + fourwf.f                52.041 Mbytes.
P Main chain + nonlop.f + opernl.f     43.976 Mbytes.
P XC chain                             56.960 Mbytes.
P mkrho chain                          37.343 Mbytes.
P fourdp chain                         37.086 Mbytes.
- parallel k-point chain               32.834 Mbytes.
P newvtr chain                         36.834 Mbytes.
  Rough estimation (10% accuracy) of disk space for files :
_ WF disk file :      0.259 Mbytes ; DEN or POT disk file :      2.002 Mbytes.
================================================================================

--------------------------------------------------------------------------------
------------- Echo of variables that govern the present computation ------------
--------------------------------------------------------------------------------
-
- outvars: echo of selected default values                                      
-   accesswff0 =  0 , fftalg0 =112 , wfoptalg0 =  0
-
- outvars: echo of global parameters not present in the input file              
-  max_nthreads =    0
-
 -outvars: echo values of preprocessed input variables --------
            acell      5.0000000000E+00  5.0000000000E+00  5.0000000000E+00 Bohr
              amu      4.00260200E+00
           diemac      1.00000000E+00
           diemix      5.00000000E-01
             ecut      2.00000000E+02 Hartree
-          fftalg         112
             iscf           3
              ixc1          1
              ixc2        -20
              ixc3          2
              ixc4      -1009
              ixc5          4
              ixc6      -1002
              ixc7          5
              ixc8      -1004
              ixc9          7
              ixc10     -1012
              ixc11        11
              ixc12   -101130
              ixc13        15
              ixc14   -117130
              ixc15        16
              ixc16      -161
              ixc17        17
              ixc18      -162
              ixc19        26
              ixc20      -163
              ixc21        27
              ixc22      -164
              ixc23        23
              ixc24   -118130
           jdtset        1    2    3    4    5    6    7    8    9   10
                        11   12   13   14   15   16   17   18   19   20
                        21   22   23   24
              kpt      2.50000000E-01  2.50000000E-01  2.50000000E-01
           kptopt           0
P           mkmem           1
            natom           1
            nband           1
           ndtset          24
            ngfft          64      64      64
             nkpt           1
            nline           2
            nstep           2
             nsym           8
           ntypat           1
              occ      2.000000
           prtvol          10
          spgroup          47
           symrel      1  0  0   0  1  0   0  0  1      -1  0  0   0  1  0   0  0  1
                       1  0  0   0 -1  0   0  0  1      -1  0  0   0 -1  0   0  0  1
                       1  0  0   0  1  0   0  0 -1      -1  0  0   0  1  0   0  0 -1
                       1  0  0   0 -1  0   0  0 -1      -1  0  0   0 -1  0   0  0 -1
           tolwfr      1.00000000E-14
            typat      1
            znucl        2.00000

================================================================================

 chkinp: Checking input parameters for consistency, jdtset=   1.

 chkinp: Checking input parameters for consistency, jdtset=   2.

 chkinp: Checking input parameters for consistency, jdtset=   3.

 chkinp: Checking input parameters for consistency, jdtset=   4.

 chkinp: Checking input parameters for consistency, jdtset=   5.

 chkinp: Checking input parameters for consistency, jdtset=   6.

 chkinp: Checking input parameters for consistency, jdtset=   7.

 chkinp: Checking input parameters for consistency, jdtset=   8.

 chkinp: Checking input parameters for consistency, jdtset=   9.

 chkinp: Checking input parameters for consistency, jdtset=  10.

 chkinp: Checking input parameters for consistency, jdtset=  11.

 chkinp: Checking input parameters for consistency, jdtset=  12.

 chkinp: Checking input parameters for consistency, jdtset=  13.

 chkinp: Checking input parameters for consistency, jdtset=  14.

 chkinp: Checking input parameters for consistency, jdtset=  15.

 chkinp: Checking input parameters for consistency, jdtset=  16.

 chkinp: Checking input parameters for consistency, jdtset=  17.

 chkinp: Checking input parameters for consistency, jdtset=  18.

 chkinp: Checking input parameters for consistency, jdtset=  19.

 chkinp: Checking input parameters for consistency, jdtset=  20.

 chkinp: Checking input parameters for consistency, jdtset=  21.

 chkinp: Checking input parameters for consistency, jdtset=  22.

 chkinp: Checking input parameters for consistency, jdtset=  23.

 chkinp: Checking input parameters for consistency, jdtset=  24.

================================================================================
== DATASET  1 ==================================================================
-   nproc =    1

 Exchange-correlation functional for the present dataset will be:
  LDA: new Teter (4/93) with spin-polarized option - ixc=1
 Citation for XC functional:
  S. Goedecker, M. Teter, J. Huetter, PRB 54, 1703 (1996)

 Real(R)+Recip(G) space primitive vectors, cartesian coordinates (Bohr,Bohr^-1):
 R(1)=  5.0000000  0.0000000  0.0000000  G(1)=  0.2000000  0.0000000  0.0000000
 R(2)=  0.0000000  5.0000000  0.0000000  G(2)=  0.0000000  0.2000000  0.0000000
 R(3)=  0.0000000  0.0000000  5.0000000  G(3)=  0.0000000  0.0000000  0.2000000
 Unit cell volume ucvol=  1.2500000E+02 bohr^3
 Angles (23,13,12)=  9.00000000E+01  9.00000000E+01  9.00000000E+01 degrees

 getcut: wavevector=  0.0000  0.0000  0.0000  ngfft=  64  64  64
         ecut(hartree)=    200.000   => boxcut(ratio)=   2.01062

--- Pseudopotential description ------------------------------------------------
- pspini: atom type   1  psp file is /home/gonze/ABINIT/ABINITv7.9.3/trunk/7.9.3-private/tests/Psps_for_tests/02he.bare
- pspatm: opening atomic psp file    /home/gonze/ABINIT/ABINITv7.9.3/trunk/7.9.3-private/tests/Psps_for_tests/02he.bare
- Bare (erfc) Goedecker-Teter-Hutter  Wed May  8 14:27:44 EDT 1996
-  2.00000   2.00000    960508                znucl, zion, pspdat
    2    1    0    0      2001   0.00000      pspcod,pspxc,lmax,lloc,mmax,r2well
 rloc=   0.0010000
  cc1=   0.0000000; cc2=   0.0000000; cc3=   0.0000000; cc4=   0.0000000
  rrs=   0.0000000; h1s=   0.0000000; h2s=   0.0000000
  rrp=   0.0000000; h1p=   0.0000000
-  Local part computed in reciprocal space.

 pspatm : COMMENT -
  the projectors are not normalized,
  so that the KB energies are not consistent with 
  definition in PRB44, 8503 (1991). 
  However, this does not influence the results obtained hereafter.
 pspatm: epsatm=    0.00001257
         --- l  ekb(1:nproj) -->
 pspatm: atomic psp has been read  and splines computed

   2.51327412E-05                                ecore*ucvol(ha*bohr**3)
--------------------------------------------------------------------------------

P newkpt: treating      1 bands with npw=   16869 for ikpt=   1 by node    0

_setup2: Arith. and geom. avg. npw (full set) are   16869.000   16869.000

================================================================================

     iter   Etot(hartree)      deltaE(h)  residm     vres2

 ETOT  1  -2.8144457444885    -2.814E+00 1.118E-01 2.001E+02

 prteigrs : about to open file t01o_DS1_EIG
 Fermi (or HOMO) energy (hartree) =  -0.52641   Average Vxc (hartree)=  -0.17575
 Eigenvalues (hartree) for nkpt=   1  k points:
 kpt#   1, nband=  1, wtk=  1.00000, kpt=  0.2500  0.2500  0.2500 (reduced coord)
  -0.52641

 ETOT  2  -2.8271052390412    -1.266E-02 1.334E-05 5.798E+01

 prteigrs : about to open file t01o_DS1_EIG
 Fermi (or HOMO) energy (hartree) =  -0.54437   Average Vxc (hartree)=  -0.18743
 Eigenvalues (hartree) for nkpt=   1  k points:
 kpt#   1, nband=  1, wtk=  1.00000, kpt=  0.2500  0.2500  0.2500 (reduced coord)
  -0.54437

 Cartesian components of stress tensor (hartree/bohr^3)
  sigma(1 1)= -3.64763622E-05  sigma(3 2)=  0.00000000E+00
  sigma(2 2)= -3.67148132E-05  sigma(3 1)=  0.00000000E+00
  sigma(3 3)= -3.86530597E-05  sigma(2 1)=  0.00000000E+00


 scprqt:  WARNING -
  nstep=    2 was not enough SCF cycles to converge;
  maximum residual=  1.334E-05 exceeds tolwfr=  1.000E-14

================================================================================

 ----iterations are completed or convergence reached----

 Mean square residual over all n,k,spin=   1.3336E-05; max=  1.3336E-05
   0.2500  0.2500  0.2500    1  1.33358E-05 kpt; spin; max resid(k); each band:
  1.33E-05
 reduced coordinates (array xred) for    1 atoms
       0.000000000000      0.000000000000      0.000000000000
 rms dE/dt=  0.0000E+00; max dE/dt=  0.0000E+00; dE/dt below (all hartree)
    1       0.000000000000      0.000000000000      0.000000000000

 cartesian coordinates (angstrom) at end:
    1      0.00000000000000     0.00000000000000     0.00000000000000

 cartesian forces (hartree/bohr) at end:
    1     -0.00000000000000    -0.00000000000000    -0.00000000000000
 frms,max,avg= 0.0000000E+00 0.0000000E+00   0.000E+00  0.000E+00  0.000E+00 h/b

 cartesian forces (eV/Angstrom) at end:
    1     -0.00000000000000    -0.00000000000000    -0.00000000000000
 frms,max,avg= 0.0000000E+00 0.0000000E+00   0.000E+00  0.000E+00  0.000E+00 e/A
 length scales=  5.000000000000  5.000000000000  5.000000000000 bohr
              =  2.645886042950  2.645886042950  2.645886042950 angstroms
 prteigrs : about to open file t01o_DS1_EIG
 Fermi (or HOMO) energy (hartree) =  -0.54437   Average Vxc (hartree)=  -0.18743
 Eigenvalues (hartree) for nkpt=   1  k points:
 kpt#   1, nband=  1, wtk=  1.00000, kpt=  0.2500  0.2500  0.2500 (reduced coord)
  -0.54437
 Total charge density [el/Bohr^3]
,     Maximum=    2.6736E+00  at reduced coord.    0.0000    0.0000    0.0000
,Next maximum=    2.4507E+00  at reduced coord.    0.0000    0.0000    0.9844
,     Minimum=    7.3789E-05  at reduced coord.    0.5000    0.5000    0.5000
,Next minimum=    7.3802E-05  at reduced coord.    0.5000    0.4844    0.5000
,  Integrated=    2.0000E+00

--------------------------------------------------------------------------------
 Components of total free energy (in Hartree) :

    Kinetic energy  =  2.77444976263668E+00
    Hartree energy  =  9.57683086619870E-01
    XC energy       = -9.79035363183604E-01
    Ewald energy    = -1.13491899179226E+00
    PspCore energy  =  2.01061929829747E-07
    Loc. psp. energy= -4.44528393438379E+00
    NL   psp  energy=  0.00000000000000E+00
    >>>>>>>>> Etotal= -2.82710523904118E+00

 Other information on the energy :
    Total energy(eV)= -7.69294458721665E+01 ; Band energy (Ha)=  -1.0887310936E+00
--------------------------------------------------------------------------------

          ===> extra information on forces <===
 ewald contribution to reduced grads
    1       0.000000000000     -0.000000000000     -0.000000000000
 nonlocal contribution to red. grads
    1       0.000000000000      0.000000000000      0.000000000000
 local psp contribution to red. grads
    1       0.000000000000      0.000000000000      0.000000000000
 residual contribution to red. grads
    1       0.000000000000      0.000000000000      0.000000000000

 Cartesian components of stress tensor (hartree/bohr^3)
  sigma(1 1)= -3.64763622E-05  sigma(3 2)=  0.00000000E+00
  sigma(2 2)= -3.67148132E-05  sigma(3 1)=  0.00000000E+00
  sigma(3 3)= -3.86530597E-05  sigma(2 1)=  0.00000000E+00

-Cartesian components of stress tensor (GPa)         [Pressure=  1.0969E+00 GPa]
- sigma(1 1)= -1.07317145E+00  sigma(3 2)=  0.00000000E+00
- sigma(2 2)= -1.08018692E+00  sigma(3 1)=  0.00000000E+00
- sigma(3 3)= -1.13721209E+00  sigma(2 1)=  0.00000000E+00

================================================================================
== DATASET  2 ==================================================================
-   nproc =    1

 Real(R)+Recip(G) space primitive vectors, cartesian coordinates (Bohr,Bohr^-1):
 R(1)=  5.0000000  0.0000000  0.0000000  G(1)=  0.2000000  0.0000000  0.0000000
 R(2)=  0.0000000  5.0000000  0.0000000  G(2)=  0.0000000  0.2000000  0.0000000
 R(3)=  0.0000000  0.0000000  5.0000000  G(3)=  0.0000000  0.0000000  0.2000000
 Unit cell volume ucvol=  1.2500000E+02 bohr^3
 Angles (23,13,12)=  9.00000000E+01  9.00000000E+01  9.00000000E+01 degrees

 getcut: wavevector=  0.0000  0.0000  0.0000  ngfft=  64  64  64
         ecut(hartree)=    200.000   => boxcut(ratio)=   2.01062

--- Pseudopotential description ------------------------------------------------
- pspini: atom type   1  psp file is /home/gonze/ABINIT/ABINITv7.9.3/trunk/7.9.3-private/tests/Psps_for_tests/02he.bare
- pspatm: opening atomic psp file    /home/gonze/ABINIT/ABINITv7.9.3/trunk/7.9.3-private/tests/Psps_for_tests/02he.bare
- Bare (erfc) Goedecker-Teter-Hutter  Wed May  8 14:27:44 EDT 1996
-  2.00000   2.00000    960508                znucl, zion, pspdat
    2    1    0    0      2001   0.00000      pspcod,pspxc,lmax,lloc,mmax,r2well
 rloc=   0.0010000
  cc1=   0.0000000; cc2=   0.0000000; cc3=   0.0000000; cc4=   0.0000000
  rrs=   0.0000000; h1s=   0.0000000; h2s=   0.0000000
  rrp=   0.0000000; h1p=   0.0000000
-  Local part computed in reciprocal space.

 pspatm : COMMENT -
  the projectors are not normalized,
  so that the KB energies are not consistent with 
  definition in PRB44, 8503 (1991). 
  However, this does not influence the results obtained hereafter.
 pspatm: epsatm=    0.00001257
         --- l  ekb(1:nproj) -->
 pspatm: atomic psp has been read  and splines computed

--------------------------------------------------------------------------------

P newkpt: treating      1 bands with npw=   16869 for ikpt=   1 by node    0

_setup2: Arith. and geom. avg. npw (full set) are   16869.000   16869.000

================================================================================

     iter   Etot(hartree)      deltaE(h)  residm     vres2

 ETOT  1  -2.8144457444885    -2.814E+00 1.118E-01 2.001E+02

 prteigrs : about to open file t01o_DS2_EIG
 Fermi (or HOMO) energy (hartree) =  -0.52641   Average Vxc (hartree)=  -0.17575
 Eigenvalues (hartree) for nkpt=   1  k points:
 kpt#   1, nband=  1, wtk=  1.00000, kpt=  0.2500  0.2500  0.2500 (reduced coord)
  -0.52641

 ETOT  2  -2.8271052390412    -1.266E-02 1.334E-05 5.798E+01

 prteigrs : about to open file t01o_DS2_EIG
 Fermi (or HOMO) energy (hartree) =  -0.54437   Average Vxc (hartree)=  -0.18743
 Eigenvalues (hartree) for nkpt=   1  k points:
 kpt#   1, nband=  1, wtk=  1.00000, kpt=  0.2500  0.2500  0.2500 (reduced coord)
  -0.54437

 Cartesian components of stress tensor (hartree/bohr^3)
  sigma(1 1)= -3.64763622E-05  sigma(3 2)=  0.00000000E+00
  sigma(2 2)= -3.67148132E-05  sigma(3 1)=  0.00000000E+00
  sigma(3 3)= -3.86530597E-05  sigma(2 1)=  0.00000000E+00


 scprqt:  WARNING -
  nstep=    2 was not enough SCF cycles to converge;
  maximum residual=  1.334E-05 exceeds tolwfr=  1.000E-14

================================================================================

 ----iterations are completed or convergence reached----

 Mean square residual over all n,k,spin=   1.3336E-05; max=  1.3336E-05
   0.2500  0.2500  0.2500    1  1.33358E-05 kpt; spin; max resid(k); each band:
  1.33E-05
 reduced coordinates (array xred) for    1 atoms
       0.000000000000      0.000000000000      0.000000000000
 rms dE/dt=  0.0000E+00; max dE/dt=  0.0000E+00; dE/dt below (all hartree)
    1       0.000000000000      0.000000000000      0.000000000000

 cartesian coordinates (angstrom) at end:
    1      0.00000000000000     0.00000000000000     0.00000000000000

 cartesian forces (hartree/bohr) at end:
    1     -0.00000000000000    -0.00000000000000    -0.00000000000000
 frms,max,avg= 0.0000000E+00 0.0000000E+00   0.000E+00  0.000E+00  0.000E+00 h/b

 cartesian forces (eV/Angstrom) at end:
    1     -0.00000000000000    -0.00000000000000    -0.00000000000000
 frms,max,avg= 0.0000000E+00 0.0000000E+00   0.000E+00  0.000E+00  0.000E+00 e/A
 length scales=  5.000000000000  5.000000000000  5.000000000000 bohr
              =  2.645886042950  2.645886042950  2.645886042950 angstroms
 prteigrs : about to open file t01o_DS2_EIG
 Fermi (or HOMO) energy (hartree) =  -0.54437   Average Vxc (hartree)=  -0.18743
 Eigenvalues (hartree) for nkpt=   1  k points:
 kpt#   1, nband=  1, wtk=  1.00000, kpt=  0.2500  0.2500  0.2500 (reduced coord)
  -0.54437
 Total charge density [el/Bohr^3]
,     Maximum=    2.6736E+00  at reduced coord.    0.0000    0.0000    0.0000
,Next maximum=    2.4507E+00  at reduced coord.    0.0000    0.0000    0.9844
,     Minimum=    7.3789E-05  at reduced coord.    0.5000    0.5000    0.5000
,Next minimum=    7.3802E-05  at reduced coord.    0.5000    0.4844    0.5000
,  Integrated=    2.0000E+00

--------------------------------------------------------------------------------
 Components of total free energy (in Hartree) :

    Kinetic energy  =  2.77444976263668E+00
    Hartree energy  =  9.57683086619870E-01
    XC energy       = -9.79035363183604E-01
    Ewald energy    = -1.13491899179226E+00
    PspCore energy  =  2.01061929829747E-07
    Loc. psp. energy= -4.44528393438379E+00
    NL   psp  energy=  0.00000000000000E+00
    >>>>>>>>> Etotal= -2.82710523904118E+00

 Other information on the energy :
    Total energy(eV)= -7.69294458721666E+01 ; Band energy (Ha)=  -1.0887310936E+00
--------------------------------------------------------------------------------

          ===> extra information on forces <===
 ewald contribution to reduced grads
    1       0.000000000000     -0.000000000000     -0.000000000000
 nonlocal contribution to red. grads
    1       0.000000000000      0.000000000000      0.000000000000
 local psp contribution to red. grads
    1       0.000000000000      0.000000000000      0.000000000000
 residual contribution to red. grads
    1       0.000000000000      0.000000000000      0.000000000000

 Cartesian components of stress tensor (hartree/bohr^3)
  sigma(1 1)= -3.64763622E-05  sigma(3 2)=  0.00000000E+00
  sigma(2 2)= -3.67148132E-05  sigma(3 1)=  0.00000000E+00
  sigma(3 3)= -3.86530597E-05  sigma(2 1)=  0.00000000E+00

-Cartesian components of stress tensor (GPa)         [Pressure=  1.0969E+00 GPa]
- sigma(1 1)= -1.07317145E+00  sigma(3 2)=  0.00000000E+00
- sigma(2 2)= -1.08018692E+00  sigma(3 1)=  0.00000000E+00
- sigma(3 3)= -1.13721209E+00  sigma(2 1)=  0.00000000E+00

================================================================================
== DATASET  3 ==================================================================
-   nproc =    1

 Exchange-correlation functional for the present dataset will be:
  LDA: Perdew-Zunger-Ceperley-Alder - ixc=2
 Citation for XC functional:
  J.P.Perdew and A.Zunger, PRB 23, 5048 (1981)

 Real(R)+Recip(G) space primitive vectors, cartesian coordinates (Bohr,Bohr^-1):
 R(1)=  5.0000000  0.0000000  0.0000000  G(1)=  0.2000000  0.0000000  0.0000000
 R(2)=  0.0000000  5.0000000  0.0000000  G(2)=  0.0000000  0.2000000  0.0000000
 R(3)=  0.0000000  0.0000000  5.0000000  G(3)=  0.0000000  0.0000000  0.2000000
 Unit cell volume ucvol=  1.2500000E+02 bohr^3
 Angles (23,13,12)=  9.00000000E+01  9.00000000E+01  9.00000000E+01 degrees

 getcut: wavevector=  0.0000  0.0000  0.0000  ngfft=  64  64  64
         ecut(hartree)=    200.000   => boxcut(ratio)=   2.01062

--- Pseudopotential description ------------------------------------------------
- pspini: atom type   1  psp file is /home/gonze/ABINIT/ABINITv7.9.3/trunk/7.9.3-private/tests/Psps_for_tests/02he.bare
- pspatm: opening atomic psp file    /home/gonze/ABINIT/ABINITv7.9.3/trunk/7.9.3-private/tests/Psps_for_tests/02he.bare
- Bare (erfc) Goedecker-Teter-Hutter  Wed May  8 14:27:44 EDT 1996
-  2.00000   2.00000    960508                znucl, zion, pspdat
    2    1    0    0      2001   0.00000      pspcod,pspxc,lmax,lloc,mmax,r2well
 rloc=   0.0010000
  cc1=   0.0000000; cc2=   0.0000000; cc3=   0.0000000; cc4=   0.0000000
  rrs=   0.0000000; h1s=   0.0000000; h2s=   0.0000000
  rrp=   0.0000000; h1p=   0.0000000
-  Local part computed in reciprocal space.

 pspatm : COMMENT -
  the projectors are not normalized,
  so that the KB energies are not consistent with 
  definition in PRB44, 8503 (1991). 
  However, this does not influence the results obtained hereafter.
 pspatm: epsatm=    0.00001257
         --- l  ekb(1:nproj) -->
 pspatm: atomic psp has been read  and splines computed

--------------------------------------------------------------------------------

P newkpt: treating      1 bands with npw=   16869 for ikpt=   1 by node    0

_setup2: Arith. and geom. avg. npw (full set) are   16869.000   16869.000

================================================================================

     iter   Etot(hartree)      deltaE(h)  residm     vres2

 ETOT  1  -2.8147615710404    -2.815E+00 1.118E-01 1.997E+02

 prteigrs : about to open file t01o_DS3_EIG
 Fermi (or HOMO) energy (hartree) =  -0.52627   Average Vxc (hartree)=  -0.17596
 Eigenvalues (hartree) for nkpt=   1  k points:
 kpt#   1, nband=  1, wtk=  1.00000, kpt=  0.2500  0.2500  0.2500 (reduced coord)
  -0.52627

 ETOT  2  -2.8274294171014    -1.267E-02 1.336E-05 5.781E+01

 prteigrs : about to open file t01o_DS3_EIG
 Fermi (or HOMO) energy (hartree) =  -0.54444   Average Vxc (hartree)=  -0.18766
 Eigenvalues (hartree) for nkpt=   1  k points:
 kpt#   1, nband=  1, wtk=  1.00000, kpt=  0.2500  0.2500  0.2500 (reduced coord)
  -0.54444

 Cartesian components of stress tensor (hartree/bohr^3)
  sigma(1 1)= -3.62528779E-05  sigma(3 2)=  0.00000000E+00
  sigma(2 2)= -3.64945825E-05  sigma(3 1)=  0.00000000E+00
  sigma(3 3)= -3.84439979E-05  sigma(2 1)=  0.00000000E+00


 scprqt:  WARNING -
  nstep=    2 was not enough SCF cycles to converge;
  maximum residual=  1.336E-05 exceeds tolwfr=  1.000E-14

================================================================================

 ----iterations are completed or convergence reached----

 Mean square residual over all n,k,spin=   1.3357E-05; max=  1.3357E-05
   0.2500  0.2500  0.2500    1  1.33572E-05 kpt; spin; max resid(k); each band:
  1.34E-05
 reduced coordinates (array xred) for    1 atoms
       0.000000000000      0.000000000000      0.000000000000
 rms dE/dt=  0.0000E+00; max dE/dt=  0.0000E+00; dE/dt below (all hartree)
    1       0.000000000000      0.000000000000      0.000000000000

 cartesian coordinates (angstrom) at end:
    1      0.00000000000000     0.00000000000000     0.00000000000000

 cartesian forces (hartree/bohr) at end:
    1     -0.00000000000000    -0.00000000000000    -0.00000000000000
 frms,max,avg= 0.0000000E+00 0.0000000E+00   0.000E+00  0.000E+00  0.000E+00 h/b

 cartesian forces (eV/Angstrom) at end:
    1     -0.00000000000000    -0.00000000000000    -0.00000000000000
 frms,max,avg= 0.0000000E+00 0.0000000E+00   0.000E+00  0.000E+00  0.000E+00 e/A
 length scales=  5.000000000000  5.000000000000  5.000000000000 bohr
              =  2.645886042950  2.645886042950  2.645886042950 angstroms
 prteigrs : about to open file t01o_DS3_EIG
 Fermi (or HOMO) energy (hartree) =  -0.54444   Average Vxc (hartree)=  -0.18766
 Eigenvalues (hartree) for nkpt=   1  k points:
 kpt#   1, nband=  1, wtk=  1.00000, kpt=  0.2500  0.2500  0.2500 (reduced coord)
  -0.54444
 Total charge density [el/Bohr^3]
,     Maximum=    2.6720E+00  at reduced coord.    0.0000    0.0000    0.0000
,Next maximum=    2.4492E+00  at reduced coord.    0.0000    0.0000    0.9844
,     Minimum=    7.3857E-05  at reduced coord.    0.5000    0.5000    0.5000
,Next minimum=    7.3870E-05  at reduced coord.    0.5000    0.4844    0.5000
,  Integrated=    2.0000E+00

--------------------------------------------------------------------------------
 Components of total free energy (in Hartree) :

    Kinetic energy  =  2.77292819155946E+00
    Hartree energy  =  9.57126124339973E-01
    XC energy       = -9.79076428476047E-01
    Ewald energy    = -1.13491899179226E+00
    PspCore energy  =  2.01061929829747E-07
    Loc. psp. energy= -4.44348851379443E+00
    NL   psp  energy=  0.00000000000000E+00
    >>>>>>>>> Etotal= -2.82742941710138E+00

 Other information on the energy :
    Total energy(eV)= -7.69382672058017E+01 ; Band energy (Ha)=  -1.0888719106E+00
--------------------------------------------------------------------------------

          ===> extra information on forces <===
 ewald contribution to reduced grads
    1       0.000000000000     -0.000000000000     -0.000000000000
 nonlocal contribution to red. grads
    1       0.000000000000      0.000000000000      0.000000000000
 local psp contribution to red. grads
    1       0.000000000000      0.000000000000      0.000000000000
 residual contribution to red. grads
    1       0.000000000000      0.000000000000      0.000000000000

 Cartesian components of stress tensor (hartree/bohr^3)
  sigma(1 1)= -3.62528779E-05  sigma(3 2)=  0.00000000E+00
  sigma(2 2)= -3.64945825E-05  sigma(3 1)=  0.00000000E+00
  sigma(3 3)= -3.84439979E-05  sigma(2 1)=  0.00000000E+00

-Cartesian components of stress tensor (GPa)         [Pressure=  1.0905E+00 GPa]
- sigma(1 1)= -1.06659631E+00  sigma(3 2)=  0.00000000E+00
- sigma(2 2)= -1.07370751E+00  sigma(3 1)=  0.00000000E+00
- sigma(3 3)= -1.13106128E+00  sigma(2 1)=  0.00000000E+00

================================================================================
== DATASET  4 ==================================================================
-   nproc =    1

 Real(R)+Recip(G) space primitive vectors, cartesian coordinates (Bohr,Bohr^-1):
 R(1)=  5.0000000  0.0000000  0.0000000  G(1)=  0.2000000  0.0000000  0.0000000
 R(2)=  0.0000000  5.0000000  0.0000000  G(2)=  0.0000000  0.2000000  0.0000000
 R(3)=  0.0000000  0.0000000  5.0000000  G(3)=  0.0000000  0.0000000  0.2000000
 Unit cell volume ucvol=  1.2500000E+02 bohr^3
 Angles (23,13,12)=  9.00000000E+01  9.00000000E+01  9.00000000E+01 degrees

 getcut: wavevector=  0.0000  0.0000  0.0000  ngfft=  64  64  64
         ecut(hartree)=    200.000   => boxcut(ratio)=   2.01062

--- Pseudopotential description ------------------------------------------------
- pspini: atom type   1  psp file is /home/gonze/ABINIT/ABINITv7.9.3/trunk/7.9.3-private/tests/Psps_for_tests/02he.bare
- pspatm: opening atomic psp file    /home/gonze/ABINIT/ABINITv7.9.3/trunk/7.9.3-private/tests/Psps_for_tests/02he.bare
- Bare (erfc) Goedecker-Teter-Hutter  Wed May  8 14:27:44 EDT 1996
-  2.00000   2.00000    960508                znucl, zion, pspdat
    2    1    0    0      2001   0.00000      pspcod,pspxc,lmax,lloc,mmax,r2well
 rloc=   0.0010000
  cc1=   0.0000000; cc2=   0.0000000; cc3=   0.0000000; cc4=   0.0000000
  rrs=   0.0000000; h1s=   0.0000000; h2s=   0.0000000
  rrp=   0.0000000; h1p=   0.0000000
-  Local part computed in reciprocal space.

 pspatm : COMMENT -
  the projectors are not normalized,
  so that the KB energies are not consistent with 
  definition in PRB44, 8503 (1991). 
  However, this does not influence the results obtained hereafter.
 pspatm: epsatm=    0.00001257
         --- l  ekb(1:nproj) -->
 pspatm: atomic psp has been read  and splines computed

--------------------------------------------------------------------------------

P newkpt: treating      1 bands with npw=   16869 for ikpt=   1 by node    0

_setup2: Arith. and geom. avg. npw (full set) are   16869.000   16869.000

================================================================================

     iter   Etot(hartree)      deltaE(h)  residm     vres2

 ETOT  1  -2.8147615710404    -2.815E+00 1.118E-01 1.997E+02

 prteigrs : about to open file t01o_DS4_EIG
 Fermi (or HOMO) energy (hartree) =  -0.52627   Average Vxc (hartree)=  -0.17596
 Eigenvalues (hartree) for nkpt=   1  k points:
 kpt#   1, nband=  1, wtk=  1.00000, kpt=  0.2500  0.2500  0.2500 (reduced coord)
  -0.52627

 ETOT  2  -2.8274294171014    -1.267E-02 1.336E-05 5.781E+01

 prteigrs : about to open file t01o_DS4_EIG
 Fermi (or HOMO) energy (hartree) =  -0.54444   Average Vxc (hartree)=  -0.18766
 Eigenvalues (hartree) for nkpt=   1  k points:
 kpt#   1, nband=  1, wtk=  1.00000, kpt=  0.2500  0.2500  0.2500 (reduced coord)
  -0.54444

 Cartesian components of stress tensor (hartree/bohr^3)
  sigma(1 1)= -3.62528779E-05  sigma(3 2)=  0.00000000E+00
  sigma(2 2)= -3.64945825E-05  sigma(3 1)=  0.00000000E+00
  sigma(3 3)= -3.84439979E-05  sigma(2 1)=  0.00000000E+00


 scprqt:  WARNING -
  nstep=    2 was not enough SCF cycles to converge;
  maximum residual=  1.336E-05 exceeds tolwfr=  1.000E-14

================================================================================

 ----iterations are completed or convergence reached----

 Mean square residual over all n,k,spin=   1.3357E-05; max=  1.3357E-05
   0.2500  0.2500  0.2500    1  1.33572E-05 kpt; spin; max resid(k); each band:
  1.34E-05
 reduced coordinates (array xred) for    1 atoms
       0.000000000000      0.000000000000      0.000000000000
 rms dE/dt=  0.0000E+00; max dE/dt=  0.0000E+00; dE/dt below (all hartree)
    1       0.000000000000      0.000000000000      0.000000000000

 cartesian coordinates (angstrom) at end:
    1      0.00000000000000     0.00000000000000     0.00000000000000

 cartesian forces (hartree/bohr) at end:
    1     -0.00000000000000    -0.00000000000000    -0.00000000000000
 frms,max,avg= 0.0000000E+00 0.0000000E+00   0.000E+00  0.000E+00  0.000E+00 h/b

 cartesian forces (eV/Angstrom) at end:
    1     -0.00000000000000    -0.00000000000000    -0.00000000000000
 frms,max,avg= 0.0000000E+00 0.0000000E+00   0.000E+00  0.000E+00  0.000E+00 e/A
 length scales=  5.000000000000  5.000000000000  5.000000000000 bohr
              =  2.645886042950  2.645886042950  2.645886042950 angstroms
 prteigrs : about to open file t01o_DS4_EIG
 Fermi (or HOMO) energy (hartree) =  -0.54444   Average Vxc (hartree)=  -0.18766
 Eigenvalues (hartree) for nkpt=   1  k points:
 kpt#   1, nband=  1, wtk=  1.00000, kpt=  0.2500  0.2500  0.2500 (reduced coord)
  -0.54444
 Total charge density [el/Bohr^3]
,     Maximum=    2.6720E+00  at reduced coord.    0.0000    0.0000    0.0000
,Next maximum=    2.4492E+00  at reduced coord.    0.0000    0.0000    0.9844
,     Minimum=    7.3857E-05  at reduced coord.    0.5000    0.5000    0.5000
,Next minimum=    7.3870E-05  at reduced coord.    0.5000    0.4844    0.5000
,  Integrated=    2.0000E+00

--------------------------------------------------------------------------------
 Components of total free energy (in Hartree) :

    Kinetic energy  =  2.77292819155945E+00
    Hartree energy  =  9.57126124339972E-01
    XC energy       = -9.79076428476047E-01
    Ewald energy    = -1.13491899179226E+00
    PspCore energy  =  2.01061929829747E-07
    Loc. psp. energy= -4.44348851379443E+00
    NL   psp  energy=  0.00000000000000E+00
    >>>>>>>>> Etotal= -2.82742941710138E+00

 Other information on the energy :
    Total energy(eV)= -7.69382672058017E+01 ; Band energy (Ha)=  -1.0888719106E+00
--------------------------------------------------------------------------------

          ===> extra information on forces <===
 ewald contribution to reduced grads
    1       0.000000000000     -0.000000000000     -0.000000000000
 nonlocal contribution to red. grads
    1       0.000000000000      0.000000000000      0.000000000000
 local psp contribution to red. grads
    1       0.000000000000      0.000000000000      0.000000000000
 residual contribution to red. grads
    1       0.000000000000      0.000000000000      0.000000000000

 Cartesian components of stress tensor (hartree/bohr^3)
  sigma(1 1)= -3.62528779E-05  sigma(3 2)=  0.00000000E+00
  sigma(2 2)= -3.64945825E-05  sigma(3 1)=  0.00000000E+00
  sigma(3 3)= -3.84439979E-05  sigma(2 1)=  0.00000000E+00

-Cartesian components of stress tensor (GPa)         [Pressure=  1.0905E+00 GPa]
- sigma(1 1)= -1.06659631E+00  sigma(3 2)=  0.00000000E+00
- sigma(2 2)= -1.07370751E+00  sigma(3 1)=  0.00000000E+00
[...]
  sigma(1 1)= -4.57099766E-06  sigma(3 2)=  0.00000000E+00
  sigma(2 2)= -4.72701633E-06  sigma(3 1)=  0.00000000E+00
  sigma(3 3)= -5.54617628E-06  sigma(2 1)=  0.00000000E+00

-Cartesian components of stress tensor (GPa)         [Pressure=  1.4558E-01 GPa]
- sigma(1 1)= -1.34483371E-01  sigma(3 2)=  0.00000000E+00
- sigma(2 2)= -1.39073599E-01  sigma(3 1)=  0.00000000E+00
- sigma(3 3)= -1.63174112E-01  sigma(2 1)=  0.00000000E+00

================================================================================
== DATASET 24 ==================================================================
-   nproc =    1

 Real(R)+Recip(G) space primitive vectors, cartesian coordinates (Bohr,Bohr^-1):
 R(1)=  5.0000000  0.0000000  0.0000000  G(1)=  0.2000000  0.0000000  0.0000000
 R(2)=  0.0000000  5.0000000  0.0000000  G(2)=  0.0000000  0.2000000  0.0000000
 R(3)=  0.0000000  0.0000000  5.0000000  G(3)=  0.0000000  0.0000000  0.2000000
 Unit cell volume ucvol=  1.2500000E+02 bohr^3
 Angles (23,13,12)=  9.00000000E+01  9.00000000E+01  9.00000000E+01 degrees

 getcut: wavevector=  0.0000  0.0000  0.0000  ngfft=  64  64  64
         ecut(hartree)=    200.000   => boxcut(ratio)=   2.01062

--- Pseudopotential description ------------------------------------------------
- pspini: atom type   1  psp file is /home/gonze/ABINIT/ABINITv7.9.3/trunk/7.9.3-private/tests/Psps_for_tests/02he.bare
- pspatm: opening atomic psp file    /home/gonze/ABINIT/ABINITv7.9.3/trunk/7.9.3-private/tests/Psps_for_tests/02he.bare
- Bare (erfc) Goedecker-Teter-Hutter  Wed May  8 14:27:44 EDT 1996
-  2.00000   2.00000    960508                znucl, zion, pspdat
    2    1    0    0      2001   0.00000      pspcod,pspxc,lmax,lloc,mmax,r2well
 rloc=   0.0010000
  cc1=   0.0000000; cc2=   0.0000000; cc3=   0.0000000; cc4=   0.0000000
  rrs=   0.0000000; h1s=   0.0000000; h2s=   0.0000000
  rrp=   0.0000000; h1p=   0.0000000
-  Local part computed in reciprocal space.

 pspatm : COMMENT -
  the projectors are not normalized,
  so that the KB energies are not consistent with 
  definition in PRB44, 8503 (1991). 
  However, this does not influence the results obtained hereafter.
 pspatm: epsatm=    0.00001257
         --- l  ekb(1:nproj) -->
 pspatm: atomic psp has been read  and splines computed

--------------------------------------------------------------------------------

P newkpt: treating      1 bands with npw=   16869 for ikpt=   1 by node    0

_setup2: Arith. and geom. avg. npw (full set) are   16869.000   16869.000

================================================================================

     iter   Etot(hartree)      deltaE(h)  residm     vres2

 ETOT  1  -2.8519871054469    -2.852E+00 1.137E-01 4.357E+02

 prteigrs : about to open file t01o_DS24_EIG
 Fermi (or HOMO) energy (hartree) =  -0.54062   Average Vxc (hartree)=  -0.17114
 Eigenvalues (hartree) for nkpt=   1  k points:
 kpt#   1, nband=  1, wtk=  1.00000, kpt=  0.2500  0.2500  0.2500 (reduced coord)
  -0.54062

 ETOT  2  -2.8634862736296    -1.150E-02 1.376E-05 2.314E+02

 prteigrs : about to open file t01o_DS24_EIG
 Fermi (or HOMO) energy (hartree) =  -0.54979   Average Vxc (hartree)=  -0.16936
 Eigenvalues (hartree) for nkpt=   1  k points:
 kpt#   1, nband=  1, wtk=  1.00000, kpt=  0.2500  0.2500  0.2500 (reduced coord)
  -0.54979

 Cartesian components of stress tensor (hartree/bohr^3)
  sigma(1 1)= -4.57108788E-06  sigma(3 2)=  0.00000000E+00
  sigma(2 2)= -4.72710735E-06  sigma(3 1)=  0.00000000E+00
  sigma(3 3)= -5.54626816E-06  sigma(2 1)=  0.00000000E+00


 scprqt:  WARNING -
  nstep=    2 was not enough SCF cycles to converge;
  maximum residual=  1.376E-05 exceeds tolwfr=  1.000E-14

================================================================================

 ----iterations are completed or convergence reached----

 Mean square residual over all n,k,spin=   1.3758E-05; max=  1.3758E-05
   0.2500  0.2500  0.2500    1  1.37580E-05 kpt; spin; max resid(k); each band:
  1.38E-05
 reduced coordinates (array xred) for    1 atoms
       0.000000000000      0.000000000000      0.000000000000
 rms dE/dt=  0.0000E+00; max dE/dt=  0.0000E+00; dE/dt below (all hartree)
    1       0.000000000000      0.000000000000      0.000000000000

 cartesian coordinates (angstrom) at end:
    1      0.00000000000000     0.00000000000000     0.00000000000000

 cartesian forces (hartree/bohr) at end:
    1     -0.00000000000000    -0.00000000000000    -0.00000000000000
 frms,max,avg= 0.0000000E+00 0.0000000E+00   0.000E+00  0.000E+00  0.000E+00 h/b

 cartesian forces (eV/Angstrom) at end:
    1     -0.00000000000000    -0.00000000000000    -0.00000000000000
 frms,max,avg= 0.0000000E+00 0.0000000E+00   0.000E+00  0.000E+00  0.000E+00 e/A
 length scales=  5.000000000000  5.000000000000  5.000000000000 bohr
              =  2.645886042950  2.645886042950  2.645886042950 angstroms
 prteigrs : about to open file t01o_DS24_EIG
 Fermi (or HOMO) energy (hartree) =  -0.54979   Average Vxc (hartree)=  -0.16936
 Eigenvalues (hartree) for nkpt=   1  k points:
 kpt#   1, nband=  1, wtk=  1.00000, kpt=  0.2500  0.2500  0.2500 (reduced coord)
  -0.54979
 Total charge density [el/Bohr^3]
,     Maximum=    2.7302E+00  at reduced coord.    0.0000    0.0000    0.0000
,Next maximum=    2.5019E+00  at reduced coord.    0.0000    0.0000    0.9844
,     Minimum=    6.8988E-05  at reduced coord.    0.5000    0.5000    0.5000
,Next minimum=    6.8995E-05  at reduced coord.    0.5000    0.4844    0.5000
,  Integrated=    2.0000E+00

--------------------------------------------------------------------------------
 Components of total free energy (in Hartree) :

    Kinetic energy  =  2.82780929086616E+00
    Hartree energy  =  9.78171275986371E-01
    XC energy       = -1.02613845169087E+00
    Ewald energy    = -1.13491899179226E+00
    PspCore energy  =  2.01061929829747E-07
    Loc. psp. energy= -4.50840959806088E+00
    NL   psp  energy=  0.00000000000000E+00
    >>>>>>>>> Etotal= -2.86348627362955E+00

 Other information on the energy :
    Total energy(eV)= -7.79194241695748E+01 ; Band energy (Ha)=  -1.0995715220E+00
--------------------------------------------------------------------------------

          ===> extra information on forces <===
 ewald contribution to reduced grads
    1       0.000000000000     -0.000000000000     -0.000000000000
 nonlocal contribution to red. grads
    1       0.000000000000      0.000000000000      0.000000000000
 local psp contribution to red. grads
    1       0.000000000000      0.000000000000      0.000000000000
 residual contribution to red. grads
    1       0.000000000000      0.000000000000      0.000000000000

 Cartesian components of stress tensor (hartree/bohr^3)
  sigma(1 1)= -4.57108788E-06  sigma(3 2)=  0.00000000E+00
  sigma(2 2)= -4.72710735E-06  sigma(3 1)=  0.00000000E+00
  sigma(3 3)= -5.54626816E-06  sigma(2 1)=  0.00000000E+00

-Cartesian components of stress tensor (GPa)         [Pressure=  1.4558E-01 GPa]
- sigma(1 1)= -1.34486026E-01  sigma(3 2)=  0.00000000E+00
- sigma(2 2)= -1.39076277E-01  sigma(3 1)=  0.00000000E+00
- sigma(3 3)= -1.63176815E-01  sigma(2 1)=  0.00000000E+00

== END DATASET(S) ==============================================================
================================================================================
  
 -outvars: echo values of variables after computation  --------
            acell      5.0000000000E+00  5.0000000000E+00  5.0000000000E+00 Bohr
              amu      4.00260200E+00
           diemac      1.00000000E+00
           diemix      5.00000000E-01
             ecut      2.00000000E+02 Hartree
           etotal1    -2.8271052390E+00
           etotal2    -2.8271052390E+00
           etotal3    -2.8274294171E+00
           etotal4    -2.8274294171E+00
           etotal5    -2.8122306770E+00
           etotal6    -2.8122306770E+00
           etotal7    -2.8330929126E+00
           etotal8    -2.8330929126E+00
           etotal9    -2.8275843008E+00
           etotal10   -2.8275843008E+00
           etotal11   -2.8850909687E+00
           etotal12   -2.8850908957E+00
           etotal13   -2.9030042193E+00
           etotal14   -2.9030041457E+00
           etotal15   -2.9093231948E+00
           etotal16   -2.9093231948E+00
           etotal17   -2.9103663926E+00
           etotal18   -2.9103663926E+00
           etotal19   -2.9129265516E+00
           etotal20   -2.9129265516E+00
           etotal21   -2.9156488184E+00
           etotal22   -2.9156488184E+00
           etotal23   -2.8634863466E+00
           etotal24   -2.8634862736E+00
            fcart1    -0.0000000000E+00 -0.0000000000E+00 -0.0000000000E+00
            fcart2    -0.0000000000E+00 -0.0000000000E+00 -0.0000000000E+00
            fcart3    -0.0000000000E+00 -0.0000000000E+00 -0.0000000000E+00
            fcart4    -0.0000000000E+00 -0.0000000000E+00 -0.0000000000E+00
            fcart5    -0.0000000000E+00 -0.0000000000E+00 -0.0000000000E+00
            fcart6    -0.0000000000E+00 -0.0000000000E+00 -0.0000000000E+00
            fcart7    -0.0000000000E+00 -0.0000000000E+00 -0.0000000000E+00
            fcart8    -0.0000000000E+00 -0.0000000000E+00 -0.0000000000E+00
            fcart9    -0.0000000000E+00 -0.0000000000E+00 -0.0000000000E+00
            fcart10   -0.0000000000E+00 -0.0000000000E+00 -0.0000000000E+00
            fcart11   -0.0000000000E+00 -0.0000000000E+00 -0.0000000000E+00
            fcart12   -0.0000000000E+00 -0.0000000000E+00 -0.0000000000E+00
            fcart13   -0.0000000000E+00 -0.0000000000E+00 -0.0000000000E+00
            fcart14   -0.0000000000E+00 -0.0000000000E+00 -0.0000000000E+00
            fcart15   -0.0000000000E+00 -0.0000000000E+00 -0.0000000000E+00
            fcart16   -0.0000000000E+00 -0.0000000000E+00 -0.0000000000E+00
            fcart17   -0.0000000000E+00 -0.0000000000E+00 -0.0000000000E+00
            fcart18   -0.0000000000E+00 -0.0000000000E+00 -0.0000000000E+00
            fcart19   -0.0000000000E+00 -0.0000000000E+00 -0.0000000000E+00
            fcart20   -0.0000000000E+00 -0.0000000000E+00 -0.0000000000E+00
            fcart21   -0.0000000000E+00 -0.0000000000E+00 -0.0000000000E+00
            fcart22   -0.0000000000E+00 -0.0000000000E+00 -0.0000000000E+00
            fcart23   -0.0000000000E+00 -0.0000000000E+00 -0.0000000000E+00
            fcart24   -0.0000000000E+00 -0.0000000000E+00 -0.0000000000E+00
-          fftalg         112
             iscf           3
              ixc1          1
              ixc2        -20
              ixc3          2
              ixc4      -1009
              ixc5          4
              ixc6      -1002
              ixc7          5
              ixc8      -1004
              ixc9          7
              ixc10     -1012
              ixc11        11
              ixc12   -101130
              ixc13        15
              ixc14   -117130
              ixc15        16
              ixc16      -161
              ixc17        17
              ixc18      -162
              ixc19        26
              ixc20      -163
              ixc21        27
              ixc22      -164
              ixc23        23
              ixc24   -118130
           jdtset        1    2    3    4    5    6    7    8    9   10
                        11   12   13   14   15   16   17   18   19   20
                        21   22   23   24
              kpt      2.50000000E-01  2.50000000E-01  2.50000000E-01
           kptopt           0
P           mkmem           1
            natom           1
            nband           1
           ndtset          24
            ngfft          64      64      64
             nkpt           1
            nline           2
            nstep           2
             nsym           8
           ntypat           1
              occ      2.000000
           prtvol          10
          spgroup          47
           strten1    -3.6476362223E-05 -3.6714813228E-05 -3.8653059708E-05
                       0.0000000000E+00  0.0000000000E+00  0.0000000000E+00
           strten2    -3.6476362223E-05 -3.6714813228E-05 -3.8653059708E-05
                       0.0000000000E+00  0.0000000000E+00  0.0000000000E+00
           strten3    -3.6252877890E-05 -3.6494582540E-05 -3.8443997937E-05
                       0.0000000000E+00  0.0000000000E+00  0.0000000000E+00
           strten4    -3.6252877890E-05 -3.6494582540E-05 -3.8443997937E-05
                       0.0000000000E+00  0.0000000000E+00  0.0000000000E+00
           strten5    -2.5969097938E-05 -2.6327674945E-05 -2.8106405454E-05
                       0.0000000000E+00  0.0000000000E+00  0.0000000000E+00
           strten6    -2.5969097938E-05 -2.6327674945E-05 -2.8106405454E-05
                       0.0000000000E+00  0.0000000000E+00  0.0000000000E+00
           strten7    -3.6963008866E-05 -3.7217041056E-05 -3.9160908957E-05
                       0.0000000000E+00  0.0000000000E+00  0.0000000000E+00
           strten8    -3.6963008866E-05 -3.7217041056E-05 -3.9160908957E-05
                       0.0000000000E+00  0.0000000000E+00  0.0000000000E+00
           strten9    -3.6833013458E-05 -3.7069971949E-05 -3.9015604484E-05
                       0.0000000000E+00  0.0000000000E+00  0.0000000000E+00
           strten10   -3.6833013458E-05 -3.7069971949E-05 -3.9015604484E-05
                       0.0000000000E+00  0.0000000000E+00  0.0000000000E+00
           strten11    1.1756073697E-05  1.1674568639E-05  1.0683117620E-05
                       0.0000000000E+00  0.0000000000E+00  0.0000000000E+00
           strten12    1.1755979489E-05  1.1674473703E-05  1.0683021888E-05
                       0.0000000000E+00  0.0000000000E+00  0.0000000000E+00
           strten13    3.0672015971E-05  3.0305750209E-05  3.0958509998E-05
                       0.0000000000E+00  0.0000000000E+00  0.0000000000E+00
           strten14    3.0671916344E-05  3.0305649952E-05  3.0958409551E-05
                       0.0000000000E+00  0.0000000000E+00  0.0000000000E+00
           strten15    8.4271934576E-06  9.1555239367E-06  6.7067627661E-06
                       0.0000000000E+00  0.0000000000E+00  0.0000000000E+00
           strten16    8.4271934576E-06  9.1555239367E-06  6.7067627662E-06
                       0.0000000000E+00  0.0000000000E+00  0.0000000000E+00
           strten17    9.5390422262E-06  9.3725752466E-06  9.1127339005E-06
                       0.0000000000E+00  0.0000000000E+00  0.0000000000E+00
           strten18    9.5390422262E-06  9.3725752466E-06  9.1127339005E-06
                       0.0000000000E+00  0.0000000000E+00  0.0000000000E+00
           strten19    9.0700241421E-06  9.1504547801E-06  8.2944351651E-06
                       0.0000000000E+00  0.0000000000E+00  0.0000000000E+00
           strten20    9.0700241421E-06  9.1504547801E-06  8.2944351651E-06
                       0.0000000000E+00  0.0000000000E+00  0.0000000000E+00
           strten21    4.1414761694E-05  4.0903517577E-05  4.1524011448E-05
                       0.0000000000E+00  0.0000000000E+00  0.0000000000E+00
           strten22    4.1414761694E-05  4.0903517577E-05  4.1524011448E-05
                       0.0000000000E+00  0.0000000000E+00  0.0000000000E+00
           strten23   -4.5709976555E-06 -4.7270163330E-06 -5.5461762836E-06
                       0.0000000000E+00  0.0000000000E+00  0.0000000000E+00
           strten24   -4.5710878762E-06 -4.7271073546E-06 -5.5462681568E-06
                       0.0000000000E+00  0.0000000000E+00  0.0000000000E+00
           symrel      1  0  0   0  1  0   0  0  1      -1  0  0   0  1  0   0  0  1
                       1  0  0   0 -1  0   0  0  1      -1  0  0   0 -1  0   0  0  1
                       1  0  0   0  1  0   0  0 -1      -1  0  0   0  1  0   0  0 -1
                       1  0  0   0 -1  0   0  0 -1      -1  0  0   0 -1  0   0  0 -1
           tolwfr      1.00000000E-14
            typat      1
            znucl        2.00000

================================================================================


- Timing analysis has been suppressed with timopt=0



================================================================================

 Suggested references for the acknowledgment of ABINIT usage.

 The users of ABINIT have little formal obligations with respect to the ABINIT group
 (those specified in the GNU General Public License, http://www.gnu.org/copyleft/gpl.txt).
 However, it is common practice in the scientific literature,
 to acknowledge the efforts of people that have made the research possible.
 In this spirit, please find below suggested citations of work written by ABINIT developers,
 corresponding to implementations inside of ABINIT that you have used in the present run.
 Note also that it will be of great value to readers of publications presenting these results,
 to read papers enabling them to understand the theoretical formalism and details
 of the ABINIT implementation.
 For information on why they are suggested, see also http://www.abinit.org/about/?text=acknowledgments.

 [1] Libxc: A library of exchange and correlation functionals for density functional theory.
 M.A.L. Marques, M.J.T. Oliveira, T. Burnus, Computer Physics Communications 183, 2227 (2012).
 Comment : to be cited when LibXC is used (negative value of ixc)
 Strong suggestion to cite this paper.

 [2] ABINIT : First-principles approach of materials and nanosystem properties.
 X. Gonze, B. Amadon, P.-M. Anglade, J.-M. Beuken, F. Bottin, P. Boulanger, F. Bruneval,
 D. Caliste, R. Caracas, M. Cote, T. Deutsch, L. Genovese, Ph. Ghosez, M. Giantomassi
 S. Goedecker, D.R. Hamann, P. Hermet, F. Jollet, G. Jomard, S. Leroux, M. Mancini, S. Mazevet,
 M.J.T. Oliveira, G. Onida, Y. Pouillon, T. Rangel, G.-M. Rignanese, D. Sangalli, R. Shaltaf,
 M. Torrent, M.J. Verstraete, G. Zerah, J.W. Zwanziger
 Computer Phys. Comm. 180, 2582-2615 (2009).
 Comment : the third generic paper describing the ABINIT project.
 Note that a version of this paper, that is not formatted for Computer Phys. Comm. 
 is available at http://www.abinit.org/about/ABINIT_CPC_v10.pdf .
 The licence allows the authors to put it on the Web.

 [3] A brief introduction to the ABINIT software package.
 X. Gonze, G.-M. Rignanese, M. Verstraete, J.-M. Beuken, Y. Pouillon, R. Caracas, F. Jollet,
 M. Torrent, G. Zerah, M. Mikami, Ph. Ghosez, M. Veithen, J.-Y. Raty, V. Olevano, F. Bruneval,
 L. Reining, R. Godby, G. Onida, D.R. Hamann, and D.C. Allan.
 Z. Kristallogr. 220, 558-562 (2005).
 Comment : the second generic paper describing the ABINIT project. Note that this paper
 should be cited especially if you are using the GW part of ABINIT, as several authors
 of this part are not in the list of authors of the first or third paper.
 The .pdf of the latter paper is available at http://www.abinit.org/about/zfk_0505-06_558-562.pdf.
 Note that it should not redistributed (Copyright by Oldenburg Wissenshaftverlag,
 the licence allows the authors to put it on the Web).


 And optionally :

 [4] First-principles computation of material properties : the ABINIT software project. 
 X. Gonze, J.-M. Beuken, R. Caracas, F. Detraux, M. Fuchs, G.-M. Rignanese, L. Sindic,
 M. Verstraete, G. Zerah, F. Jollet, M. Torrent, A. Roy, M. Mikami, Ph. Ghosez, J.-Y. Raty, D.C. Allan.
 Computational Materials Science 25, 478-492 (2002). http://dx.doi.org/10.1016/S0927-0256(02)00325-7
 Comment : the original paper describing the ABINIT project.

 [5] Fast radix 2, 3, 4 and 5 kernels for Fast Fourier Transformations
 on computers with overlapping multiply-add instructions.
 S. Goedecker, SIAM J. on Scientific Computing 18, 1605 (1997).
-
- Proc.   0 individual time (sec): cpu=         28.9  wall=         29.0

================================================================================

 Calculation completed.
.Delivered   76 WARNINGs and 120 COMMENTs to log file.
+Overall time at end (sec) : cpu=         28.9  wall=         29.0
