
.Version 7.9.3 of ABINIT 
.(MPI version, prepared for a x86_64_linux_gnu4.7 computer) 

.Copyright (C) 1998-2014 ABINIT group . 
 ABINIT comes with ABSOLUTELY NO WARRANTY.
 It is free software, and you are welcome to redistribute it
 under certain conditions (GNU General Public License,
 see ~abinit/COPYING or http://www.gnu.org/copyleft/gpl.txt).

 ABINIT is a project of the Universite Catholique de Louvain,
 Corning Inc. and other collaborators, see ~abinit/doc/developers/contributors.txt .
 Please read ~abinit/doc/users/acknowledgments.html for suggested
 acknowledgments of the ABINIT effort.
 For more information, see http://www.abinit.org .

.Starting date : Sat 30 Aug 2014.
- ( at 22h20 )
  
- input  file    -> t07.in
- output file    -> t07.out
- root for input  files -> t07i
- root for output files -> t07o


 DATASET    1 : space group Pm -3 m (#221); Bravais cP (primitive cubic)
================================================================================
 Values of the parameters that define the memory need for DATASET  1.
   intxc =         0  ionmov =         0    iscf =         7 xclevel =         2
  lmnmax =         6   lnmax =         6   mband =         4  mffmem =         1
P  mgfft =        30   mkmem =         1 mpssoang=         3     mpw =       752
  mqgrid =      3001   natom =         1    nfft =     27000    nkpt =         1
  nloalg =         4  nspden =         2 nspinor =         1  nsppol =         2
    nsym =        48  n1xccc =         0  ntypat =         1  occopt =         2
================================================================================
P This job should need less than                      14.531 Mbytes of memory.
  Rough estimation (10% accuracy) of disk space for files :
_ WF disk file :      0.094 Mbytes ; DEN or POT disk file :      0.414 Mbytes.
================================================================================


 DATASET    2 : space group Pm -3 m (#221); Bravais cP (primitive cubic)
================================================================================
 Values of the parameters that define the memory need for DATASET  2.
   intxc =         0  ionmov =         0    iscf =         7 xclevel =         2
  lmnmax =         6   lnmax =         6   mband =         4  mffmem =         1
P  mgfft =        30   mkmem =         1 mpssoang=         3     mpw =       752
  mqgrid =      3001   natom =         1    nfft =     27000    nkpt =         1
  nloalg =         4  nspden =         2 nspinor =         1  nsppol =         2
    nsym =        48  n1xccc =         0  ntypat =         1  occopt =         2
================================================================================
P This job should need less than                      14.531 Mbytes of memory.
  Rough estimation (10% accuracy) of disk space for files :
_ WF disk file :      0.094 Mbytes ; DEN or POT disk file :      0.414 Mbytes.
================================================================================


 DATASET    3 : space group Pm -3 m (#221); Bravais cP (primitive cubic)
================================================================================
 Values of the parameters that define the memory need for DATASET  3.
   intxc =         0  ionmov =         0    iscf =         7 xclevel =         2
  lmnmax =         6   lnmax =         6   mband =         4  mffmem =         1
P  mgfft =        30   mkmem =         1 mpssoang=         3     mpw =       752
  mqgrid =      3001   natom =         1    nfft =     27000    nkpt =         1
  nloalg =         4  nspden =         2 nspinor =         1  nsppol =         2
    nsym =        48  n1xccc =         0  ntypat =         1  occopt =         2
================================================================================
P This job should need less than                      14.531 Mbytes of memory.
  Rough estimation (10% accuracy) of disk space for files :
_ WF disk file :      0.094 Mbytes ; DEN or POT disk file :      0.414 Mbytes.
================================================================================


 DATASET    4 : space group Pm -3 m (#221); Bravais cP (primitive cubic)
================================================================================
 Values of the parameters that define the memory need for DATASET  4.
   intxc =         0  ionmov =         0    iscf =         7 xclevel =         2
  lmnmax =         6   lnmax =         6   mband =         4  mffmem =         1
P  mgfft =        30   mkmem =         1 mpssoang=         3     mpw =       752
  mqgrid =      3001   natom =         1    nfft =     27000    nkpt =         1
  nloalg =         4  nspden =         2 nspinor =         1  nsppol =         2
    nsym =        48  n1xccc =         0  ntypat =         1  occopt =         2
================================================================================
P This job should need less than                      14.531 Mbytes of memory.
  Rough estimation (10% accuracy) of disk space for files :
_ WF disk file :      0.094 Mbytes ; DEN or POT disk file :      0.414 Mbytes.
================================================================================


 DATASET    5 : space group Pm -3 m (#221); Bravais cP (primitive cubic)
================================================================================
 Values of the parameters that define the memory need for DATASET  5.
   intxc =         0  ionmov =         0    iscf =         7 xclevel =         2
  lmnmax =         6   lnmax =         6   mband =         4  mffmem =         1
P  mgfft =        30   mkmem =         1 mpssoang=         3     mpw =       752
  mqgrid =      3001   natom =         1    nfft =     27000    nkpt =         1
  nloalg =         4  nspden =         2 nspinor =         1  nsppol =         2
    nsym =        48  n1xccc =         0  ntypat =         1  occopt =         2
================================================================================
P This job should need less than                      14.531 Mbytes of memory.
  Rough estimation (10% accuracy) of disk space for files :
_ WF disk file :      0.094 Mbytes ; DEN or POT disk file :      0.414 Mbytes.
================================================================================


 DATASET    6 : space group Pm -3 m (#221); Bravais cP (primitive cubic)
================================================================================
 Values of the parameters that define the memory need for DATASET  6.
   intxc =         0  ionmov =         0    iscf =         7 xclevel =         2
  lmnmax =         6   lnmax =         6   mband =         4  mffmem =         1
P  mgfft =        30   mkmem =         1 mpssoang=         3     mpw =       752
  mqgrid =      3001   natom =         1    nfft =     27000    nkpt =         1
  nloalg =         4  nspden =         2 nspinor =         1  nsppol =         2
    nsym =        48  n1xccc =         0  ntypat =         1  occopt =         2
================================================================================
P This job should need less than                      14.531 Mbytes of memory.
  Rough estimation (10% accuracy) of disk space for files :
_ WF disk file :      0.094 Mbytes ; DEN or POT disk file :      0.414 Mbytes.
================================================================================


 DATASET    7 : space group Pm -3 m (#221); Bravais cP (primitive cubic)
================================================================================
 Values of the parameters that define the memory need for DATASET  7.
   intxc =         0  ionmov =         0    iscf =         7 xclevel =         2
  lmnmax =         6   lnmax =         6   mband =         4  mffmem =         1
P  mgfft =        30   mkmem =         1 mpssoang=         3     mpw =       752
  mqgrid =      3001   natom =         1    nfft =     27000    nkpt =         1
  nloalg =         4  nspden =         2 nspinor =         1  nsppol =         2
    nsym =        48  n1xccc =         0  ntypat =         1  occopt =         2
================================================================================
P This job should need less than                      14.531 Mbytes of memory.
  Rough estimation (10% accuracy) of disk space for files :
_ WF disk file :      0.094 Mbytes ; DEN or POT disk file :      0.414 Mbytes.
================================================================================


 DATASET   10 : space group Pm -3 m (#221); Bravais cP (primitive cubic)
================================================================================
 Values of the parameters that define the memory need for DATASET 10.
   intxc =         0  ionmov =         0    iscf =         7 xclevel =         2
  lmnmax =         6   lnmax =         6   mband =         4  mffmem =         1
P  mgfft =        30   mkmem =         1 mpssoang=         3     mpw =       752
  mqgrid =      3001   natom =         1    nfft =     27000    nkpt =         1
  nloalg =         4  nspden =         2 nspinor =         1  nsppol =         2
    nsym =        48  n1xccc =         0  ntypat =         1  occopt =         2
================================================================================
P This job should need less than                      14.531 Mbytes of memory.
  Rough estimation (10% accuracy) of disk space for files :
_ WF disk file :      0.094 Mbytes ; DEN or POT disk file :      0.414 Mbytes.
================================================================================


 DATASET   11 : space group Pm -3 m (#221); Bravais cP (primitive cubic)
================================================================================
 Values of the parameters that define the memory need for DATASET 11.
   intxc =         0  ionmov =         0    iscf =         7 xclevel =         2
  lmnmax =         6   lnmax =         6   mband =         4  mffmem =         1
P  mgfft =        30   mkmem =         1 mpssoang=         3     mpw =       752
  mqgrid =      3001   natom =         1    nfft =     27000    nkpt =         1
  nloalg =         4  nspden =         2 nspinor =         1  nsppol =         2
    nsym =        48  n1xccc =         0  ntypat =         1  occopt =         2
================================================================================
P This job should need less than                      14.531 Mbytes of memory.
  Rough estimation (10% accuracy) of disk space for files :
_ WF disk file :      0.094 Mbytes ; DEN or POT disk file :      0.414 Mbytes.
================================================================================


 DATASET   12 : space group Pm -3 m (#221); Bravais cP (primitive cubic)
================================================================================
 Values of the parameters that define the memory need for DATASET 12.
   intxc =         0  ionmov =         0    iscf =         7 xclevel =         2
  lmnmax =         6   lnmax =         6   mband =         4  mffmem =         1
P  mgfft =        30   mkmem =         1 mpssoang=         3     mpw =       752
  mqgrid =      3001   natom =         1    nfft =     27000    nkpt =         1
  nloalg =         4  nspden =         2 nspinor =         1  nsppol =         2
    nsym =        48  n1xccc =         0  ntypat =         1  occopt =         2
================================================================================
P This job should need less than                      14.531 Mbytes of memory.
  Rough estimation (10% accuracy) of disk space for files :
_ WF disk file :      0.094 Mbytes ; DEN or POT disk file :      0.414 Mbytes.
================================================================================


 DATASET   13 : space group Pm -3 m (#221); Bravais cP (primitive cubic)
================================================================================
 Values of the parameters that define the memory need for DATASET 13.
   intxc =         0  ionmov =         0    iscf =         7 xclevel =         2
  lmnmax =         6   lnmax =         6   mband =         4  mffmem =         1
P  mgfft =        30   mkmem =         1 mpssoang=         3     mpw =       752
  mqgrid =      3001   natom =         1    nfft =     27000    nkpt =         1
  nloalg =         4  nspden =         2 nspinor =         1  nsppol =         2
    nsym =        48  n1xccc =         0  ntypat =         1  occopt =         2
================================================================================
P This job should need less than                      14.531 Mbytes of memory.
  Rough estimation (10% accuracy) of disk space for files :
_ WF disk file :      0.094 Mbytes ; DEN or POT disk file :      0.414 Mbytes.
================================================================================


 DATASET   14 : space group Pm -3 m (#221); Bravais cP (primitive cubic)
================================================================================
 Values of the parameters that define the memory need for DATASET 14.
   intxc =         0  ionmov =         0    iscf =         7 xclevel =         2
  lmnmax =         6   lnmax =         6   mband =         4  mffmem =         1
P  mgfft =        30   mkmem =         1 mpssoang=         3     mpw =       752
  mqgrid =      3001   natom =         1    nfft =     27000    nkpt =         1
  nloalg =         4  nspden =         2 nspinor =         1  nsppol =         2
    nsym =        48  n1xccc =         0  ntypat =         1  occopt =         2
================================================================================
P This job should need less than                      14.531 Mbytes of memory.
  Rough estimation (10% accuracy) of disk space for files :
_ WF disk file :      0.094 Mbytes ; DEN or POT disk file :      0.414 Mbytes.
================================================================================


 DATASET   15 : space group Pm -3 m (#221); Bravais cP (primitive cubic)
================================================================================
 Values of the parameters that define the memory need for DATASET 15.
   intxc =         0  ionmov =         0    iscf =         7 xclevel =         2
  lmnmax =         6   lnmax =         6   mband =         4  mffmem =         1
P  mgfft =        30   mkmem =         1 mpssoang=         3     mpw =       752
  mqgrid =      3001   natom =         1    nfft =     27000    nkpt =         1
  nloalg =         4  nspden =         2 nspinor =         1  nsppol =         2
    nsym =        48  n1xccc =         0  ntypat =         1  occopt =         2
================================================================================
P This job should need less than                      14.531 Mbytes of memory.
  Rough estimation (10% accuracy) of disk space for files :
_ WF disk file :      0.094 Mbytes ; DEN or POT disk file :      0.414 Mbytes.
================================================================================


 DATASET   16 : space group Pm -3 m (#221); Bravais cP (primitive cubic)
================================================================================
 Values of the parameters that define the memory need for DATASET 16.
   intxc =         0  ionmov =         0    iscf =         7 xclevel =         2
  lmnmax =         6   lnmax =         6   mband =         4  mffmem =         1
P  mgfft =        30   mkmem =         1 mpssoang=         3     mpw =       752
  mqgrid =      3001   natom =         1    nfft =     27000    nkpt =         1
  nloalg =         4  nspden =         2 nspinor =         1  nsppol =         2
    nsym =        48  n1xccc =         0  ntypat =         1  occopt =         2
================================================================================
P This job should need less than                      14.531 Mbytes of memory.
  Rough estimation (10% accuracy) of disk space for files :
_ WF disk file :      0.094 Mbytes ; DEN or POT disk file :      0.414 Mbytes.
================================================================================


 DATASET   17 : space group Pm -3 m (#221); Bravais cP (primitive cubic)
================================================================================
 Values of the parameters that define the memory need for DATASET 17.
   intxc =         0  ionmov =         0    iscf =         7 xclevel =         2
  lmnmax =         6   lnmax =         6   mband =         4  mffmem =         1
P  mgfft =        30   mkmem =         1 mpssoang=         3     mpw =       752
  mqgrid =      3001   natom =         1    nfft =     27000    nkpt =         1
  nloalg =         4  nspden =         2 nspinor =         1  nsppol =         2
    nsym =        48  n1xccc =         0  ntypat =         1  occopt =         2
================================================================================
P This job should need less than                      14.531 Mbytes of memory.
  Rough estimation (10% accuracy) of disk space for files :
_ WF disk file :      0.094 Mbytes ; DEN or POT disk file :      0.414 Mbytes.
================================================================================


 DATASET   18 : space group Pm -3 m (#221); Bravais cP (primitive cubic)
================================================================================
 Values of the parameters that define the memory need for DATASET 18.
   intxc =         0  ionmov =         0    iscf =         7 xclevel =         2
  lmnmax =         6   lnmax =         6   mband =         4  mffmem =         1
P  mgfft =        30   mkmem =         1 mpssoang=         3     mpw =       752
  mqgrid =      3001   natom =         1    nfft =     27000    nkpt =         1
  nloalg =         4  nspden =         2 nspinor =         1  nsppol =         2
    nsym =        48  n1xccc =         0  ntypat =         1  occopt =         2
================================================================================
P This job should need less than                      14.531 Mbytes of memory.
  Rough estimation (10% accuracy) of disk space for files :
_ WF disk file :      0.094 Mbytes ; DEN or POT disk file :      0.414 Mbytes.
================================================================================


 DATASET   19 : space group Pm -3 m (#221); Bravais cP (primitive cubic)
================================================================================
 Values of the parameters that define the memory need for DATASET 19.
   intxc =         0  ionmov =         0    iscf =         7 xclevel =         2
  lmnmax =         6   lnmax =         6   mband =         4  mffmem =         1
P  mgfft =        30   mkmem =         1 mpssoang=         3     mpw =       752
  mqgrid =      3001   natom =         1    nfft =     27000    nkpt =         1
  nloalg =         4  nspden =         2 nspinor =         1  nsppol =         2
    nsym =        48  n1xccc =         0  ntypat =         1  occopt =         2
================================================================================
P This job should need less than                      14.531 Mbytes of memory.
  Rough estimation (10% accuracy) of disk space for files :
_ WF disk file :      0.094 Mbytes ; DEN or POT disk file :      0.414 Mbytes.
================================================================================


 DATASET   20 : space group Pm -3 m (#221); Bravais cP (primitive cubic)
================================================================================
 Values of the parameters that define the memory need for DATASET 20.
   intxc =         0  ionmov =         0    iscf =         7 xclevel =         2
  lmnmax =         6   lnmax =         6   mband =         4  mffmem =         1
P  mgfft =        30   mkmem =         1 mpssoang=         3     mpw =       752
  mqgrid =      3001   natom =         1    nfft =     27000    nkpt =         1
  nloalg =         4  nspden =         2 nspinor =         1  nsppol =         2
    nsym =        48  n1xccc =         0  ntypat =         1  occopt =         2
================================================================================
P This job should need less than                      14.531 Mbytes of memory.
  Rough estimation (10% accuracy) of disk space for files :
_ WF disk file :      0.094 Mbytes ; DEN or POT disk file :      0.414 Mbytes.
================================================================================


 DATASET   21 : space group Pm -3 m (#221); Bravais cP (primitive cubic)
================================================================================
 Values of the parameters that define the memory need for DATASET 21.
   intxc =         0  ionmov =         0    iscf =         7 xclevel =         2
  lmnmax =         6   lnmax =         6   mband =         4  mffmem =         1
P  mgfft =        30   mkmem =         1 mpssoang=         3     mpw =       752
  mqgrid =      3001   natom =         1    nfft =     27000    nkpt =         1
  nloalg =         4  nspden =         2 nspinor =         1  nsppol =         2
    nsym =        48  n1xccc =         0  ntypat =         1  occopt =         2
================================================================================
P This job should need less than                      14.531 Mbytes of memory.
  Rough estimation (10% accuracy) of disk space for files :
_ WF disk file :      0.094 Mbytes ; DEN or POT disk file :      0.414 Mbytes.
================================================================================


 DATASET   22 : space group Pm -3 m (#221); Bravais cP (primitive cubic)
================================================================================
 Values of the parameters that define the memory need for DATASET 22.
   intxc =         0  ionmov =         0    iscf =         7 xclevel =         2
  lmnmax =         6   lnmax =         6   mband =         4  mffmem =         1
P  mgfft =        30   mkmem =         1 mpssoang=         3     mpw =       752
  mqgrid =      3001   natom =         1    nfft =     27000    nkpt =         1
  nloalg =         4  nspden =         2 nspinor =         1  nsppol =         2
    nsym =        48  n1xccc =         0  ntypat =         1  occopt =         2
================================================================================
P This job should need less than                      14.531 Mbytes of memory.
  Rough estimation (10% accuracy) of disk space for files :
_ WF disk file :      0.094 Mbytes ; DEN or POT disk file :      0.414 Mbytes.
================================================================================

--------------------------------------------------------------------------------
------------- Echo of variables that govern the present computation ------------
--------------------------------------------------------------------------------
-
- outvars: echo of selected default values                                      
-   accesswff0 =  0 , fftalg0 =112 , wfoptalg0 =  0
-
- outvars: echo of global parameters not present in the input file              
-  max_nthreads =    0
-
 -outvars: echo values of preprocessed input variables --------
            acell      1.0000000000E+01  1.0000000000E+01  1.0000000000E+01 Bohr
              amu      2.08980370E+02
           diemac      2.00000000E+00
           diemix      5.00000000E-01
             ecut      1.00000000E+01 Hartree
-          fftalg         112
           istwfk        2
              ixc1    -106138
              ixc2    -125131
              ixc3    -126131
              ixc4       -161
              ixc5       -162
              ixc6       -163
              ixc7       -164
              ixc10      -167
              ixc11      -168
              ixc12      -169
              ixc13      -172
              ixc14      -173
              ixc15      -174
              ixc16      -175
              ixc17      -176
              ixc18      -177
              ixc19      -178
              ixc20      -179
              ixc21      -180
              ixc22      -181
           jdtset        1    2    3    4    5    6    7   10   11   12
                        13   14   15   16   17   18   19   20   21   22
           kptopt           0
P           mkmem           1
            natom           1
            nband           4       4
           ndtset          20
            ngfft          30      30      30
             nkpt           1
            nline           1
           nspden           2
           nsppol           2
            nstep           1
             nsym          48
           ntypat           1
              occ      1.000000  1.000000  1.000000  1.000000
                       1.000000  0.000000  0.000000  0.000000
           occopt           2
           prtden           0
           prteig           0
            prtwf           0
          spgroup         221
           spinat      1.0000000000E+00  0.0000000000E+00  0.0000000000E+00
           symrel      1  0  0   0  1  0   0  0  1      -1  0  0   0 -1  0   0  0 -1
                      -1  0  0   0  1  0   0  0 -1       1  0  0   0 -1  0   0  0  1
                      -1  0  0   0 -1  0   0  0  1       1  0  0   0  1  0   0  0 -1
                       1  0  0   0 -1  0   0  0 -1      -1  0  0   0  1  0   0  0  1
                       0  1  0   1  0  0   0  0  1       0 -1  0  -1  0  0   0  0 -1
                       0 -1  0   1  0  0   0  0 -1       0  1  0  -1  0  0   0  0  1
                       0 -1  0  -1  0  0   0  0  1       0  1  0   1  0  0   0  0 -1
                       0  1  0  -1  0  0   0  0 -1       0 -1  0   1  0  0   0  0  1
                       0  0  1   1  0  0   0  1  0       0  0 -1  -1  0  0   0 -1  0
                       0  0 -1   1  0  0   0 -1  0       0  0  1  -1  0  0   0  1  0
                       0  0 -1  -1  0  0   0  1  0       0  0  1   1  0  0   0 -1  0
                       0  0  1  -1  0  0   0 -1  0       0  0 -1   1  0  0   0  1  0
                       1  0  0   0  0  1   0  1  0      -1  0  0   0  0 -1   0 -1  0
                      -1  0  0   0  0  1   0 -1  0       1  0  0   0  0 -1   0  1  0
                      -1  0  0   0  0 -1   0  1  0       1  0  0   0  0  1   0 -1  0
                       1  0  0   0  0 -1   0 -1  0      -1  0  0   0  0  1   0  1  0
                       0  1  0   0  0  1   1  0  0       0 -1  0   0  0 -1  -1  0  0
                       0 -1  0   0  0  1  -1  0  0       0  1  0   0  0 -1   1  0  0
                       0 -1  0   0  0 -1   1  0  0       0  1  0   0  0  1  -1  0  0
                       0  1  0   0  0 -1  -1  0  0       0 -1  0   0  0  1   1  0  0
                       0  0  1   0  1  0   1  0  0       0  0 -1   0 -1  0  -1  0  0
                       0  0 -1   0  1  0  -1  0  0       0  0  1   0 -1  0   1  0  0
                       0  0 -1   0 -1  0   1  0  0       0  0  1   0  1  0  -1  0  0
                       0  0  1   0 -1  0  -1  0  0       0  0 -1   0  1  0   1  0  0
           tolwfr      1.00000000E-14
            typat      1
            znucl       83.00000

================================================================================

 chkinp: Checking input parameters for consistency, jdtset=   1.

 chkinp: Checking input parameters for consistency, jdtset=   2.

 chkinp: Checking input parameters for consistency, jdtset=   3.

 chkinp: Checking input parameters for consistency, jdtset=   4.

 chkinp: Checking input parameters for consistency, jdtset=   5.

 chkinp: Checking input parameters for consistency, jdtset=   6.

 chkinp: Checking input parameters for consistency, jdtset=   7.

 chkinp: Checking input parameters for consistency, jdtset=  10.

 chkinp: Checking input parameters for consistency, jdtset=  11.

 chkinp: Checking input parameters for consistency, jdtset=  12.

 chkinp: Checking input parameters for consistency, jdtset=  13.

 chkinp: Checking input parameters for consistency, jdtset=  14.

 chkinp: Checking input parameters for consistency, jdtset=  15.

 chkinp: Checking input parameters for consistency, jdtset=  16.

 chkinp: Checking input parameters for consistency, jdtset=  17.

 chkinp: Checking input parameters for consistency, jdtset=  18.

 chkinp: Checking input parameters for consistency, jdtset=  19.

 chkinp: Checking input parameters for consistency, jdtset=  20.

 chkinp: Checking input parameters for consistency, jdtset=  21.

 chkinp: Checking input parameters for consistency, jdtset=  22.

================================================================================
== DATASET  1 ==================================================================
-   nproc =    1

 Real(R)+Recip(G) space primitive vectors, cartesian coordinates (Bohr,Bohr^-1):
 R(1)= 10.0000000  0.0000000  0.0000000  G(1)=  0.1000000  0.0000000  0.0000000
 R(2)=  0.0000000 10.0000000  0.0000000  G(2)=  0.0000000  0.1000000  0.0000000
 R(3)=  0.0000000  0.0000000 10.0000000  G(3)=  0.0000000  0.0000000  0.1000000
 Unit cell volume ucvol=  1.0000000E+03 bohr^3
 Angles (23,13,12)=  9.00000000E+01  9.00000000E+01  9.00000000E+01 degrees

 getcut: wavevector=  0.0000  0.0000  0.0000  ngfft=  30  30  30
         ecut(hartree)=     10.000   => boxcut(ratio)=   2.10744

--- Pseudopotential description ------------------------------------------------
- pspini: atom type   1  psp file is /home/gonze/ABINIT/ABINITv7.9.3/trunk/7.9.3-private/tests/Psps_for_tests/83bi.psphgh
- pspatm: opening atomic psp file    /home/gonze/ABINIT/ABINITv7.9.3/trunk/7.9.3-private/tests/Psps_for_tests/83bi.psphgh
- Hartwigsen-Goedecker-Hutter psp for Bismuth,  from PRB58, 3641 (1998) paper
- 83.00000   5.00000    980509                znucl, zion, pspdat
    3    1    2    0      2001   0.00000      pspcod,pspxc,lmax,lloc,mmax,r2well
 rloc=   0.6050000
 cc1 =   6.6794370; cc2 =   0.0000000; cc3 =   0.0000000; cc4 =   0.0000000
 rrs =   0.6788580; h11s=   1.3776340; h22s=  -0.5136970; h33s=  -0.4710280
 rrp =   0.7986730; h11p=   0.6555780; h22p=  -0.4029320; h33p=   0.0000000
                    k11p=   0.3053140; k22p=  -0.0231340; k33p=   0.0000000
 rrd =   0.9346830; h11d=   0.3784760; h22d=   0.0000000; h33d=   0.0000000
                    k11d=   0.0292170; k22d=   0.0000000; k33d=   0.0000000
-  Local part computed in reciprocal space.

 pspatm : COMMENT -
  the projectors are not normalized,
  so that the KB energies are not consistent with 
  definition in PRB44, 8503 (1991). 
  However, this does not influence the results obtained hereafter.
 pspatm: epsatm=   34.79471556
         --- l  ekb(1:nproj) -->
             0   -0.901401   -0.217891    1.555038
             1   -0.989901    1.571994
             2    3.344673
 pspatm: atomic psp has been read  and splines computed

   1.73973578E+02                                ecore*ucvol(ha*bohr**3)
--------------------------------------------------------------------------------

P newkpt: treating      4 bands with npw=     752 for ikpt=   1 by node    0
P newkpt: treating      4 bands with npw=     752 for ikpt=   1 by node    0

_setup2: Arith. and geom. avg. npw (full set) are    1503.000    1503.000

================================================================================

     iter   Etot(hartree)      deltaE(h)  residm     vres2
 ETOT  1  -5.0691074645225    -5.069E+00 1.644E-01 1.355E+02

 Cartesian components of stress tensor (hartree/bohr^3)
  sigma(1 1)=  2.80707892E-04  sigma(3 2)=  0.00000000E+00
  sigma(2 2)=  2.80707892E-04  sigma(3 1)=  0.00000000E+00
  sigma(3 3)=  2.80707892E-04  sigma(2 1)=  0.00000000E+00


 scprqt:  WARNING -
  nstep=    1 was not enough SCF cycles to converge;
  maximum residual=  1.644E-01 exceeds tolwfr=  1.000E-14

================================================================================

 ----iterations are completed or convergence reached----

 Mean square residual over all n,k,spin=   1.1184E-01; max=  1.6443E-01
   0.0000  0.0000  0.0000    1  1.64430E-01 kpt; spin; max resid(k); each band:
  1.64E-01 1.17E-01 5.35E-02 1.12E-01
   0.0000  0.0000  0.0000    2  1.64430E-01 kpt; spin; max resid(k); each band:
  1.64E-01 1.17E-01 5.35E-02 1.12E-01
 reduced coordinates (array xred) for    1 atoms
       0.000000000000      0.000000000000      0.000000000000
 rms dE/dt=  0.0000E+00; max dE/dt=  0.0000E+00; dE/dt below (all hartree)
    1       0.000000000000      0.000000000000      0.000000000000

 cartesian coordinates (angstrom) at end:
    1      0.00000000000000     0.00000000000000     0.00000000000000

 cartesian forces (hartree/bohr) at end:
    1     -0.00000000000000    -0.00000000000000    -0.00000000000000
 frms,max,avg= 0.0000000E+00 0.0000000E+00   0.000E+00  0.000E+00  0.000E+00 h/b

 cartesian forces (eV/Angstrom) at end:
    1     -0.00000000000000    -0.00000000000000    -0.00000000000000
 frms,max,avg= 0.0000000E+00 0.0000000E+00   0.000E+00  0.000E+00  0.000E+00 e/A
 length scales= 10.000000000000 10.000000000000 10.000000000000 bohr
              =  5.291772085900  5.291772085900  5.291772085900 angstroms
 Fermi (or HOMO) energy (hartree) =   0.14783   Average Vxc (hartree)=  -0.16705
 Eigenvalues (hartree) for nkpt=   1  k points, SPIN UP:
 kpt#   1, nband=  4, wtk=  1.00000, kpt=  0.0000  0.0000  0.0000 (reduced coord)
  -0.44640  -0.07284  -0.05703   0.14783
 Eigenvalues (hartree) for nkpt=   1  k points, SPIN DOWN:
 kpt#   1, nband=  4, wtk=  1.00000, kpt=  0.0000  0.0000  0.0000 (reduced coord)
  -0.44640  -0.07284  -0.05703   0.14783
 Total charge density [el/Bohr^3]
,     Maximum=    3.5664E-02  at reduced coord.    0.9000    0.9000    0.9333
,Next maximum=    3.5664E-02  at reduced coord.    0.1000    0.9000    0.9333
,     Minimum=    9.9236E-05  at reduced coord.    0.5000    0.5000    0.5000
,Next minimum=    1.0690E-04  at reduced coord.    0.5000    0.5000    0.4667
,  Integrated=    5.0000E+00
 Spin up density      [el/Bohr^3]
,     Maximum=    2.1727E-02  at reduced coord.    0.8667    0.9333    0.9333
,Next maximum=    2.1727E-02  at reduced coord.    0.1333    0.9333    0.9333
,     Minimum=    9.9231E-05  at reduced coord.    0.5000    0.5000    0.5000
,Next minimum=    1.0678E-04  at reduced coord.    0.5000    0.5000    0.4667
,  Integrated=    4.0000E+00
 Spin down density    [el/Bohr^3]
,     Maximum=    1.4174E-02  at reduced coord.    0.0000    0.8667    0.9333
,Next maximum=    1.4174E-02  at reduced coord.    0.0000    0.1333    0.9333
,     Minimum=    5.0415E-09  at reduced coord.    0.5000    0.5000    0.5000
,Next minimum=    1.1258E-07  at reduced coord.    0.5000    0.5000    0.4667
,  Integrated=    1.0000E+00
 Magnetization (spin up - spin down) [el/Bohr^3]
,     Maximum=    9.5484E-03  at reduced coord.    0.8667    0.8667    0.9000
,Next maximum=    9.5484E-03  at reduced coord.    0.1333    0.8667    0.9000
,     Minimum=    9.9226E-05  at reduced coord.    0.5000    0.5000    0.5000
,Next minimum=    1.0667E-04  at reduced coord.    0.5000    0.5000    0.4667
,  Integrated=    3.0000E+00
 Relative magnetization (=zeta, between -1 and 1)
,     Maximum=    9.9990E-01  at reduced coord.    0.5000    0.5000    0.5000
,Next maximum=    9.9789E-01  at reduced coord.    0.5000    0.5000    0.5333
,     Minimum=    1.4509E-01  at reduced coord.    0.1000    0.0000    0.0000
,Next minimum=    1.4509E-01  at reduced coord.    0.9000    0.0000    0.0000

--------------------------------------------------------------------------------
 Components of total free energy (in Hartree) :

    Kinetic energy  =  1.30378470989606E+00
    Hartree energy  =  5.93675735064283E-01
    XC energy       = -1.09206347406428E+00
    Ewald energy    = -3.54662184935089E+00
    PspCore energy  =  1.73973577808835E-01
    Loc. psp. energy= -2.58988710825675E+00
    NL   psp  energy=  8.80309443801958E-02
    >>>>>>>>> Etotal= -5.06910746452255E+00

 Other information on the energy :
    Total energy(eV)= -1.37937429044714E+02 ; Band energy (Ha)=  -8.7484808883E-01
--------------------------------------------------------------------------------

 Cartesian components of stress tensor (hartree/bohr^3)
  sigma(1 1)=  2.80707892E-04  sigma(3 2)=  0.00000000E+00
  sigma(2 2)=  2.80707892E-04  sigma(3 1)=  0.00000000E+00
  sigma(3 3)=  2.80707892E-04  sigma(2 1)=  0.00000000E+00

-Cartesian components of stress tensor (GPa)         [Pressure= -8.2587E+00 GPa]
- sigma(1 1)=  8.25870991E+00  sigma(3 2)=  0.00000000E+00
- sigma(2 2)=  8.25870991E+00  sigma(3 1)=  0.00000000E+00
- sigma(3 3)=  8.25870991E+00  sigma(2 1)=  0.00000000E+00

================================================================================
== DATASET  2 ==================================================================
-   nproc =    1

 Real(R)+Recip(G) space primitive vectors, cartesian coordinates (Bohr,Bohr^-1):
 R(1)= 10.0000000  0.0000000  0.0000000  G(1)=  0.1000000  0.0000000  0.0000000
 R(2)=  0.0000000 10.0000000  0.0000000  G(2)=  0.0000000  0.1000000  0.0000000
 R(3)=  0.0000000  0.0000000 10.0000000  G(3)=  0.0000000  0.0000000  0.1000000
 Unit cell volume ucvol=  1.0000000E+03 bohr^3
 Angles (23,13,12)=  9.00000000E+01  9.00000000E+01  9.00000000E+01 degrees

 getcut: wavevector=  0.0000  0.0000  0.0000  ngfft=  30  30  30
         ecut(hartree)=     10.000   => boxcut(ratio)=   2.10744

--- Pseudopotential description ------------------------------------------------
- pspini: atom type   1  psp file is /home/gonze/ABINIT/ABINITv7.9.3/trunk/7.9.3-private/tests/Psps_for_tests/83bi.psphgh
- pspatm: opening atomic psp file    /home/gonze/ABINIT/ABINITv7.9.3/trunk/7.9.3-private/tests/Psps_for_tests/83bi.psphgh
- Hartwigsen-Goedecker-Hutter psp for Bismuth,  from PRB58, 3641 (1998) paper
- 83.00000   5.00000    980509                znucl, zion, pspdat
    3    1    2    0      2001   0.00000      pspcod,pspxc,lmax,lloc,mmax,r2well
 rloc=   0.6050000
 cc1 =   6.6794370; cc2 =   0.0000000; cc3 =   0.0000000; cc4 =   0.0000000
 rrs =   0.6788580; h11s=   1.3776340; h22s=  -0.5136970; h33s=  -0.4710280
 rrp =   0.7986730; h11p=   0.6555780; h22p=  -0.4029320; h33p=   0.0000000
                    k11p=   0.3053140; k22p=  -0.0231340; k33p=   0.0000000
 rrd =   0.9346830; h11d=   0.3784760; h22d=   0.0000000; h33d=   0.0000000
                    k11d=   0.0292170; k22d=   0.0000000; k33d=   0.0000000
-  Local part computed in reciprocal space.

 pspatm : COMMENT -
  the projectors are not normalized,
  so that the KB energies are not consistent with 
  definition in PRB44, 8503 (1991). 
  However, this does not influence the results obtained hereafter.
 pspatm: epsatm=   34.79471556
         --- l  ekb(1:nproj) -->
             0   -0.901401   -0.217891    1.555038
             1   -0.989901    1.571994
             2    3.344673
 pspatm: atomic psp has been read  and splines computed

--------------------------------------------------------------------------------

P newkpt: treating      4 bands with npw=     752 for ikpt=   1 by node    0
P newkpt: treating      4 bands with npw=     752 for ikpt=   1 by node    0

_setup2: Arith. and geom. avg. npw (full set) are    1503.000    1503.000

================================================================================

     iter   Etot(hartree)      deltaE(h)  residm     vres2
 ETOT  1  -4.9717733781691    -4.972E+00 1.635E-01 1.926E+02

 Cartesian components of stress tensor (hartree/bohr^3)
  sigma(1 1)=  2.87859779E-04  sigma(3 2)=  0.00000000E+00
  sigma(2 2)=  2.87859779E-04  sigma(3 1)=  0.00000000E+00
  sigma(3 3)=  2.87859779E-04  sigma(2 1)=  0.00000000E+00


 scprqt:  WARNING -
  nstep=    1 was not enough SCF cycles to converge;
  maximum residual=  1.635E-01 exceeds tolwfr=  1.000E-14

================================================================================

 ----iterations are completed or convergence reached----

 Mean square residual over all n,k,spin=   1.0927E-01; max=  1.6355E-01
   0.0000  0.0000  0.0000    1  1.63547E-01 kpt; spin; max resid(k); each band:
  1.64E-01 1.04E-01 5.13E-02 1.18E-01
   0.0000  0.0000  0.0000    2  1.63547E-01 kpt; spin; max resid(k); each band:
  1.64E-01 1.04E-01 5.13E-02 1.18E-01
 reduced coordinates (array xred) for    1 atoms
       0.000000000000      0.000000000000      0.000000000000
 rms dE/dt=  0.0000E+00; max dE/dt=  0.0000E+00; dE/dt below (all hartree)
    1       0.000000000000      0.000000000000      0.000000000000

 cartesian coordinates (angstrom) at end:
    1      0.00000000000000     0.00000000000000     0.00000000000000

 cartesian forces (hartree/bohr) at end:
    1     -0.00000000000000    -0.00000000000000    -0.00000000000000
 frms,max,avg= 0.0000000E+00 0.0000000E+00   0.000E+00  0.000E+00  0.000E+00 h/b

 cartesian forces (eV/Angstrom) at end:
    1     -0.00000000000000    -0.00000000000000    -0.00000000000000
 frms,max,avg= 0.0000000E+00 0.0000000E+00   0.000E+00  0.000E+00  0.000E+00 e/A
 length scales= 10.000000000000 10.000000000000 10.000000000000 bohr
              =  5.291772085900  5.291772085900  5.291772085900 angstroms
 Fermi (or HOMO) energy (hartree) =   0.14807   Average Vxc (hartree)=  -0.16097
 Eigenvalues (hartree) for nkpt=   1  k points, SPIN UP:
 kpt#   1, nband=  4, wtk=  1.00000, kpt=  0.0000  0.0000  0.0000 (reduced coord)
  -0.43065  -0.05694  -0.04360   0.14807
 Eigenvalues (hartree) for nkpt=   1  k points, SPIN DOWN:
 kpt#   1, nband=  4, wtk=  1.00000, kpt=  0.0000  0.0000  0.0000 (reduced coord)
  -0.43065  -0.05694  -0.04360   0.14807
 Total charge density [el/Bohr^3]
,     Maximum=    3.5333E-02  at reduced coord.    0.9000    0.9000    0.9333
,Next maximum=    3.5333E-02  at reduced coord.    0.1000    0.9000    0.9333
,     Minimum=    2.8849E-04  at reduced coord.    0.5000    0.5000    0.5000
,Next minimum=    2.9885E-04  at reduced coord.    0.5000    0.5000    0.4667
,  Integrated=    5.0000E+00
 Spin up density      [el/Bohr^3]
,     Maximum=    2.1370E-02  at reduced coord.    0.8667    0.9333    0.9333
,Next maximum=    2.1370E-02  at reduced coord.    0.1333    0.9333    0.9333
,     Minimum=    2.8824E-04  at reduced coord.    0.5000    0.5000    0.5000
,Next minimum=    2.9855E-04  at reduced coord.    0.5000    0.5000    0.4667
,  Integrated=    4.0000E+00
 Spin down density    [el/Bohr^3]
,     Maximum=    1.4180E-02  at reduced coord.    0.9000    0.9000    0.9667
,Next maximum=    1.4180E-02  at reduced coord.    0.1000    0.9000    0.9667
,     Minimum=    2.5316E-07  at reduced coord.    0.5000    0.5000    0.5000
,Next minimum=    2.9565E-07  at reduced coord.    0.5000    0.5000    0.4667
,  Integrated=    1.0000E+00
 Magnetization (spin up - spin down) [el/Bohr^3]
,     Maximum=    9.0506E-03  at reduced coord.    0.8667    0.8667    0.9000
,Next maximum=    9.0506E-03  at reduced coord.    0.1333    0.8667    0.9000
,     Minimum=    2.8799E-04  at reduced coord.    0.5000    0.5000    0.5000
,Next minimum=    2.9825E-04  at reduced coord.    0.5000    0.5000    0.4667
,  Integrated=    3.0000E+00
 Relative magnetization (=zeta, between -1 and 1)
,     Maximum=    9.9848E-01  at reduced coord.    0.5000    0.5000    0.6667
,Next maximum=    9.9848E-01  at reduced coord.    0.5000    0.6667    0.5000
,     Minimum=    1.4008E-01  at reduced coord.    0.1000    0.0000    0.0000
,Next minimum=    1.4008E-01  at reduced coord.    0.9000    0.0000    0.0000

--------------------------------------------------------------------------------
 Components of total free energy (in Hartree) :

    Kinetic energy  =  1.26576180953841E+00
    Hartree energy  =  5.45315139841832E-01
    XC energy       = -9.93917038290191E-01
    Ewald energy    = -3.54662184935089E+00
    PspCore energy  =  1.73973577808835E-01
    Loc. psp. energy= -2.50300235672254E+00
    NL   psp  energy=  8.67173390054518E-02
    >>>>>>>>> Etotal= -4.97177337816910E+00

 Other information on the energy :
    Total energy(eV)= -1.35288833858288E+02 ; Band energy (Ha)=  -8.1377548037E-01
--------------------------------------------------------------------------------

 Cartesian components of stress tensor (hartree/bohr^3)
  sigma(1 1)=  2.87859779E-04  sigma(3 2)=  0.00000000E+00
  sigma(2 2)=  2.87859779E-04  sigma(3 1)=  0.00000000E+00
  sigma(3 3)=  2.87859779E-04  sigma(2 1)=  0.00000000E+00

-Cartesian components of stress tensor (GPa)         [Pressure= -8.4691E+00 GPa]
- sigma(1 1)=  8.46912567E+00  sigma(3 2)=  0.00000000E+00
- sigma(2 2)=  8.46912567E+00  sigma(3 1)=  0.00000000E+00
- sigma(3 3)=  8.46912567E+00  sigma(2 1)=  0.00000000E+00

================================================================================
== DATASET  3 ==================================================================
-   nproc =    1

 Real(R)+Recip(G) space primitive vectors, cartesian coordinates (Bohr,Bohr^-1):
 R(1)= 10.0000000  0.0000000  0.0000000  G(1)=  0.1000000  0.0000000  0.0000000
 R(2)=  0.0000000 10.0000000  0.0000000  G(2)=  0.0000000  0.1000000  0.0000000
 R(3)=  0.0000000  0.0000000 10.0000000  G(3)=  0.0000000  0.0000000  0.1000000
 Unit cell volume ucvol=  1.0000000E+03 bohr^3
 Angles (23,13,12)=  9.00000000E+01  9.00000000E+01  9.00000000E+01 degrees

 getcut: wavevector=  0.0000  0.0000  0.0000  ngfft=  30  30  30
         ecut(hartree)=     10.000   => boxcut(ratio)=   2.10744

--- Pseudopotential description ------------------------------------------------
- pspini: atom type   1  psp file is /home/gonze/ABINIT/ABINITv7.9.3/trunk/7.9.3-private/tests/Psps_for_tests/83bi.psphgh
- pspatm: opening atomic psp file    /home/gonze/ABINIT/ABINITv7.9.3/trunk/7.9.3-private/tests/Psps_for_tests/83bi.psphgh
- Hartwigsen-Goedecker-Hutter psp for Bismuth,  from PRB58, 3641 (1998) paper
- 83.00000   5.00000    980509                znucl, zion, pspdat
    3    1    2    0      2001   0.00000      pspcod,pspxc,lmax,lloc,mmax,r2well
 rloc=   0.6050000
 cc1 =   6.6794370; cc2 =   0.0000000; cc3 =   0.0000000; cc4 =   0.0000000
 rrs =   0.6788580; h11s=   1.3776340; h22s=  -0.5136970; h33s=  -0.4710280
 rrp =   0.7986730; h11p=   0.6555780; h22p=  -0.4029320; h33p=   0.0000000
                    k11p=   0.3053140; k22p=  -0.0231340; k33p=   0.0000000
 rrd =   0.9346830; h11d=   0.3784760; h22d=   0.0000000; h33d=   0.0000000
                    k11d=   0.0292170; k22d=   0.0000000; k33d=   0.0000000
-  Local part computed in reciprocal space.

 pspatm : COMMENT -
  the projectors are not normalized,
  so that the KB energies are not consistent with 
  definition in PRB44, 8503 (1991). 
  However, this does not influence the results obtained hereafter.
 pspatm: epsatm=   34.79471556
         --- l  ekb(1:nproj) -->
             0   -0.901401   -0.217891    1.555038
             1   -0.989901    1.571994
             2    3.344673
 pspatm: atomic psp has been read  and splines computed

--------------------------------------------------------------------------------

P newkpt: treating      4 bands with npw=     752 for ikpt=   1 by node    0
P newkpt: treating      4 bands with npw=     752 for ikpt=   1 by node    0

_setup2: Arith. and geom. avg. npw (full set) are    1503.000    1503.000

================================================================================

     iter   Etot(hartree)      deltaE(h)  residm     vres2
 ETOT  1  -4.9540722990965    -4.954E+00 1.628E-01 1.944E+02

 Cartesian components of stress tensor (hartree/bohr^3)
  sigma(1 1)=  2.89511497E-04  sigma(3 2)=  0.00000000E+00
  sigma(2 2)=  2.89511497E-04  sigma(3 1)=  0.00000000E+00
  sigma(3 3)=  2.89511497E-04  sigma(2 1)=  0.00000000E+00


 scprqt:  WARNING -
  nstep=    1 was not enough SCF cycles to converge;
  maximum residual=  1.628E-01 exceeds tolwfr=  1.000E-14

================================================================================

 ----iterations are completed or convergence reached----

 Mean square residual over all n,k,spin=   1.0849E-01; max=  1.6284E-01
   0.0000  0.0000  0.0000    1  1.62839E-01 kpt; spin; max resid(k); each band:
  1.63E-01 1.01E-01 5.13E-02 1.18E-01
   0.0000  0.0000  0.0000    2  1.62839E-01 kpt; spin; max resid(k); each band:
  1.63E-01 1.01E-01 5.13E-02 1.18E-01
 reduced coordinates (array xred) for    1 atoms
       0.000000000000      0.000000000000      0.000000000000
 rms dE/dt=  0.0000E+00; max dE/dt=  0.0000E+00; dE/dt below (all hartree)
    1       0.000000000000      0.000000000000      0.000000000000

 cartesian coordinates (angstrom) at end:
    1      0.00000000000000     0.00000000000000     0.00000000000000

 cartesian forces (hartree/bohr) at end:
    1     -0.00000000000000    -0.00000000000000    -0.00000000000000
 frms,max,avg= 0.0000000E+00 0.0000000E+00   0.000E+00  0.000E+00  0.000E+00 h/b

 cartesian forces (eV/Angstrom) at end:
    1     -0.00000000000000    -0.00000000000000    -0.00000000000000
 frms,max,avg= 0.0000000E+00 0.0000000E+00   0.000E+00  0.000E+00  0.000E+00 e/A
 length scales= 10.000000000000 10.000000000000 10.000000000000 bohr
              =  5.291772085900  5.291772085900  5.291772085900 angstroms
 Fermi (or HOMO) energy (hartree) =   0.14396   Average Vxc (hartree)=  -0.16259
 Eigenvalues (hartree) for nkpt=   1  k points, SPIN UP:
 kpt#   1, nband=  4, wtk=  1.00000, kpt=  0.0000  0.0000  0.0000 (reduced coord)
  -0.42651  -0.05420  -0.04193   0.14396
 Eigenvalues (hartree) for nkpt=   1  k points, SPIN DOWN:
 kpt#   1, nband=  4, wtk=  1.00000, kpt=  0.0000  0.0000  0.0000 (reduced coord)
  -0.42651  -0.05420  -0.04193   0.14396
 Total charge density [el/Bohr^3]
,     Maximum=    3.5138E-02  at reduced coord.    0.9000    0.9000    0.9333
,Next maximum=    3.5138E-02  at reduced coord.    0.1000    0.9000    0.9333
,     Minimum=    2.7745E-04  at reduced coord.    0.5000    0.5000    0.5000
,Next minimum=    2.8742E-04  at reduced coord.    0.5000    0.5000    0.4667
,  Integrated=    5.0000E+00
 Spin up density      [el/Bohr^3]
,     Maximum=    2.1209E-02  at reduced coord.    0.8667    0.9333    0.9333
,Next maximum=    2.1209E-02  at reduced coord.    0.1333    0.9333    0.9333
,     Minimum=    2.7722E-04  at reduced coord.    0.5000    0.5000    0.5000
,Next minimum=    2.8715E-04  at reduced coord.    0.5000    0.5000    0.4667
,  Integrated=    4.0000E+00
 Spin down density    [el/Bohr^3]
,     Maximum=    1.4139E-02  at reduced coord.    0.9000    0.9000    0.9667
,Next maximum=    1.4139E-02  at reduced coord.    0.1000    0.9000    0.9667
,     Minimum=    2.2916E-07  at reduced coord.    0.5000    0.5000    0.5000
,Next minimum=    2.7004E-07  at reduced coord.    0.5000    0.5000    0.4667
,  Integrated=    1.0000E+00
 Magnetization (spin up - spin down) [el/Bohr^3]
,     Maximum=    8.9085E-03  at reduced coord.    0.8667    0.8667    0.9000
,Next maximum=    8.9085E-03  at reduced coord.    0.1333    0.8667    0.9000
,     Minimum=    2.7699E-04  at reduced coord.    0.5000    0.5000    0.5000
,Next minimum=    2.8688E-04  at reduced coord.    0.5000    0.5000    0.4667
,  Integrated=    3.0000E+00
 Relative magnetization (=zeta, between -1 and 1)
,     Maximum=    9.9850E-01  at reduced coord.    0.5000    0.5000    0.6667
,Next maximum=    9.9850E-01  at reduced coord.    0.5000    0.6667    0.5000
,     Minimum=    1.3971E-01  at reduced coord.    0.1000    0.0000    0.0000
,Next minimum=    1.3971E-01  at reduced coord.    0.9000    0.0000    0.0000

--------------------------------------------------------------------------------
 Components of total free energy (in Hartree) :

    Kinetic energy  =  1.25659592504597E+00
    Hartree energy  =  5.36942447449173E-01
    XC energy       = -9.78124832846594E-01
    Ewald energy    = -3.54662184935089E+00
    PspCore energy  =  1.73973577808835E-01
    Loc. psp. energy= -2.48354475826860E+00
    NL   psp  energy=  8.67071910655819E-02
    >>>>>>>>> Etotal= -4.95407229909652E+00

 Other information on the energy :
    Total energy(eV)= -1.34807163000908E+02 ; Band energy (Ha)=  -8.0519411603E-01
--------------------------------------------------------------------------------

 Cartesian components of stress tensor (hartree/bohr^3)
  sigma(1 1)=  2.89511497E-04  sigma(3 2)=  0.00000000E+00
  sigma(2 2)=  2.89511497E-04  sigma(3 1)=  0.00000000E+00
  sigma(3 3)=  2.89511497E-04  sigma(2 1)=  0.00000000E+00

-Cartesian components of stress tensor (GPa)         [Pressure= -8.5177E+00 GPa]
- sigma(1 1)=  8.51772088E+00  sigma(3 2)=  0.00000000E+00
- sigma(2 2)=  8.51772088E+00  sigma(3 1)=  0.00000000E+00
- sigma(3 3)=  8.51772088E+00  sigma(2 1)=  0.00000000E+00

================================================================================
== DATASET  4 ==================================================================
-   nproc =    1

 Real(R)+Recip(G) space primitive vectors, cartesian coordinates (Bohr,Bohr^-1):
 R(1)= 10.0000000  0.0000000  0.0000000  G(1)=  0.1000000  0.0000000  0.0000000
 R(2)=  0.0000000 10.0000000  0.0000000  G(2)=  0.0000000  0.1000000  0.0000000
 R(3)=  0.0000000  0.0000000 10.0000000  G(3)=  0.0000000  0.0000000  0.1000000
 Unit cell volume ucvol=  1.0000000E+03 bohr^3
 Angles (23,13,12)=  9.00000000E+01  9.00000000E+01  9.00000000E+01 degrees

 getcut: wavevector=  0.0000  0.0000  0.0000  ngfft=  30  30  30
         ecut(hartree)=     10.000   => boxcut(ratio)=   2.10744

--- Pseudopotential description ------------------------------------------------
- pspini: atom type   1  psp file is /home/gonze/ABINIT/ABINITv7.9.3/trunk/7.9.3-private/tests/Psps_for_tests/83bi.psphgh
- pspatm: opening atomic psp file    /home/gonze/ABINIT/ABINITv7.9.3/trunk/7.9.3-private/tests/Psps_for_tests/83bi.psphgh
- Hartwigsen-Goedecker-Hutter psp for Bismuth,  from PRB58, 3641 (1998) paper
- 83.00000   5.00000    980509                znucl, zion, pspdat
    3    1    2    0      2001   0.00000      pspcod,pspxc,lmax,lloc,mmax,r2well
 rloc=   0.6050000
 cc1 =   6.6794370; cc2 =   0.0000000; cc3 =   0.0000000; cc4 =   0.0000000
 rrs =   0.6788580; h11s=   1.3776340; h22s=  -0.5136970; h33s=  -0.4710280
 rrp =   0.7986730; h11p=   0.6555780; h22p=  -0.4029320; h33p=   0.0000000
                    k11p=   0.3053140; k22p=  -0.0231340; k33p=   0.0000000
 rrd =   0.9346830; h11d=   0.3784760; h22d=   0.0000000; h33d=   0.0000000
                    k11d=   0.0292170; k22d=   0.0000000; k33d=   0.0000000
-  Local part computed in reciprocal space.

 pspatm : COMMENT -
  the projectors are not normalized,
  so that the KB energies are not consistent with 
  definition in PRB44, 8503 (1991). 
  However, this does not influence the results obtained hereafter.
 pspatm: epsatm=   34.79471556
         --- l  ekb(1:nproj) -->
             0   -0.901401   -0.217891    1.555038
             1   -0.989901    1.571994
             2    3.344673
 pspatm: atomic psp has been read  and splines computed

--------------------------------------------------------------------------------

P newkpt: treating      4 bands with npw=     752 for ikpt=   1 by node    0
P newkpt: treating      4 bands with npw=     752 for ikpt=   1 by node    0

_setup2: Arith. and geom. avg. npw (full set) are    1503.000    1503.000

================================================================================

     iter   Etot(hartree)      deltaE(h)  residm     vres2
 ETOT  1  -5.0321016180154    -5.032E+00 1.670E-01 3.665E+03

 Cartesian components of stress tensor (hartree/bohr^3)
  sigma(1 1)=  2.85902996E-04  sigma(3 2)=  0.00000000E+00
  sigma(2 2)=  2.85902996E-04  sigma(3 1)=  0.00000000E+00
  sigma(3 3)=  2.85902996E-04  sigma(2 1)=  0.00000000E+00


 scprqt:  WARNING -
  nstep=    1 was not enough SCF cycles to converge;
  maximum residual=  1.670E-01 exceeds tolwfr=  1.000E-14

================================================================================

 ----iterations are completed or convergence reached----

 Mean square residual over all n,k,spin=   1.1317E-01; max=  1.6698E-01
   0.0000  0.0000  0.0000    1  1.66984E-01 kpt; spin; max resid(k); each band:
  1.67E-01 1.14E-01 5.26E-02 1.19E-01
   0.0000  0.0000  0.0000    2  1.66984E-01 kpt; spin; max resid(k); each band:
  1.67E-01 1.14E-01 5.26E-02 1.19E-01
 reduced coordinates (array xred) for    1 atoms
       0.000000000000      0.000000000000      0.000000000000
 rms dE/dt=  0.0000E+00; max dE/dt=  0.0000E+00; dE/dt below (all hartree)
    1       0.000000000000      0.000000000000      0.000000000000

 cartesian coordinates (angstrom) at end:
    1      0.00000000000000     0.00000000000000     0.00000000000000

 cartesian forces (hartree/bohr) at end:
    1     -0.00000000000000    -0.00000000000000    -0.00000000000000
 frms,max,avg= 0.0000000E+00 0.0000000E+00   0.000E+00  0.000E+00  0.000E+00 h/b

 cartesian forces (eV/Angstrom) at end:
    1     -0.00000000000000    -0.00000000000000    -0.00000000000000
 frms,max,avg= 0.0000000E+00 0.0000000E+00   0.000E+00  0.000E+00  0.000E+00 e/A
 length scales= 10.000000000000 10.000000000000 10.000000000000 bohr
              =  5.291772085900  5.291772085900  5.291772085900 angstroms
 Fermi (or HOMO) energy (hartree) =   0.15166   Average Vxc (hartree)=  -0.17280
 Eigenvalues (hartree) for nkpt=   1  k points, SPIN UP:
 kpt#   1, nband=  4, wtk=  1.00000, kpt=  0.0000  0.0000  0.0000 (reduced coord)
  -0.44706  -0.07148  -0.05533   0.15166
 Eigenvalues (hartree) for nkpt=   1  k points, SPIN DOWN:
 kpt#   1, nband=  4, wtk=  1.00000, kpt=  0.0000  0.0000  0.0000 (reduced coord)
  -0.44706  -0.07148  -0.05533   0.15166
 Total charge density [el/Bohr^3]
,     Maximum=    3.5735E-02  at reduced coord.    0.9000    0.9000    0.9333
,Next maximum=    3.5735E-02  at reduced coord.    0.1000    0.9000    0.9333
,     Minimum=    2.5984E-04  at reduced coord.    0.5000    0.5000    0.5000
,Next minimum=    2.6995E-04  at reduced coord.    0.5000    0.5000    0.4667
,  Integrated=    5.0000E+00
 Spin up density      [el/Bohr^3]
,     Maximum=    2.1766E-02  at reduced coord.    0.8667    0.9333    0.9333
,Next maximum=    2.1766E-02  at reduced coord.    0.1333    0.9333    0.9333
,     Minimum=    2.5957E-04  at reduced coord.    0.5000    0.5000    0.5000
,Next minimum=    2.6963E-04  at reduced coord.    0.5000    0.5000    0.4667
,  Integrated=    4.0000E+00
 Spin down density    [el/Bohr^3]
,     Maximum=    1.4205E-02  at reduced coord.    0.0000    0.8667    0.9333
,Next maximum=    1.4205E-02  at reduced coord.    0.0000    0.1333    0.9333
,     Minimum=    2.6592E-07  at reduced coord.    0.5000    0.5000    0.5000
,Next minimum=    3.1960E-07  at reduced coord.    0.5000    0.5000    0.4667
,  Integrated=    1.0000E+00
 Magnetization (spin up - spin down) [el/Bohr^3]
,     Maximum=    9.4910E-03  at reduced coord.    0.8667    0.8667    0.9000
,Next maximum=    9.4910E-03  at reduced coord.    0.1333    0.8667    0.9000
,     Minimum=    2.5930E-04  at reduced coord.    0.5000    0.5000    0.5000
,Next minimum=    2.6931E-04  at reduced coord.    0.5000    0.5000    0.4667
,  Integrated=    3.0000E+00
 Relative magnetization (=zeta, between -1 and 1)
,     Maximum=    9.9828E-01  at reduced coord.    0.5000    0.5000    0.7000
,Next maximum=    9.9828E-01  at reduced coord.    0.5000    0.7000    0.5000
,     Minimum=    1.4324E-01  at reduced coord.    0.1000    0.0000    0.0000
,Next minimum=    1.4324E-01  at reduced coord.    0.9000    0.0000    0.0000

--------------------------------------------------------------------------------
 Components of total free energy (in Hartree) :

    Kinetic energy  =  1.29296926475480E+00
    Hartree energy  =  5.73148764969563E-01
    XC energy       = -1.05034723565719E+00
    Ewald energy    = -3.54662184935089E+00
    PspCore energy  =  1.73973577808835E-01
    Loc. psp. energy= -2.56109115715587E+00
    NL   psp  energy=  8.58670166153952E-02
    >>>>>>>>> Etotal= -5.03210161801535E+00

 Other information on the energy :
    Total energy(eV)= -1.36930448750343E+02 ; Band energy (Ha)=  -8.6925704184E-01
--------------------------------------------------------------------------------

 Cartesian components of stress tensor (hartree/bohr^3)
  sigma(1 1)=  2.85902996E-04  sigma(3 2)=  0.00000000E+00
  sigma(2 2)=  2.85902996E-04  sigma(3 1)=  0.00000000E+00
  sigma(3 3)=  2.85902996E-04  sigma(2 1)=  0.00000000E+00

-Cartesian components of stress tensor (GPa)         [Pressure= -8.4116E+00 GPa]
- sigma(1 1)=  8.41155514E+00  sigma(3 2)=  0.00000000E+00
- sigma(2 2)=  8.41155514E+00  sigma(3 1)=  0.00000000E+00
- sigma(3 3)=  8.41155514E+00  sigma(2 1)=  0.00000000E+00

================================================================================
== DATASET  5 ==================================================================
-   nproc =    1

 Real(R)+Recip(G) space primitive vectors, cartesian coordinates (Bohr,Bohr^-1):
 R(1)= 10.0000000  0.0000000  0.0000000  G(1)=  0.1000000  0.0000000  0.0000000
 R(2)=  0.0000000 10.0000000  0.0000000  G(2)=  0.0000000  0.1000000  0.0000000
 R(3)=  0.0000000  0.0000000 10.0000000  G(3)=  0.0000000  0.0000000  0.1000000
 Unit cell volume ucvol=  1.0000000E+03 bohr^3
 Angles (23,13,12)=  9.00000000E+01  9.00000000E+01  9.00000000E+01 degrees

 getcut: wavevector=  0.0000  0.0000  0.0000  ngfft=  30  30  30
         ecut(hartree)=     10.000   => boxcut(ratio)=   2.10744

--- Pseudopotential description ------------------------------------------------
- pspini: atom type   1  psp file is /home/gonze/ABINIT/ABINITv7.9.3/trunk/7.9.3-private/tests/Psps_for_tests/83bi.psphgh
- pspatm: opening atomic psp file    /home/gonze/ABINIT/ABINITv7.9.3/trunk/7.9.3-private/tests/Psps_for_tests/83bi.psphgh
- Hartwigsen-Goedecker-Hutter psp for Bismuth,  from PRB58, 3641 (1998) paper
- 83.00000   5.00000    980509                znucl, zion, pspdat
    3    1    2    0      2001   0.00000      pspcod,pspxc,lmax,lloc,mmax,r2well
 rloc=   0.6050000
 cc1 =   6.6794370; cc2 =   0.0000000; cc3 =   0.0000000; cc4 =   0.0000000
 rrs =   0.6788580; h11s=   1.3776340; h22s=  -0.5136970; h33s=  -0.4710280
 rrp =   0.7986730; h11p=   0.6555780; h22p=  -0.4029320; h33p=   0.0000000
                    k11p=   0.3053140; k22p=  -0.0231340; k33p=   0.0000000
 rrd =   0.9346830; h11d=   0.3784760; h22d=   0.0000000; h33d=   0.0000000
                    k11d=   0.0292170; k22d=   0.0000000; k33d=   0.0000000
-  Local part computed in reciprocal space.

 pspatm : COMMENT -
  the projectors are not normalized,
  so that the KB energies are not consistent with 
  definition in PRB44, 8503 (1991). 
  However, this does not influence the results obtained hereafter.
 pspatm: epsatm=   34.79471556
         --- l  ekb(1:nproj) -->
             0   -0.901401   -0.217891    1.555038
             1   -0.989901    1.571994
             2    3.344673
 pspatm: atomic psp has been read  and splines computed

--------------------------------------------------------------------------------

P newkpt: treating      4 bands with npw=     752 for ikpt=   1 by node    0
P newkpt: treating      4 bands with npw=     752 for ikpt=   1 by node    0

_setup2: Arith. and geom. avg. npw (full set) are    1503.000    1503.000

================================================================================

     iter   Etot(hartree)      deltaE(h)  residm     vres2
 ETOT  1  -5.0289675007836    -5.029E+00 1.663E-01 7.050E+03

 Cartesian components of stress tensor (hartree/bohr^3)
  sigma(1 1)=  2.88152278E-04  sigma(3 2)=  0.00000000E+00
  sigma(2 2)=  2.88152278E-04  sigma(3 1)=  0.00000000E+00
  sigma(3 3)=  2.88152278E-04  sigma(2 1)=  0.00000000E+00


 scprqt:  WARNING -
  nstep=    1 was not enough SCF cycles to converge;
  maximum residual=  1.663E-01 exceeds tolwfr=  1.000E-14

================================================================================

 ----iterations are completed or convergence reached----

 Mean square residual over all n,k,spin=   1.1160E-01; max=  1.6635E-01
   0.0000  0.0000  0.0000    1  1.66345E-01 kpt; spin; max resid(k); each band:
  1.66E-01 1.08E-01 5.26E-02 1.19E-01
   0.0000  0.0000  0.0000    2  1.66345E-01 kpt; spin; max resid(k); each band:
  1.66E-01 1.08E-01 5.26E-02 1.19E-01
 reduced coordinates (array xred) for    1 atoms
       0.000000000000      0.000000000000      0.000000000000
 rms dE/dt=  0.0000E+00; max dE/dt=  0.0000E+00; dE/dt below (all hartree)
    1       0.000000000000      0.000000000000      0.000000000000

 cartesian coordinates (angstrom) at end:
    1      0.00000000000000     0.00000000000000     0.00000000000000

 cartesian forces (hartree/bohr) at end:
    1     -0.00000000000000    -0.00000000000000    -0.00000000000000
 frms,max,avg= 0.0000000E+00 0.0000000E+00   0.000E+00  0.000E+00  0.000E+00 h/b

 cartesian forces (eV/Angstrom) at end:
    1     -0.00000000000000    -0.00000000000000    -0.00000000000000
 frms,max,avg= 0.0000000E+00 0.0000000E+00   0.000E+00  0.000E+00  0.000E+00 e/A
 length scales= 10.000000000000 10.000000000000 10.000000000000 bohr
              =  5.291772085900  5.291772085900  5.291772085900 angstroms
 Fermi (or HOMO) energy (hartree) =   0.13757   Average Vxc (hartree)=  -0.18360
 Eigenvalues (hartree) for nkpt=   1  k points, SPIN UP:
 kpt#   1, nband=  4, wtk=  1.00000, kpt=  0.0000  0.0000  0.0000 (reduced coord)
  -0.44853  -0.07145  -0.05753   0.13757
 Eigenvalues (hartree) for nkpt=   1  k points, SPIN DOWN:
 kpt#   1, nband=  4, wtk=  1.00000, kpt=  0.0000  0.0000  0.0000 (reduced coord)
  -0.44853  -0.07145  -0.05753   0.13757
 Total charge density [el/Bohr^3]
,     Maximum=    3.5675E-02  at reduced coord.    0.9000    0.9000    0.9333
,Next maximum=    3.5675E-02  at reduced coord.    0.1000    0.9000    0.9333
,     Minimum=    1.9941E-04  at reduced coord.    0.5000    0.5000    0.5000
,Next minimum=    2.0850E-04  at reduced coord.    0.5000    0.5000    0.4667
,  Integrated=    5.0000E+00
 Spin up density      [el/Bohr^3]
,     Maximum=    2.1642E-02  at reduced coord.    0.8667    0.9333    0.9333
,Next maximum=    2.1642E-02  at reduced coord.    0.1333    0.9333    0.9333
,     Minimum=    1.9921E-04  at reduced coord.    0.5000    0.5000    0.5000
,Next minimum=    2.0824E-04  at reduced coord.    0.5000    0.5000    0.4667
,  Integrated=    4.0000E+00
 Spin down density    [el/Bohr^3]
,     Maximum=    1.4253E-02  at reduced coord.    0.9000    0.9000    0.9667
,Next maximum=    1.4253E-02  at reduced coord.    0.1000    0.9000    0.9667
,     Minimum=    1.9370E-07  at reduced coord.    0.5000    0.5000    0.5000
,Next minimum=    2.5194E-07  at reduced coord.    0.5000    0.5000    0.4667
,  Integrated=    1.0000E+00
 Magnetization (spin up - spin down) [el/Bohr^3]
,     Maximum=    9.2448E-03  at reduced coord.    0.8667    0.8667    0.9000
,Next maximum=    9.2448E-03  at reduced coord.    0.1333    0.8667    0.9000
,     Minimum=    1.9902E-04  at reduced coord.    0.5000    0.5000    0.5000
,Next minimum=    2.0799E-04  at reduced coord.    0.5000    0.5000    0.4667
,  Integrated=    3.0000E+00
 Relative magnetization (=zeta, between -1 and 1)
,     Maximum=    9.9807E-01  at reduced coord.    0.5000    0.5000    0.7000
,Next maximum=    9.9807E-01  at reduced coord.    0.5000    0.7000    0.5000
,     Minimum=    1.4232E-01  at reduced coord.    0.1000    0.0000    0.0000
,Next minimum=    1.4232E-01  at reduced coord.    0.9000    0.0000    0.0000

--------------------------------------------------------------------------------
 Components of total free energy (in Hartree) :

    Kinetic energy  =  1.27858644639407E+00
    Hartree energy  =  5.58832204320596E-01
    XC energy       = -1.04812057561316E+00
    Ewald energy    = -3.54662184935089E+00
    PspCore energy  =  1.73973577808835E-01
    Loc. psp. energy= -2.53256690614605E+00
    NL   psp  energy=  8.69496018029588E-02
    >>>>>>>>> Etotal= -5.02896750078365E+00

 Other information on the energy :
    Total energy(eV)= -1.36845165083289E+02 ; Band energy (Ha)=  -8.8846298937E-01
--------------------------------------------------------------------------------

 Cartesian components of stress tensor (hartree/bohr^3)
  sigma(1 1)=  2.88152278E-04  sigma(3 2)=  0.00000000E+00
  sigma(2 2)=  2.88152278E-04  sigma(3 1)=  0.00000000E+00
  sigma(3 3)=  2.88152278E-04  sigma(2 1)=  0.00000000E+00

-Cartesian components of stress tensor (GPa)         [Pressure= -8.4777E+00 GPa]
- sigma(1 1)=  8.47773128E+00  sigma(3 2)=  0.00000000E+00
- sigma(2 2)=  8.47773128E+00  sigma(3 1)=  0.00000000E+00
- sigma(3 3)=  8.47773128E+00  sigma(2 1)=  0.00000000E+00

================================================================================
== DATASET  6 ==================================================================
-   nproc =    1

 Real(R)+Recip(G) space primitive vectors, cartesian coordinates (Bohr,Bohr^-1):
 R(1)= 10.0000000  0.0000000  0.0000000  G(1)=  0.1000000  0.0000000  0.0000000
 R(2)=  0.0000000 10.0000000  0.0000000  G(2)=  0.0000000  0.1000000  0.0000000
 R(3)=  0.0000000  0.0000000 10.0000000  G(3)=  0.0000000  0.0000000  0.1000000
 Unit cell volume ucvol=  1.0000000E+03 bohr^3
 Angles (23,13,12)=  9.00000000E+01  9.00000000E+01  9.00000000E+01 degrees

 getcut: wavevector=  0.0000  0.0000  0.0000  ngfft=  30  30  30
         ecut(hartree)=     10.000   => boxcut(ratio)=   2.10744

--- Pseudopotential description ------------------------------------------------
- pspini: atom type   1  psp file is /home/gonze/ABINIT/ABINITv7.9.3/trunk/7.9.3-private/tests/Psps_for_tests/83bi.psphgh
- pspatm: opening atomic psp file    /home/gonze/ABINIT/ABINITv7.9.3/trunk/7.9.3-private/tests/Psps_for_tests/83bi.psphgh
- Hartwigsen-Goedecker-Hutter psp for Bismuth,  from PRB58, 3641 (1998) paper
- 83.00000   5.00000    980509                znucl, zion, pspdat
    3    1    2    0      2001   0.00000      pspcod,pspxc,lmax,lloc,mmax,r2well
 rloc=   0.6050000
 cc1 =   6.6794370; cc2 =   0.0000000; cc3 =   0.0000000; cc4 =   0.0000000
 rrs =   0.6788580; h11s=   1.3776340; h22s=  -0.5136970; h33s=  -0.4710280
 rrp =   0.7986730; h11p=   0.6555780; h22p=  -0.4029320; h33p=   0.0000000
                    k11p=   0.3053140; k22p=  -0.0231340; k33p=   0.0000000
 rrd =   0.9346830; h11d=   0.3784760; h22d=   0.0000000; h33d=   0.0000000
                    k11d=   0.0292170; k22d=   0.0000000; k33d=   0.0000000
-  Local part computed in reciprocal space.

 pspatm : COMMENT -
  the projectors are not normalized,
  so that the KB energies are not consistent with 
  definition in PRB44, 8503 (1991). 
  However, this does not influence the results obtained hereafter.
 pspatm: epsatm=   34.79471556
         --- l  ekb(1:nproj) -->
             0   -0.901401   -0.217891    1.555038
             1   -0.989901    1.571994
             2    3.344673
 pspatm: atomic psp has been read  and splines computed

--------------------------------------------------------------------------------

P newkpt: treating      4 bands with npw=     752 for ikpt=   1 by node    0
P newkpt: treating      4 bands with npw=     752 for ikpt=   1 by node    0

_setup2: Arith. and geom. avg. npw (full set) are    1503.000    1503.000

================================================================================

     iter   Etot(hartree)      deltaE(h)  residm     vres2
 ETOT  1  -5.0387571032714    -5.039E+00 1.668E-01 6.822E+03

 Cartesian components of stress tensor (hartree/bohr^3)
  sigma(1 1)=  2.85696930E-04  sigma(3 2)=  0.00000000E+00
  sigma(2 2)=  2.85696930E-04  sigma(3 1)=  0.00000000E+00
  sigma(3 3)=  2.85696930E-04  sigma(2 1)=  0.00000000E+00


 scprqt:  WARNING -
  nstep=    1 was not enough SCF cycles to converge;
  maximum residual=  1.668E-01 exceeds tolwfr=  1.000E-14

================================================================================

 ----iterations are completed or convergence reached----

 Mean square residual over all n,k,spin=   1.1238E-01; max=  1.6682E-01
   0.0000  0.0000  0.0000    1  1.66820E-01 kpt; spin; max resid(k); each band:
  1.67E-01 1.10E-01 5.26E-02 1.20E-01
   0.0000  0.0000  0.0000    2  1.66820E-01 kpt; spin; max resid(k); each band:
  1.67E-01 1.10E-01 5.26E-02 1.20E-01
 reduced coordinates (array xred) for    1 atoms
       0.000000000000      0.000000000000      0.000000000000
 rms dE/dt=  0.0000E+00; max dE/dt=  0.0000E+00; dE/dt below (all hartree)
    1       0.000000000000      0.000000000000      0.000000000000

 cartesian coordinates (angstrom) at end:
    1      0.00000000000000     0.00000000000000     0.00000000000000

 cartesian forces (hartree/bohr) at end:
    1     -0.00000000000000    -0.00000000000000    -0.00000000000000
 frms,max,avg= 0.0000000E+00 0.0000000E+00   0.000E+00  0.000E+00  0.000E+00 h/b

 cartesian forces (eV/Angstrom) at end:
    1     -0.00000000000000    -0.00000000000000    -0.00000000000000
 frms,max,avg= 0.0000000E+00 0.0000000E+00   0.000E+00  0.000E+00  0.000E+00 e/A
 length scales= 10.000000000000 10.000000000000 10.000000000000 bohr
              =  5.291772085900  5.291772085900  5.291772085900 angstroms
 Fermi (or HOMO) energy (hartree) =   0.14039   Average Vxc (hartree)=  -0.19430
 Eigenvalues (hartree) for nkpt=   1  k points, SPIN UP:
 kpt#   1, nband=  4, wtk=  1.00000, kpt=  0.0000  0.0000  0.0000 (reduced coord)
  -0.45060  -0.07327  -0.05866   0.14039
 Eigenvalues (hartree) for nkpt=   1  k points, SPIN DOWN:
 kpt#   1, nband=  4, wtk=  1.00000, kpt=  0.0000  0.0000  0.0000 (reduced coord)
  -0.45060  -0.07327  -0.05866   0.14039
 Total charge density [el/Bohr^3]
,     Maximum=    3.5780E-02  at reduced coord.    0.9000    0.9000    0.9333
,Next maximum=    3.5780E-02  at reduced coord.    0.1000    0.9000    0.9333
,     Minimum=    2.0800E-04  at reduced coord.    0.5000    0.5000    0.5000
,Next minimum=    2.1733E-04  at reduced coord.    0.5000    0.5000    0.4667
,  Integrated=    5.0000E+00
 Spin up density      [el/Bohr^3]
,     Maximum=    2.1731E-02  at reduced coord.    0.8667    0.9333    0.9333
,Next maximum=    2.1731E-02  at reduced coord.    0.1333    0.9333    0.9333
,     Minimum=    2.0779E-04  at reduced coord.    0.5000    0.5000    0.5000
,Next minimum=    2.1706E-04  at reduced coord.    0.5000    0.5000    0.4667
,  Integrated=    4.0000E+00
 Spin down density    [el/Bohr^3]
,     Maximum=    1.4273E-02  at reduced coord.    0.0000    0.8667    0.9333
,Next maximum=    1.4273E-02  at reduced coord.    0.0000    0.1333    0.9333
,     Minimum=    2.1551E-07  at reduced coord.    0.5000    0.5000    0.5000
,Next minimum=    2.7216E-07  at reduced coord.    0.5000    0.5000    0.4667
,  Integrated=    1.0000E+00
 Magnetization (spin up - spin down) [el/Bohr^3]
,     Maximum=    9.3245E-03  at reduced coord.    0.8667    0.8667    0.9000
,Next maximum=    9.3245E-03  at reduced coord.    0.1333    0.8667    0.9000
,     Minimum=    2.0757E-04  at reduced coord.    0.5000    0.5000    0.5000
,Next minimum=    2.1679E-04  at reduced coord.    0.5000    0.5000    0.4667
,  Integrated=    3.0000E+00
 Relative magnetization (=zeta, between -1 and 1)
,     Maximum=    9.9811E-01  at reduced coord.    0.5000    0.5000    0.7000
,Next maximum=    9.9811E-01  at reduced coord.    0.5000    0.7000    0.5000
,     Minimum=    1.4255E-01  at reduced coord.    0.1000    0.0000    0.0000
,Next minimum=    1.4255E-01  at reduced coord.    0.9000    0.0000    0.0000

--------------------------------------------------------------------------------
 Components of total free energy (in Hartree) :

    Kinetic energy  =  1.28445006833769E+00
    Hartree energy  =  5.64262286180302E-01
    XC energy       = -1.05727278514595E+00
    Ewald energy    = -3.54662184935089E+00
    PspCore energy  =  1.73973577808835E-01
    Loc. psp. energy= -2.54433981949374E+00
    NL   psp  energy=  8.67914183923200E-02
    >>>>>>>>> Etotal= -5.03875710327142E+00

 Other information on the energy :
    Total energy(eV)= -1.37111553714420E+02 ; Band energy (Ha)=  -8.9274648316E-01
--------------------------------------------------------------------------------

 Cartesian components of stress tensor (hartree/bohr^3)
  sigma(1 1)=  2.85696930E-04  sigma(3 2)=  0.00000000E+00
  sigma(2 2)=  2.85696930E-04  sigma(3 1)=  0.00000000E+00
  sigma(3 3)=  2.85696930E-04  sigma(2 1)=  0.00000000E+00

-Cartesian components of stress tensor (GPa)         [Pressure= -8.4055E+00 GPa]
- sigma(1 1)=  8.40549246E+00  sigma(3 2)=  0.00000000E+00
- sigma(2 2)=  8.40549246E+00  sigma(3 1)=  0.00000000E+00
- sigma(3 3)=  8.40549246E+00  sigma(2 1)=  0.00000000E+00

================================================================================
== DATASET  7 ==================================================================
-   nproc =    1

 Real(R)+Recip(G) space primitive vectors, cartesian coordinates (Bohr,Bohr^-1):
 R(1)= 10.0000000  0.0000000  0.0000000  G(1)=  0.1000000  0.0000000  0.0000000
 R(2)=  0.0000000 10.0000000  0.0000000  G(2)=  0.0000000  0.1000000  0.0000000
 R(3)=  0.0000000  0.0000000 10.0000000  G(3)=  0.0000000  0.0000000  0.1000000
 Unit cell volume ucvol=  1.0000000E+03 bohr^3
 Angles (23,13,12)=  9.00000000E+01  9.00000000E+01  9.00000000E+01 degrees

 getcut: wavevector=  0.0000  0.0000  0.0000  ngfft=  30  30  30
         ecut(hartree)=     10.000   => boxcut(ratio)=   2.10744

--- Pseudopotential description ------------------------------------------------
- pspini: atom type   1  psp file is /home/gonze/ABINIT/ABINITv7.9.3/trunk/7.9.3-private/tests/Psps_for_tests/83bi.psphgh
- pspatm: opening atomic psp file    /home/gonze/ABINIT/ABINITv7.9.3/trunk/7.9.3-private/tests/Psps_for_tests/83bi.psphgh
- Hartwigsen-Goedecker-Hutter psp for Bismuth,  from PRB58, 3641 (1998) paper
- 83.00000   5.00000    980509                znucl, zion, pspdat
    3    1    2    0      2001   0.00000      pspcod,pspxc,lmax,lloc,mmax,r2well
 rloc=   0.6050000
 cc1 =   6.6794370; cc2 =   0.0000000; cc3 =   0.0000000; cc4 =   0.0000000
 rrs =   0.6788580; h11s=   1.3776340; h22s=  -0.5136970; h33s=  -0.4710280
 rrp =   0.7986730; h11p=   0.6555780; h22p=  -0.4029320; h33p=   0.0000000
                    k11p=   0.3053140; k22p=  -0.0231340; k33p=   0.0000000
 rrd =   0.9346830; h11d=   0.3784760; h22d=   0.0000000; h33d=   0.0000000
                    k11d=   0.0292170; k22d=   0.0000000; k33d=   0.0000000
-  Local part computed in reciprocal space.

 pspatm : COMMENT -
  the projectors are not normalized,
  so that the KB energies are not consistent with 
  definition in PRB44, 8503 (1991). 
  However, this does not influence the results obtained hereafter.
 pspatm: epsatm=   34.79471556
         --- l  ekb(1:nproj) -->
             0   -0.901401   -0.217891    1.555038
             1   -0.989901    1.571994
             2    3.344673
 pspatm: atomic psp has been read  and splines computed

--------------------------------------------------------------------------------

P newkpt: treating      4 bands with npw=     752 for ikpt=   1 by node    0
P newkpt: treating      4 bands with npw=     752 for ikpt=   1 by node    0

_setup2: Arith. and geom. avg. npw (full set) are    1503.000    1503.000

================================================================================

     iter   Etot(hartree)      deltaE(h)  residm     vres2
 ETOT  1  -5.0454572375129    -5.045E+00 1.733E-01 2.484E+04

 Cartesian components of stress tensor (hartree/bohr^3)
  sigma(1 1)=  2.87486142E-04  sigma(3 2)=  0.00000000E+00
  sigma(2 2)=  2.87486142E-04  sigma(3 1)=  0.00000000E+00
  sigma(3 3)=  2.87486142E-04  sigma(2 1)=  0.00000000E+00


 scprqt:  WARNING -
  nstep=    1 was not enough SCF cycles to converge;
  maximum residual=  1.733E-01 exceeds tolwfr=  1.000E-14

================================================================================

 ----iterations are completed or convergence reached----

 Mean square residual over all n,k,spin=   1.1620E-01; max=  1.7330E-01
[...]
                    k11p=   0.3053140; k22p=  -0.0231340; k33p=   0.0000000
 rrd =   0.9346830; h11d=   0.3784760; h22d=   0.0000000; h33d=   0.0000000
                    k11d=   0.0292170; k22d=   0.0000000; k33d=   0.0000000
-  Local part computed in reciprocal space.

 pspatm : COMMENT -
  the projectors are not normalized,
  so that the KB energies are not consistent with 
  definition in PRB44, 8503 (1991). 
  However, this does not influence the results obtained hereafter.
 pspatm: epsatm=   34.79471556
         --- l  ekb(1:nproj) -->
             0   -0.901401   -0.217891    1.555038
             1   -0.989901    1.571994
             2    3.344673
 pspatm: atomic psp has been read  and splines computed

--------------------------------------------------------------------------------

P newkpt: treating      4 bands with npw=     752 for ikpt=   1 by node    0
P newkpt: treating      4 bands with npw=     752 for ikpt=   1 by node    0

_setup2: Arith. and geom. avg. npw (full set) are    1503.000    1503.000

================================================================================

     iter   Etot(hartree)      deltaE(h)  residm     vres2
 ETOT  1  -4.7604333140643    -4.760E+00 1.518E-01 1.217E+03

 Cartesian components of stress tensor (hartree/bohr^3)
  sigma(1 1)=  2.87217228E-04  sigma(3 2)=  0.00000000E+00
  sigma(2 2)=  2.87217228E-04  sigma(3 1)=  0.00000000E+00
  sigma(3 3)=  2.87217228E-04  sigma(2 1)=  0.00000000E+00


 scprqt:  WARNING -
  nstep=    1 was not enough SCF cycles to converge;
  maximum residual=  1.518E-01 exceeds tolwfr=  1.000E-14

================================================================================

 ----iterations are completed or convergence reached----

 Mean square residual over all n,k,spin=   9.9297E-02; max=  1.5183E-01
   0.0000  0.0000  0.0000    1  1.51827E-01 kpt; spin; max resid(k); each band:
  1.52E-01 8.73E-02 4.91E-02 1.09E-01
   0.0000  0.0000  0.0000    2  1.51827E-01 kpt; spin; max resid(k); each band:
  1.52E-01 8.73E-02 4.91E-02 1.09E-01
 reduced coordinates (array xred) for    1 atoms
       0.000000000000      0.000000000000      0.000000000000
 rms dE/dt=  0.0000E+00; max dE/dt=  0.0000E+00; dE/dt below (all hartree)
    1       0.000000000000      0.000000000000      0.000000000000

 cartesian coordinates (angstrom) at end:
    1      0.00000000000000     0.00000000000000     0.00000000000000

 cartesian forces (hartree/bohr) at end:
    1     -0.00000000000000    -0.00000000000000    -0.00000000000000
 frms,max,avg= 0.0000000E+00 0.0000000E+00   0.000E+00  0.000E+00  0.000E+00 h/b

 cartesian forces (eV/Angstrom) at end:
    1     -0.00000000000000    -0.00000000000000    -0.00000000000000
 frms,max,avg= 0.0000000E+00 0.0000000E+00   0.000E+00  0.000E+00  0.000E+00 e/A
 length scales= 10.000000000000 10.000000000000 10.000000000000 bohr
              =  5.291772085900  5.291772085900  5.291772085900 angstroms
 Fermi (or HOMO) energy (hartree) =   0.16727   Average Vxc (hartree)=  -0.15302
 Eigenvalues (hartree) for nkpt=   1  k points, SPIN UP:
 kpt#   1, nband=  4, wtk=  1.00000, kpt=  0.0000  0.0000  0.0000 (reduced coord)
  -0.36244  -0.00991   0.00003   0.16727
 Eigenvalues (hartree) for nkpt=   1  k points, SPIN DOWN:
 kpt#   1, nband=  4, wtk=  1.00000, kpt=  0.0000  0.0000  0.0000 (reduced coord)
  -0.36244  -0.00991   0.00003   0.16727
 Total charge density [el/Bohr^3]
,     Maximum=    3.3195E-02  at reduced coord.    0.9000    0.9000    0.9333
,Next maximum=    3.3195E-02  at reduced coord.    0.1000    0.9000    0.9333
,     Minimum=    3.8298E-04  at reduced coord.    0.5000    0.5000    0.5000
,Next minimum=    3.9249E-04  at reduced coord.    0.5000    0.5000    0.4667
,  Integrated=    5.0000E+00
 Spin up density      [el/Bohr^3]
,     Maximum=    1.9913E-02  at reduced coord.    0.8667    0.9333    0.9333
,Next maximum=    1.9913E-02  at reduced coord.    0.1333    0.9333    0.9333
,     Minimum=    3.8283E-04  at reduced coord.    0.5000    0.5000    0.5000
,Next minimum=    3.9231E-04  at reduced coord.    0.5000    0.5000    0.4667
,  Integrated=    4.0000E+00
 Spin down density    [el/Bohr^3]
,     Maximum=    1.3466E-02  at reduced coord.    0.0000    0.8667    0.9333
,Next maximum=    1.3466E-02  at reduced coord.    0.0000    0.1333    0.9333
,     Minimum=    1.5101E-07  at reduced coord.    0.5000    0.5000    0.5000
,Next minimum=    1.7766E-07  at reduced coord.    0.5000    0.5000    0.4667
,  Integrated=    1.0000E+00
 Magnetization (spin up - spin down) [el/Bohr^3]
,     Maximum=    8.2474E-03  at reduced coord.    0.8667    0.8667    0.9000
,Next maximum=    8.2474E-03  at reduced coord.    0.1333    0.8667    0.9000
,     Minimum=    3.8268E-04  at reduced coord.    0.5000    0.5000    0.5000
,Next minimum=    3.9213E-04  at reduced coord.    0.5000    0.5000    0.4667
,  Integrated=    3.0000E+00
 Relative magnetization (=zeta, between -1 and 1)
,     Maximum=    9.9921E-01  at reduced coord.    0.5000    0.5000    0.5000
,Next maximum=    9.9909E-01  at reduced coord.    0.5000    0.5000    0.5333
,     Minimum=    1.3906E-01  at reduced coord.    0.1000    0.0000    0.0000
,Next minimum=    1.3906E-01  at reduced coord.    0.9000    0.0000    0.0000

--------------------------------------------------------------------------------
 Components of total free energy (in Hartree) :

    Kinetic energy  =  1.20630295381478E+00
    Hartree energy  =  4.93547474786537E-01
    XC energy       = -8.00822556130223E-01
    Ewald energy    = -3.54662184935089E+00
    PspCore energy  =  1.73973577808835E-01
    Loc. psp. energy= -2.36798927438894E+00
    NL   psp  energy=  8.11763593956072E-02
    >>>>>>>>> Etotal= -4.76043331406430E+00

 Other information on the energy :
    Total energy(eV)= -1.29537978248936E+02 ; Band energy (Ha)=  -5.6749540663E-01
--------------------------------------------------------------------------------

 Cartesian components of stress tensor (hartree/bohr^3)
  sigma(1 1)=  2.87217228E-04  sigma(3 2)=  0.00000000E+00
  sigma(2 2)=  2.87217228E-04  sigma(3 1)=  0.00000000E+00
  sigma(3 3)=  2.87217228E-04  sigma(2 1)=  0.00000000E+00

-Cartesian components of stress tensor (GPa)         [Pressure= -8.4502E+00 GPa]
- sigma(1 1)=  8.45022117E+00  sigma(3 2)=  0.00000000E+00
- sigma(2 2)=  8.45022117E+00  sigma(3 1)=  0.00000000E+00
- sigma(3 3)=  8.45022117E+00  sigma(2 1)=  0.00000000E+00

== END DATASET(S) ==============================================================
================================================================================
  
 -outvars: echo values of variables after computation  --------
            acell      1.0000000000E+01  1.0000000000E+01  1.0000000000E+01 Bohr
              amu      2.08980370E+02
           diemac      2.00000000E+00
           diemix      5.00000000E-01
             ecut      1.00000000E+01 Hartree
           etotal1    -5.0691074645E+00
           etotal2    -4.9717733782E+00
           etotal3    -4.9540722991E+00
           etotal4    -5.0321016180E+00
           etotal5    -5.0289675008E+00
           etotal6    -5.0387571033E+00
           etotal7    -5.0454572375E+00
           etotal10   -4.7916185196E+00
           etotal11   -4.7657845909E+00
           etotal12   -4.7718694150E+00
           etotal13   -4.7182844619E+00
           etotal14   -5.0465708908E+00
           etotal15   -4.9848628691E+00
           etotal16   -4.9976547248E+00
           etotal17   -4.6968268612E+00
           etotal18   -4.7997221136E+00
           etotal19   -4.7958111700E+00
           etotal20   -4.8475633099E+00
           etotal21   -4.7376850252E+00
           etotal22   -4.7604333141E+00
            fcart1    -0.0000000000E+00 -0.0000000000E+00 -0.0000000000E+00
            fcart2    -0.0000000000E+00 -0.0000000000E+00 -0.0000000000E+00
            fcart3    -0.0000000000E+00 -0.0000000000E+00 -0.0000000000E+00
            fcart4    -0.0000000000E+00 -0.0000000000E+00 -0.0000000000E+00
            fcart5    -0.0000000000E+00 -0.0000000000E+00 -0.0000000000E+00
            fcart6    -0.0000000000E+00 -0.0000000000E+00 -0.0000000000E+00
            fcart7    -0.0000000000E+00 -0.0000000000E+00 -0.0000000000E+00
            fcart10   -0.0000000000E+00 -0.0000000000E+00 -0.0000000000E+00
            fcart11   -0.0000000000E+00 -0.0000000000E+00 -0.0000000000E+00
            fcart12   -0.0000000000E+00 -0.0000000000E+00 -0.0000000000E+00
            fcart13   -0.0000000000E+00 -0.0000000000E+00 -0.0000000000E+00
            fcart14   -0.0000000000E+00 -0.0000000000E+00 -0.0000000000E+00
            fcart15   -0.0000000000E+00 -0.0000000000E+00 -0.0000000000E+00
            fcart16   -0.0000000000E+00 -0.0000000000E+00 -0.0000000000E+00
            fcart17   -0.0000000000E+00 -0.0000000000E+00 -0.0000000000E+00
            fcart18   -0.0000000000E+00 -0.0000000000E+00 -0.0000000000E+00
            fcart19   -0.0000000000E+00 -0.0000000000E+00 -0.0000000000E+00
            fcart20   -0.0000000000E+00 -0.0000000000E+00 -0.0000000000E+00
            fcart21   -0.0000000000E+00 -0.0000000000E+00 -0.0000000000E+00
            fcart22   -0.0000000000E+00 -0.0000000000E+00 -0.0000000000E+00
-          fftalg         112
           istwfk        2
              ixc1    -106138
              ixc2    -125131
              ixc3    -126131
              ixc4       -161
              ixc5       -162
              ixc6       -163
              ixc7       -164
              ixc10      -167
              ixc11      -168
              ixc12      -169
              ixc13      -172
              ixc14      -173
              ixc15      -174
              ixc16      -175
              ixc17      -176
              ixc18      -177
              ixc19      -178
              ixc20      -179
              ixc21      -180
              ixc22      -181
           jdtset        1    2    3    4    5    6    7   10   11   12
                        13   14   15   16   17   18   19   20   21   22
           kptopt           0
P           mkmem           1
            natom           1
            nband           4       4
           ndtset          20
            ngfft          30      30      30
             nkpt           1
            nline           1
           nspden           2
           nsppol           2
            nstep           1
             nsym          48
           ntypat           1
              occ      1.000000  1.000000  1.000000  1.000000
                       1.000000  0.000000  0.000000  0.000000
           occopt           2
           prtden           0
           prteig           0
            prtwf           0
          spgroup         221
           spinat      1.0000000000E+00  0.0000000000E+00  0.0000000000E+00
           strten1     2.8070789153E-04  2.8070789153E-04  2.8070789153E-04
                       0.0000000000E+00  0.0000000000E+00  0.0000000000E+00
           strten2     2.8785977902E-04  2.8785977902E-04  2.8785977902E-04
                       0.0000000000E+00  0.0000000000E+00  0.0000000000E+00
           strten3     2.8951149698E-04  2.8951149698E-04  2.8951149698E-04
                       0.0000000000E+00  0.0000000000E+00  0.0000000000E+00
           strten4     2.8590299626E-04  2.8590299626E-04  2.8590299626E-04
                       0.0000000000E+00  0.0000000000E+00  0.0000000000E+00
           strten5     2.8815227784E-04  2.8815227784E-04  2.8815227784E-04
                       0.0000000000E+00  0.0000000000E+00  0.0000000000E+00
           strten6     2.8569692975E-04  2.8569692975E-04  2.8569692975E-04
                       0.0000000000E+00  0.0000000000E+00  0.0000000000E+00
           strten7     2.8748614219E-04  2.8748614219E-04  2.8748614219E-04
                       0.0000000000E+00  0.0000000000E+00  0.0000000000E+00
           strten10    2.8747519092E-04  2.8747519092E-04  2.8747519092E-04
                       0.0000000000E+00  0.0000000000E+00  0.0000000000E+00
           strten11    2.8765712737E-04  2.8765712737E-04  2.8765712737E-04
                       0.0000000000E+00  0.0000000000E+00  0.0000000000E+00
           strten12    2.5661756322E-04  2.5661756322E-04  2.5661756322E-04
                       0.0000000000E+00  0.0000000000E+00  0.0000000000E+00
           strten13    2.5511815701E-04  2.5511815701E-04  2.5511815701E-04
                       0.0000000000E+00  0.0000000000E+00  0.0000000000E+00
           strten14    2.9211592684E-04  2.9211592684E-04  2.9211592684E-04
                       0.0000000000E+00  0.0000000000E+00  0.0000000000E+00
           strten15    2.9414994177E-04  2.9414994177E-04  2.9414994177E-04
                       0.0000000000E+00  0.0000000000E+00  0.0000000000E+00
           strten16    2.9174716478E-04  2.9174716478E-04  2.9174716478E-04
                       0.0000000000E+00  0.0000000000E+00  0.0000000000E+00
           strten17    2.5754756247E-04  2.5754756247E-04  2.5754756247E-04
                       0.0000000000E+00  0.0000000000E+00  0.0000000000E+00
           strten18    2.4254430615E-04  2.4254430615E-04  2.4254430615E-04
                       0.0000000000E+00  0.0000000000E+00  0.0000000000E+00
           strten19    2.8567102604E-04  2.8567102604E-04  2.8567102604E-04
                       0.0000000000E+00  0.0000000000E+00  0.0000000000E+00
           strten20    2.7963530162E-04  2.7963530162E-04  2.7963530162E-04
                       0.0000000000E+00  0.0000000000E+00  0.0000000000E+00
           strten21    2.6930071946E-04  2.6930071946E-04  2.6930071946E-04
                       0.0000000000E+00  0.0000000000E+00  0.0000000000E+00
           strten22    2.8721722800E-04  2.8721722800E-04  2.8721722800E-04
                       0.0000000000E+00  0.0000000000E+00  0.0000000000E+00
           symrel      1  0  0   0  1  0   0  0  1      -1  0  0   0 -1  0   0  0 -1
                      -1  0  0   0  1  0   0  0 -1       1  0  0   0 -1  0   0  0  1
                      -1  0  0   0 -1  0   0  0  1       1  0  0   0  1  0   0  0 -1
                       1  0  0   0 -1  0   0  0 -1      -1  0  0   0  1  0   0  0  1
                       0  1  0   1  0  0   0  0  1       0 -1  0  -1  0  0   0  0 -1
                       0 -1  0   1  0  0   0  0 -1       0  1  0  -1  0  0   0  0  1
                       0 -1  0  -1  0  0   0  0  1       0  1  0   1  0  0   0  0 -1
                       0  1  0  -1  0  0   0  0 -1       0 -1  0   1  0  0   0  0  1
                       0  0  1   1  0  0   0  1  0       0  0 -1  -1  0  0   0 -1  0
                       0  0 -1   1  0  0   0 -1  0       0  0  1  -1  0  0   0  1  0
                       0  0 -1  -1  0  0   0  1  0       0  0  1   1  0  0   0 -1  0
                       0  0  1  -1  0  0   0 -1  0       0  0 -1   1  0  0   0  1  0
                       1  0  0   0  0  1   0  1  0      -1  0  0   0  0 -1   0 -1  0
                      -1  0  0   0  0  1   0 -1  0       1  0  0   0  0 -1   0  1  0
                      -1  0  0   0  0 -1   0  1  0       1  0  0   0  0  1   0 -1  0
                       1  0  0   0  0 -1   0 -1  0      -1  0  0   0  0  1   0  1  0
                       0  1  0   0  0  1   1  0  0       0 -1  0   0  0 -1  -1  0  0
                       0 -1  0   0  0  1  -1  0  0       0  1  0   0  0 -1   1  0  0
                       0 -1  0   0  0 -1   1  0  0       0  1  0   0  0  1  -1  0  0
                       0  1  0   0  0 -1  -1  0  0       0 -1  0   0  0  1   1  0  0
                       0  0  1   0  1  0   1  0  0       0  0 -1   0 -1  0  -1  0  0
                       0  0 -1   0  1  0  -1  0  0       0  0  1   0 -1  0   1  0  0
                       0  0 -1   0 -1  0   1  0  0       0  0  1   0  1  0  -1  0  0
                       0  0  1   0 -1  0  -1  0  0       0  0 -1   0  1  0   1  0  0
           tolwfr      1.00000000E-14
            typat      1
            znucl       83.00000

================================================================================


- Timing analysis has been suppressed with timopt=0



================================================================================

 Suggested references for the acknowledgment of ABINIT usage.

 The users of ABINIT have little formal obligations with respect to the ABINIT group
 (those specified in the GNU General Public License, http://www.gnu.org/copyleft/gpl.txt).
 However, it is common practice in the scientific literature,
 to acknowledge the efforts of people that have made the research possible.
 In this spirit, please find below suggested citations of work written by ABINIT developers,
 corresponding to implementations inside of ABINIT that you have used in the present run.
 Note also that it will be of great value to readers of publications presenting these results,
 to read papers enabling them to understand the theoretical formalism and details
 of the ABINIT implementation.
 For information on why they are suggested, see also http://www.abinit.org/about/?text=acknowledgments.

 [1] Libxc: A library of exchange and correlation functionals for density functional theory.
 M.A.L. Marques, M.J.T. Oliveira, T. Burnus, Computer Physics Communications 183, 2227 (2012).
 Comment : to be cited when LibXC is used (negative value of ixc)
 Strong suggestion to cite this paper.

 [2] ABINIT : First-principles approach of materials and nanosystem properties.
 X. Gonze, B. Amadon, P.-M. Anglade, J.-M. Beuken, F. Bottin, P. Boulanger, F. Bruneval,
 D. Caliste, R. Caracas, M. Cote, T. Deutsch, L. Genovese, Ph. Ghosez, M. Giantomassi
 S. Goedecker, D.R. Hamann, P. Hermet, F. Jollet, G. Jomard, S. Leroux, M. Mancini, S. Mazevet,
 M.J.T. Oliveira, G. Onida, Y. Pouillon, T. Rangel, G.-M. Rignanese, D. Sangalli, R. Shaltaf,
 M. Torrent, M.J. Verstraete, G. Zerah, J.W. Zwanziger
 Computer Phys. Comm. 180, 2582-2615 (2009).
 Comment : the third generic paper describing the ABINIT project.
 Note that a version of this paper, that is not formatted for Computer Phys. Comm. 
 is available at http://www.abinit.org/about/ABINIT_CPC_v10.pdf .
 The licence allows the authors to put it on the Web.

 [3] A brief introduction to the ABINIT software package.
 X. Gonze, G.-M. Rignanese, M. Verstraete, J.-M. Beuken, Y. Pouillon, R. Caracas, F. Jollet,
 M. Torrent, G. Zerah, M. Mikami, Ph. Ghosez, M. Veithen, J.-Y. Raty, V. Olevano, F. Bruneval,
 L. Reining, R. Godby, G. Onida, D.R. Hamann, and D.C. Allan.
 Z. Kristallogr. 220, 558-562 (2005).
 Comment : the second generic paper describing the ABINIT project. Note that this paper
 should be cited especially if you are using the GW part of ABINIT, as several authors
 of this part are not in the list of authors of the first or third paper.
 The .pdf of the latter paper is available at http://www.abinit.org/about/zfk_0505-06_558-562.pdf.
 Note that it should not redistributed (Copyright by Oldenburg Wissenshaftverlag,
 the licence allows the authors to put it on the Web).


 And optionally :

 [4] First-principles computation of material properties : the ABINIT software project. 
 X. Gonze, J.-M. Beuken, R. Caracas, F. Detraux, M. Fuchs, G.-M. Rignanese, L. Sindic,
 M. Verstraete, G. Zerah, F. Jollet, M. Torrent, A. Roy, M. Mikami, Ph. Ghosez, J.-Y. Raty, D.C. Allan.
 Computational Materials Science 25, 478-492 (2002). http://dx.doi.org/10.1016/S0927-0256(02)00325-7
 Comment : the original paper describing the ABINIT project.

 [5] Fast radix 2, 3, 4 and 5 kernels for Fast Fourier Transformations
 on computers with overlapping multiply-add instructions.
 S. Goedecker, SIAM J. on Scientific Computing 18, 1605 (1997).
-
- Proc.   0 individual time (sec): cpu=          7.1  wall=          7.1

================================================================================

 Calculation completed.
.Delivered   65 WARNINGs and  20 COMMENTs to log file.
+Overall time at end (sec) : cpu=          7.1  wall=          7.1
