
.Version 7.9.3 of ABINIT 
.(MPI version, prepared for a x86_64_linux_gnu4.7 computer) 

.Copyright (C) 1998-2014 ABINIT group . 
 ABINIT comes with ABSOLUTELY NO WARRANTY.
 It is free software, and you are welcome to redistribute it
 under certain conditions (GNU General Public License,
 see ~abinit/COPYING or http://www.gnu.org/copyleft/gpl.txt).

 ABINIT is a project of the Universite Catholique de Louvain,
 Corning Inc. and other collaborators, see ~abinit/doc/developers/contributors.txt .
 Please read ~abinit/doc/users/acknowledgments.html for suggested
 acknowledgments of the ABINIT effort.
 For more information, see http://www.abinit.org .

.Starting date : Sat 30 Aug 2014.
- ( at 22h21 )
  
- input  file    -> t41.in
- output file    -> t41.out
- root for input  files -> t41i
- root for output files -> t41o


 DATASET    1 : space group Fd -3 m (#227); Bravais cF (face-center cubic)
================================================================================
 Values of the parameters that define the memory need for DATASET  1.
   intxc =         0  ionmov =         0    iscf =         7 xclevel =         1
  lmnmax =         1   lnmax =         1   mband =         8  mffmem =         1
P  mgfft =        16   mkmem =        19 mpssoang=         2     mpw =       169
  mqgrid =      3001   natom =         2    nfft =      4096    nkpt =        19
  nloalg =         4  nspden =         1 nspinor =         1  nsppol =         1
    nsym =        48  n1xccc =      2501  ntypat =         1  occopt =         1
================================================================================
P This job should need less than                       2.139 Mbytes of memory.
  Rough estimation (10% accuracy) of disk space for files :
_ WF disk file :      0.394 Mbytes ; DEN or POT disk file :      0.033 Mbytes.
================================================================================


 DATASET    2 : space group Fd -3 m (#227); Bravais cF (face-center cubic)
================================================================================
 Values of the parameters that define the memory need for DATASET  2.
   intxc =         0  ionmov =         0    iscf =         7 xclevel =         1
  lmnmax =         1   lnmax =         1   mband =         8  mffmem =         1
P  mgfft =        15   mkmem =        19 mpssoang=         2     mpw =       127
  mqgrid =      3001   natom =         2    nfft =      3375    nkpt =        19
  nloalg =         4  nspden =         1 nspinor =         1  nsppol =         1
    nsym =        48  n1xccc =      2501  ntypat =         1  occopt =         1
================================================================================
P This job should need less than                       1.806 Mbytes of memory.
  Rough estimation (10% accuracy) of disk space for files :
_ WF disk file :      0.297 Mbytes ; DEN or POT disk file :      0.028 Mbytes.
================================================================================


 DATASET    3 : space group Fd -3 m (#227); Bravais cF (face-center cubic)
================================================================================
 Values of the parameters that define the memory need for DATASET  3.
   intxc =         0  ionmov =         0    iscf =         7 xclevel =         1
  lmnmax =         1   lnmax =         1   mband =         8  mffmem =         1
P  mgfft =        15   mkmem =        19 mpssoang=         2     mpw =       127
  mqgrid =      3001   natom =         2    nfft =      3375    nkpt =        19
  nloalg =         4  nspden =         1 nspinor =         1  nsppol =         1
    nsym =        48  n1xccc =      2501  ntypat =         1  occopt =         1
================================================================================
P This job should need less than                       1.806 Mbytes of memory.
  Rough estimation (10% accuracy) of disk space for files :
_ WF disk file :      0.297 Mbytes ; DEN or POT disk file :      0.028 Mbytes.
================================================================================


 DATASET    4 : space group Fd -3 m (#227); Bravais cF (face-center cubic)
================================================================================
 Values of the parameters that define the memory need for DATASET  4.
   intxc =         0  ionmov =         0    iscf =         7 xclevel =         1
  lmnmax =         1   lnmax =         1   mband =         8  mffmem =         1
P  mgfft =        15   mkmem =        19 mpssoang=         2     mpw =       127
  mqgrid =      3001   natom =         2    nfft =      3375    nkpt =        19
  nloalg =         4  nspden =         1 nspinor =         1  nsppol =         1
    nsym =        48  n1xccc =      2501  ntypat =         1  occopt =         1
================================================================================
P This job should need less than                       1.806 Mbytes of memory.
  Rough estimation (10% accuracy) of disk space for files :
_ WF disk file :      0.297 Mbytes ; DEN or POT disk file :      0.028 Mbytes.
================================================================================

--------------------------------------------------------------------------------
------------- Echo of variables that govern the present computation ------------
--------------------------------------------------------------------------------
-
- outvars: echo of selected default values                                      
-   accesswff0 =  0 , fftalg0 =112 , wfoptalg0 =  0
-
- outvars: echo of global parameters not present in the input file              
-  max_nthreads =    0
-
 -outvars: echo values of preprocessed input variables --------
            acell      6.7406530879E+00  6.7406530879E+00  6.7406530879E+00 Bohr
              amu      1.20110000E+01
             bdgw           1       8
           diemac      1.20000000E+01
             ecut1     1.20000000E+01 Hartree
             ecut2     1.04264636E+01 Hartree
             ecut3     1.04264636E+01 Hartree
             ecut4     1.04264636E+01 Hartree
         ecutsigx1     1.15000000E+01 Hartree
         ecutsigx2     1.04264636E+01 Hartree
         ecutsigx3     1.04264636E+01 Hartree
         ecutsigx4     1.04264636E+01 Hartree
          ecutwfn1     1.15000000E+01 Hartree
          ecutwfn2     1.04264636E+01 Hartree
          ecutwfn3     1.04264636E+01 Hartree
          ecutwfn4     1.04264636E+01 Hartree
           enunit           1
-          fftalg         112
           getkss           1
        gwcalctyp1          0
        gwcalctyp2        115
        gwcalctyp3        215
        gwcalctyp4        315
           gwpara           2
         icutcoul1          6
         icutcoul2          5
         icutcoul3          6
         icutcoul4          6
           istwfk        0    0    0    0    0    0    0    0    0    0
                         0    0    0    1    0    0    0    1    1
           jdtset        1    2    3    4
              kpt     -1.25000000E-01 -1.25000000E-01  0.00000000E+00
                      -1.25000000E-01 -3.75000000E-01  0.00000000E+00
                      -2.50000000E-01 -2.50000000E-01  0.00000000E+00
                      -1.25000000E-01 -2.50000000E-01  1.25000000E-01
                      -1.25000000E-01  3.75000000E-01  0.00000000E+00
                      -2.50000000E-01  5.00000000E-01  0.00000000E+00
                      -1.25000000E-01  5.00000000E-01  1.25000000E-01
                      -3.75000000E-01 -3.75000000E-01  0.00000000E+00
                      -2.50000000E-01 -3.75000000E-01  1.25000000E-01
                      -1.25000000E-01 -3.75000000E-01  2.50000000E-01
                      -1.25000000E-01  1.25000000E-01  0.00000000E+00
                      -2.50000000E-01  2.50000000E-01  0.00000000E+00
                      -3.75000000E-01  3.75000000E-01  0.00000000E+00
                       5.00000000E-01  5.00000000E-01  0.00000000E+00
                      -3.75000000E-01  5.00000000E-01  1.25000000E-01
                      -2.50000000E-01  5.00000000E-01  2.50000000E-01
                      -2.50000000E-01  0.00000000E+00  0.00000000E+00
                       5.00000000E-01  0.00000000E+00  0.00000000E+00
                       0.00000000E+00  0.00000000E+00  0.00000000E+00
         kptrlatt        4   -4    4     -4    4    4     -4   -4    4
          kptrlen      2.69626124E+01
P           mkmem          19
            natom           2
            nband           8
           ndtset           4
            ngfft1         16      16      16
            ngfft2         15      15      15
            ngfft3         15      15      15
            ngfft4         15      15      15
             nkpt          19
           nkptgw           1
          npwsigx1          0
          npwsigx2        137
          npwsigx3        137
          npwsigx4        137
           npwwfn1          0
           npwwfn2        137
           npwwfn3        137
           npwwfn4        137
          nshsigx1          0
          nshsigx2         10
          nshsigx3         10
          nshsigx4         10
            nstep         250
             nsym          48
           ntypat           1
              occ      2.000000  2.000000  2.000000  2.000000  0.000000  0.000000
                       0.000000  0.000000
        optdriver1          0
        optdriver2          4
        optdriver3          4
        optdriver4          4
             rcut1     0.00000000E+00 Bohr
             rcut2     9.09090900E+00 Bohr
             rcut3     0.00000000E+00 Bohr
             rcut4     0.00000000E+00 Bohr
            rprim      0.0000000000E+00  5.0000000000E-01  5.0000000000E-01
                       5.0000000000E-01  0.0000000000E+00  5.0000000000E-01
                       5.0000000000E-01  5.0000000000E-01  0.0000000000E+00
          spgroup         227
           symrel      1  0  0   0  1  0   0  0  1      -1  0  0   0 -1  0   0  0 -1
                       0 -1  1   0 -1  0   1 -1  0       0  1 -1   0  1  0  -1  1  0
                      -1  0  0  -1  0  1  -1  1  0       1  0  0   1  0 -1   1 -1  0
                       0  1 -1   1  0 -1   0  0 -1       0 -1  1  -1  0  1   0  0  1
                      -1  0  0  -1  1  0  -1  0  1       1  0  0   1 -1  0   1  0 -1
                       0 -1  1   1 -1  0   0 -1  0       0  1 -1  -1  1  0   0  1  0
                       1  0  0   0  0  1   0  1  0      -1  0  0   0  0 -1   0 -1  0
                       0  1 -1   0  0 -1   1  0 -1       0 -1  1   0  0  1  -1  0  1
                      -1  0  1  -1  1  0  -1  0  0       1  0 -1   1 -1  0   1  0  0
                       0 -1  0   1 -1  0   0 -1  1       0  1  0  -1  1  0   0  1 -1
                       1  0 -1   0  0 -1   0  1 -1      -1  0  1   0  0  1   0 -1  1
                       0  1  0   0  0  1   1  0  0       0 -1  0   0  0 -1  -1  0  0
                       1  0 -1   0  1 -1   0  0 -1      -1  0  1   0 -1  1   0  0  1
                       0 -1  0   0 -1  1   1 -1  0       0  1  0   0  1 -1  -1  1  0
                      -1  0  1  -1  0  0  -1  1  0       1  0 -1   1  0  0   1 -1  0
                       0  1  0   1  0  0   0  0  1       0 -1  0  -1  0  0   0  0 -1
                       0  0 -1   0  1 -1   1  0 -1       0  0  1   0 -1  1  -1  0  1
                       1 -1  0   0 -1  1   0 -1  0      -1  1  0   0  1 -1   0  1  0
                       0  0  1   1  0  0   0  1  0       0  0 -1  -1  0  0   0 -1  0
                      -1  1  0  -1  0  0  -1  0  1       1 -1  0   1  0  0   1  0 -1
                       0  0  1   0  1  0   1  0  0       0  0 -1   0 -1  0  -1  0  0
                       1 -1  0   0 -1  0   0 -1  1      -1  1  0   0  1  0   0  1 -1
                       0  0 -1   1  0 -1   0  1 -1       0  0  1  -1  0  1   0 -1  1
                      -1  1  0  -1  0  1  -1  0  0       1 -1  0   1  0 -1   1  0  0
         symsigma        1
            tnons      0.0000000  0.0000000  0.0000000     0.2500000  0.2500000  0.2500000
                       0.0000000  0.0000000  0.0000000     0.2500000  0.2500000  0.2500000
                       0.0000000  0.0000000  0.0000000     0.2500000  0.2500000  0.2500000
                       0.0000000  0.0000000  0.0000000     0.2500000  0.2500000  0.2500000
                       0.0000000  0.0000000  0.0000000     0.2500000  0.2500000  0.2500000
                       0.0000000  0.0000000  0.0000000     0.2500000  0.2500000  0.2500000
                       0.0000000  0.0000000  0.0000000     0.2500000  0.2500000  0.2500000
                       0.0000000  0.0000000  0.0000000     0.2500000  0.2500000  0.2500000
                       0.0000000  0.0000000  0.0000000     0.2500000  0.2500000  0.2500000
                       0.0000000  0.0000000  0.0000000     0.2500000  0.2500000  0.2500000
                       0.0000000  0.0000000  0.0000000     0.2500000  0.2500000  0.2500000
                       0.0000000  0.0000000  0.0000000     0.2500000  0.2500000  0.2500000
                       0.0000000  0.0000000  0.0000000     0.2500000  0.2500000  0.2500000
                       0.0000000  0.0000000  0.0000000     0.2500000  0.2500000  0.2500000
                       0.0000000  0.0000000  0.0000000     0.2500000  0.2500000  0.2500000
                       0.0000000  0.0000000  0.0000000     0.2500000  0.2500000  0.2500000
                       0.0000000  0.0000000  0.0000000     0.2500000  0.2500000  0.2500000
                       0.0000000  0.0000000  0.0000000     0.2500000  0.2500000  0.2500000
                       0.0000000  0.0000000  0.0000000     0.2500000  0.2500000  0.2500000
                       0.0000000  0.0000000  0.0000000     0.2500000  0.2500000  0.2500000
                       0.0000000  0.0000000  0.0000000     0.2500000  0.2500000  0.2500000
                       0.0000000  0.0000000  0.0000000     0.2500000  0.2500000  0.2500000
                       0.0000000  0.0000000  0.0000000     0.2500000  0.2500000  0.2500000
                       0.0000000  0.0000000  0.0000000     0.2500000  0.2500000  0.2500000
           tolvrs      1.00000000E-10
            typat      1  1
              wtk        0.02344    0.09375    0.02344    0.09375    0.09375    0.09375
                         0.09375    0.02344    0.09375    0.09375    0.04688    0.04688
                         0.04688    0.01172    0.04688    0.02344    0.03125    0.01563
                         0.00391
           xangst      0.0000000000E+00  0.0000000000E+00  0.0000000000E+00
                       8.9174999628E-01  8.9174999628E-01  8.9174999628E-01
            xcart      0.0000000000E+00  0.0000000000E+00  0.0000000000E+00
                       1.6851632720E+00  1.6851632720E+00  1.6851632720E+00
             xred      0.0000000000E+00  0.0000000000E+00  0.0000000000E+00
                       2.5000000000E-01  2.5000000000E-01  2.5000000000E-01
            znucl        6.00000

================================================================================

 chkinp: Checking input parameters for consistency, jdtset=   1.

 chkinp: Checking input parameters for consistency, jdtset=   2.

 chkinp: Checking input parameters for consistency, jdtset=   3.

 chkinp: Checking input parameters for consistency, jdtset=   4.

================================================================================
== DATASET  1 ==================================================================
-   nproc =    1

 mkfilename : getkss/=0, take file _KSS from output of DATASET   1.

 Exchange-correlation functional for the present dataset will be:
  LDA: new Teter (4/93) with spin-polarized option - ixc=1
 Citation for XC functional:
  S. Goedecker, M. Teter, J. Huetter, PRB 54, 1703 (1996)

 Real(R)+Recip(G) space primitive vectors, cartesian coordinates (Bohr,Bohr^-1):
 R(1)=  0.0000000  3.3703265  3.3703265  G(1)= -0.1483536  0.1483536  0.1483536
 R(2)=  3.3703265  0.0000000  3.3703265  G(2)=  0.1483536 -0.1483536  0.1483536
 R(3)=  3.3703265  3.3703265  0.0000000  G(3)=  0.1483536  0.1483536 -0.1483536
 Unit cell volume ucvol=  7.6567759E+01 bohr^3
 Angles (23,13,12)=  6.00000000E+01  6.00000000E+01  6.00000000E+01 degrees

 getcut: wavevector=  0.0000  0.0000  0.0000  ngfft=  16  16  16
         ecut(hartree)=     12.000   => boxcut(ratio)=   2.15267

--- Pseudopotential description ------------------------------------------------
- pspini: atom type   1  psp file is /home/gonze/ABINIT/ABINITv7.9.3/trunk/7.9.3-private/tests/Psps_for_tests/6c.pspnc
- pspatm: opening atomic psp file    /home/gonze/ABINIT/ABINITv7.9.3/trunk/7.9.3-private/tests/Psps_for_tests/6c.pspnc
-  Troullier-Martins psp for element  C         Thu Oct 27 17:29:33 EDT 1994
-  6.00000   4.00000    940714                znucl, zion, pspdat
    1    1    1    1      2001   0.00000      pspcod,pspxc,lmax,lloc,mmax,r2well
    0  10.372  24.987    1   1.4850707        l,e99.0,e99.9,nproj,rcpsp
   0.00000000   0.00000000   0.00000000   0.00000000     rms, ekb1, ekb2, epsatm
    1  15.431  21.987    0   1.4850707        l,e99.0,e99.9,nproj,rcpsp
   0.00000000   0.00000000   0.00000000   0.00000000     rms, ekb1, ekb2, epsatm
    0.83985002509544    0.99012430797080    0.51184907750884   rchrg,fchrg,qchrg
 pspatm: epsatm=    0.92590353
         --- l  ekb(1:nproj) -->
             0    4.921466
 pspatm: atomic psp has been read  and splines computed

   1.48144565E+01                                ecore*ucvol(ha*bohr**3)
--------------------------------------------------------------------------------

P newkpt: treating      8 bands with npw=     161 for ikpt=   1 by node    0
P newkpt: treating      8 bands with npw=     151 for ikpt=   2 by node    0
P newkpt: treating      8 bands with npw=     149 for ikpt=   3 by node    0
P newkpt: treating      8 bands with npw=     150 for ikpt=   4 by node    0
P newkpt: treating      8 bands with npw=     154 for ikpt=   5 by node    0
P newkpt: treating      8 bands with npw=     149 for ikpt=   6 by node    0
P newkpt: treating      8 bands with npw=     148 for ikpt=   7 by node    0
P newkpt: treating      8 bands with npw=     154 for ikpt=   8 by node    0
P newkpt: treating      8 bands with npw=     149 for ikpt=   9 by node    0
P newkpt: treating      8 bands with npw=     154 for ikpt=  10 by node    0
P newkpt: treating      8 bands with npw=     157 for ikpt=  11 by node    0
P newkpt: treating      8 bands with npw=     156 for ikpt=  12 by node    0
P newkpt: treating      8 bands with npw=     150 for ikpt=  13 by node    0
P newkpt: treating      8 bands with npw=     150 for ikpt=  14 by node    0
P newkpt: treating      8 bands with npw=     156 for ikpt=  15 by node    0
P newkpt: treating      8 bands with npw=     156 for ikpt=  16 by node    0
P newkpt: treating      8 bands with npw=     150 for ikpt=  17 by node    0
P newkpt: treating      8 bands with npw=     156 for ikpt=  18 by node    0
P newkpt: treating      8 bands with npw=     169 for ikpt=  19 by node    0

_setup2: Arith. and geom. avg. npw (full set) are     151.996     151.959

================================================================================

     iter   Etot(hartree)      deltaE(h)  residm     vres2
 ETOT  1  -11.919417260529    -1.192E+01 2.335E-02 7.522E+00
 ETOT  2  -11.928629543976    -9.212E-03 2.455E-04 2.972E-02
 ETOT  3  -11.928647772247    -1.823E-05 1.167E-05 7.880E-04
 ETOT  4  -11.928648087212    -3.150E-07 1.742E-06 8.698E-07
 ETOT  5  -11.928648087583    -3.705E-10 8.301E-08 7.092E-10
 ETOT  6  -11.928648087583    -5.311E-13 1.259E-08 4.704E-13

 At SCF step    6       vres2   =  4.70E-13 < tolvrs=  1.00E-10 =>converged.

 Cartesian components of stress tensor (hartree/bohr^3)
  sigma(1 1)=  3.65049667E-03  sigma(3 2)=  0.00000000E+00
  sigma(2 2)=  3.65049667E-03  sigma(3 1)=  0.00000000E+00
  sigma(3 3)=  3.65049667E-03  sigma(2 1)=  0.00000000E+00

================================================================================

 ----iterations are completed or convergence reached----

 Mean square residual over all n,k,spin=   8.5942E-11; max=  1.2588E-08
  -0.1250 -0.1250  0.0000    1  3.24280E-15 kpt; spin; max resid(k); each band:
  2.90E-15 3.16E-15 3.16E-15 4.80E-17 2.71E-15 3.21E-15 3.24E-15 1.00E-15
  -0.1250 -0.3750  0.0000    1  1.46099E-14 kpt; spin; max resid(k); each band:
  6.69E-15 9.61E-15 3.21E-15 3.54E-15 6.63E-15 1.02E-14 3.12E-15 1.46E-14
  -0.2500 -0.2500  0.0000    1  7.09616E-15 kpt; spin; max resid(k); each band:
  7.10E-15 1.12E-15 4.23E-15 4.23E-15 7.01E-15 1.18E-15 6.50E-15 4.35E-15
  -0.1250 -0.2500  0.1250    1  9.17118E-15 kpt; spin; max resid(k); each band:
  7.65E-15 4.57E-15 6.98E-15 4.47E-15 6.00E-15 9.17E-15 5.92E-15 6.52E-15
  -0.1250  0.3750  0.0000    1  2.05821E-13 kpt; spin; max resid(k); each band:
  5.78E-15 1.15E-14 3.98E-15 4.24E-16 9.46E-15 5.94E-16 1.17E-14 2.06E-13
  -0.2500  0.5000  0.0000    1  1.18592E-14 kpt; spin; max resid(k); each band:
  6.87E-15 8.39E-15 1.04E-14 2.52E-15 9.54E-15 1.19E-14 9.40E-15 1.09E-14
  -0.1250  0.5000  0.1250    1  1.53925E-11 kpt; spin; max resid(k); each band:
  2.46E-15 1.01E-14 2.41E-15 6.46E-15 1.01E-14 1.04E-14 1.96E-13 1.54E-11
  -0.3750 -0.3750  0.0000    1  3.91693E-14 kpt; spin; max resid(k); each band:
  9.05E-15 5.68E-15 2.62E-15 2.62E-15 9.71E-15 5.46E-15 2.50E-14 3.92E-14
  -0.2500 -0.3750  0.1250    1  1.03733E-13 kpt; spin; max resid(k); each band:
  8.43E-15 2.88E-15 5.02E-15 9.90E-15 9.07E-15 8.87E-15 5.45E-15 1.04E-13
  -0.1250 -0.3750  0.2500    1  3.61105E-10 kpt; spin; max resid(k); each band:
  4.53E-15 6.04E-15 5.92E-15 7.75E-15 1.16E-14 7.98E-15 9.20E-14 3.61E-10
  -0.1250  0.1250  0.0000    1  8.65882E-15 kpt; spin; max resid(k); each band:
  4.77E-15 4.13E-15 5.67E-15 5.73E-17 2.55E-16 8.66E-15 4.52E-15 2.45E-15
  -0.2500  0.2500  0.0000    1  2.58012E-14 kpt; spin; max resid(k); each band:
  7.87E-15 7.16E-15 8.91E-15 1.83E-16 1.15E-14 9.15E-16 1.30E-14 2.58E-14
  -0.3750  0.3750  0.0000    1  1.25879E-08 kpt; spin; max resid(k); each band:
  1.13E-15 8.41E-15 8.25E-15 2.53E-16 1.08E-14 1.14E-14 9.62E-11 1.26E-08
   0.5000  0.5000  0.0000    1  5.84075E-13 kpt; spin; max resid(k); each band:
  8.89E-15 8.89E-15 2.59E-16 2.59E-16 9.69E-15 9.69E-15 5.84E-13 1.34E-13
  -0.3750  0.5000  0.1250    1  1.99420E-13 kpt; spin; max resid(k); each band:
  6.84E-15 6.84E-15 5.71E-15 5.71E-15 1.03E-14 1.03E-14 1.99E-13 1.58E-13
  -0.2500  0.5000  0.2500    1  1.28549E-14 kpt; spin; max resid(k); each band:
  2.19E-15 2.19E-15 1.20E-14 1.20E-14 1.29E-14 1.29E-14 3.84E-15 3.06E-15
  -0.2500  0.0000  0.0000    1  4.10430E-14 kpt; spin; max resid(k); each band:
  5.47E-15 8.19E-15 1.72E-15 1.72E-15 1.78E-15 1.78E-15 1.06E-14 4.10E-14
   0.5000  0.0000  0.0000    1  1.31208E-14 kpt; spin; max resid(k); each band:
  4.99E-15 1.21E-14 6.95E-17 6.95E-17 1.31E-14 1.61E-15 1.61E-15 5.91E-15
   0.0000  0.0000  0.0000    1  3.76120E-16 kpt; spin; max resid(k); each band:
  3.76E-16 1.30E-16 1.30E-16 1.30E-16 1.92E-16 1.91E-16 1.92E-16 1.12E-16
 reduced coordinates (array xred) for    2 atoms
       0.000000000000      0.000000000000      0.000000000000
       0.250000000000      0.250000000000      0.250000000000
 rms dE/dt=  0.0000E+00; max dE/dt=  0.0000E+00; dE/dt below (all hartree)
    1       0.000000000000      0.000000000000      0.000000000000
    2       0.000000000000      0.000000000000      0.000000000000

 cartesian coordinates (angstrom) at end:
    1      0.00000000000000     0.00000000000000     0.00000000000000
    2      0.89174999627579     0.89174999627579     0.89174999627579

 cartesian forces (hartree/bohr) at end:
    1     -0.00000000000000    -0.00000000000000    -0.00000000000000
    2     -0.00000000000000    -0.00000000000000    -0.00000000000000
 frms,max,avg= 0.0000000E+00 0.0000000E+00   0.000E+00  0.000E+00  0.000E+00 h/b

 cartesian forces (eV/Angstrom) at end:
    1     -0.00000000000000    -0.00000000000000    -0.00000000000000
    2     -0.00000000000000    -0.00000000000000    -0.00000000000000
 frms,max,avg= 0.0000000E+00 0.0000000E+00   0.000E+00  0.000E+00  0.000E+00 e/A
 length scales=  6.740653087852  6.740653087852  6.740653087852 bohr
              =  3.566999985103  3.566999985103  3.566999985103 angstroms
 prteigrs : about to open file t41o_DS1_EIG
 Fermi (or HOMO) energy (eV) =  12.95108   Average Vxc (eV)= -13.73907
 Eigenvalues (   eV  ) for nkpt=  19  k points:
 kpt#   1, nband=  8, wtk=  0.02344, kpt= -0.1250 -0.1250  0.0000 (reduced coord)
  -8.37112  11.24733  11.24733  11.72011  18.16431  20.83144  20.83144  25.87565
 kpt#   2, nband=  8, wtk=  0.09375, kpt= -0.1250 -0.3750  0.0000 (reduced coord)
  -5.49352   3.69979   9.54493   9.79502  19.96617  22.99978  23.31234  26.49048
 kpt#   3, nband=  8, wtk=  0.02344, kpt= -0.2500 -0.2500  0.0000 (reduced coord)
  -6.60726   8.38796   8.89149   8.89149  17.38180  22.87682  25.10590  25.10590
 kpt#   4, nband=  8, wtk=  0.09375, kpt= -0.1250 -0.2500  0.1250 (reduced coord)
  -6.04547   6.35556   7.47104  10.16226  19.55774  23.18859  24.50499  24.97148
 kpt#   5, nband=  8, wtk=  0.09375, kpt= -0.1250  0.3750  0.0000 (reduced coord)
  -3.91082   1.17481   8.38977  10.18070  21.08724  22.28722  23.02316  28.62669
 kpt#   6, nband=  8, wtk=  0.09375, kpt= -0.2500  0.5000  0.0000 (reduced coord)
  -2.80550   2.00351   6.15656   8.18804  18.84943  24.44361  26.21887  26.49220
 kpt#   7, nband=  8, wtk=  0.09375, kpt= -0.1250  0.5000  0.1250 (reduced coord)
  -2.03691   0.37790   6.64200   8.35898  21.28597  22.42754  26.35486  28.35495
 kpt#   8, nband=  8, wtk=  0.02344, kpt= -0.3750 -0.3750  0.0000 (reduced coord)
  -3.77977   4.15092   7.20519   7.20519  16.81540  19.33592  28.83289  28.83289
 kpt#   9, nband=  8, wtk=  0.09375, kpt= -0.2500 -0.3750  0.1250 (reduced coord)
  -3.26550   3.76387   5.95463   7.01944  19.16550  21.34918  26.29051  28.85539
 kpt#  10, nband=  8, wtk=  0.09375, kpt= -0.1250 -0.3750  0.2500 (reduced coord)
  -1.86143   2.34470   3.97574   7.48486  21.20396  23.92015  26.09058  27.94677
 kpt#  11, nband=  8, wtk=  0.04688, kpt= -0.1250  0.1250  0.0000 (reduced coord)
  -7.78225   8.95550   9.70275  12.32890  19.84390  21.13028  21.23926  26.53736
 kpt#  12, nband=  8, wtk=  0.04688, kpt= -0.2500  0.2500  0.0000 (reduced coord)
  -4.39921   4.06119   5.23940  10.01690  20.75969  23.22183  25.44706  26.90863
 kpt#  13, nband=  8, wtk=  0.04688, kpt= -0.3750  0.3750  0.0000 (reduced coord)
  -0.28299   0.98849   3.56709   7.68306  18.30923  23.73603  28.13106  29.13298
 kpt#  14, nband=  8, wtk=  0.01172, kpt=  0.5000  0.5000  0.0000 (reduced coord)
  -0.07033  -0.07033   6.69209   6.69209  17.36901  17.36901  30.75857  30.75857
 kpt#  15, nband=  8, wtk=  0.04688, kpt= -0.3750  0.5000  0.1250 (reduced coord)
   0.26975   0.26975   5.59518   5.59518  19.56866  19.56866  29.07578  29.07578
 kpt#  16, nband=  8, wtk=  0.02344, kpt= -0.2500  0.5000  0.2500 (reduced coord)
   0.73700   0.73700   4.52091   4.52091  23.57161  23.57161  25.36276  25.36276
 kpt#  17, nband=  8, wtk=  0.03125, kpt= -0.2500  0.0000  0.0000 (reduced coord)
  -7.19746   6.31792  11.37489  11.37489  20.94131  20.94131  21.05081  27.64183
 kpt#  18, nband=  8, wtk=  0.01563, kpt=  0.5000  0.0000  0.0000 (reduced coord)
  -3.11687  -0.66415  10.24633  10.24633  21.41372  21.62325  21.62325  28.46942
 kpt#  19, nband=  8, wtk=  0.00391, kpt=  0.0000  0.0000  0.0000 (reduced coord)
  -8.96509  12.95108  12.95108  12.95108  18.51875  18.51875  18.51875  25.70660
 Total charge density [el/Bohr^3]
,     Maximum=    2.8292E-01  at reduced coord.    0.0625    0.0625    0.8125
,Next maximum=    2.8292E-01  at reduced coord.    0.1875    0.1875    0.4375
,     Minimum=    1.3971E-02  at reduced coord.    0.5000    0.5000    0.5000
,Next minimum=    1.3971E-02  at reduced coord.    0.7500    0.7500    0.7500
,  Integrated=    8.0000E+00

--------------------------------------------------------------------------------
 Components of total free energy (in Hartree) :

    Kinetic energy  =  7.90757594060227E+00
    Hartree energy  =  9.12620399801296E-01
    XC energy       = -4.30515893499992E+00
    Ewald energy    = -1.27864121744519E+01
    PspCore energy  =  1.93481650844766E-01
    Loc. psp. energy= -5.24205111135186E+00
    NL   psp  energy=  1.39129614197218E+00
    >>>>>>>>> Etotal= -1.19286480875832E+01

 Other information on the energy :
    Total energy(eV)= -3.24595022042081E+02 ; Band energy (Ha)=   1.1381837655E+00
--------------------------------------------------------------------------------

 Cartesian components of stress tensor (hartree/bohr^3)
  sigma(1 1)=  3.65049667E-03  sigma(3 2)=  0.00000000E+00
  sigma(2 2)=  3.65049667E-03  sigma(3 1)=  0.00000000E+00
  sigma(3 3)=  3.65049667E-03  sigma(2 1)=  0.00000000E+00

-Cartesian components of stress tensor (GPa)         [Pressure= -1.0740E+02 GPa]
- sigma(1 1)=  1.07401302E+02  sigma(3 2)=  0.00000000E+00
- sigma(2 2)=  1.07401302E+02  sigma(3 1)=  0.00000000E+00
- sigma(3 3)=  1.07401302E+02  sigma(2 1)=  0.00000000E+00

================================================================================
== DATASET  2 ==================================================================
-   nproc =    1

 mkfilename : getkss/=0, take file _KSS from output of DATASET   1.

 Exchange-correlation functional for the present dataset will be:
  LDA: new Teter (4/93) with spin-polarized option - ixc=1
 Citation for XC functional:
  S. Goedecker, M. Teter, J. Huetter, PRB 54, 1703 (1996)

 SIGMA: Calculation of the GW corrections 

 Based on a program developped by R.W. Godby, V. Olevano, G. Onida, and L. Reining.
 Incorporated in ABINIT by V. Olevano, G.-M. Rignanese, and M. Torrent.
.Using double precision arithmetic ; gwpc =  8

 Real(R)+Recip(G) space primitive vectors, cartesian coordinates (Bohr,Bohr^-1):
 R(1)=  0.0000000  3.3703265  3.3703265  G(1)= -0.1483536  0.1483536  0.1483536
 R(2)=  3.3703265  0.0000000  3.3703265  G(2)=  0.1483536 -0.1483536  0.1483536
 R(3)=  3.3703265  3.3703265  0.0000000  G(3)=  0.1483536  0.1483536 -0.1483536
 Unit cell volume ucvol=  7.6567759E+01 bohr^3
 Angles (23,13,12)=  6.00000000E+01  6.00000000E+01  6.00000000E+01 degrees

--- Pseudopotential description ------------------------------------------------
- pspini: atom type   1  psp file is /home/gonze/ABINIT/ABINITv7.9.3/trunk/7.9.3-private/tests/Psps_for_tests/6c.pspnc
- pspatm: opening atomic psp file    /home/gonze/ABINIT/ABINITv7.9.3/trunk/7.9.3-private/tests/Psps_for_tests/6c.pspnc
-  Troullier-Martins psp for element  C         Thu Oct 27 17:29:33 EDT 1994
-  6.00000   4.00000    940714                znucl, zion, pspdat
    1    1    1    1      2001   0.00000      pspcod,pspxc,lmax,lloc,mmax,r2well
    0  10.372  24.987    1   1.4850707        l,e99.0,e99.9,nproj,rcpsp
   0.00000000   0.00000000   0.00000000   0.00000000     rms, ekb1, ekb2, epsatm
    1  15.431  21.987    0   1.4850707        l,e99.0,e99.9,nproj,rcpsp
   0.00000000   0.00000000   0.00000000   0.00000000     rms, ekb1, ekb2, epsatm
    0.83985002509544    0.99012430797080    0.51184907750884   rchrg,fchrg,qchrg
 pspatm: epsatm=    0.92590353
         --- l  ekb(1:nproj) -->
             0    4.921466
 pspatm: atomic psp has been read  and splines computed

--------------------------------------------------------------------------------

 ==== K-mesh for the wavefunctions ====
 Number of points in the irreducible wedge :    19
 Reduced coordinates and weights : 

     1)    -1.25000000E-01 -1.25000000E-01  0.00000000E+00       0.02344
     2)    -1.25000000E-01 -3.75000000E-01  0.00000000E+00       0.09375
     3)    -2.50000000E-01 -2.50000000E-01  0.00000000E+00       0.02344
     4)    -1.25000000E-01 -2.50000000E-01  1.25000000E-01       0.09375
     5)    -1.25000000E-01  3.75000000E-01  0.00000000E+00       0.09375
     6)    -2.50000000E-01  5.00000000E-01  0.00000000E+00       0.09375
     7)    -1.25000000E-01  5.00000000E-01  1.25000000E-01       0.09375
     8)    -3.75000000E-01 -3.75000000E-01  0.00000000E+00       0.02344
     9)    -2.50000000E-01 -3.75000000E-01  1.25000000E-01       0.09375
    10)    -1.25000000E-01 -3.75000000E-01  2.50000000E-01       0.09375
    11)    -1.25000000E-01  1.25000000E-01  0.00000000E+00       0.04688
    12)    -2.50000000E-01  2.50000000E-01  0.00000000E+00       0.04688
    13)    -3.75000000E-01  3.75000000E-01  0.00000000E+00       0.04688
    14)     5.00000000E-01  5.00000000E-01  0.00000000E+00       0.01172
    15)    -3.75000000E-01  5.00000000E-01  1.25000000E-01       0.04688
    16)    -2.50000000E-01  5.00000000E-01  2.50000000E-01       0.02344
    17)    -2.50000000E-01  0.00000000E+00  0.00000000E+00       0.03125
    18)     5.00000000E-01  0.00000000E+00  0.00000000E+00       0.01563
    19)     0.00000000E+00  0.00000000E+00  0.00000000E+00       0.00391

 Together with 48 symmetry operations and time-reversal symmetry 
 yields   256 points in the full Brillouin Zone.



 COMMENT: In a self-consistent GW run, the QP corrections should be calculated for all the k-points of the KSS file 
 but nkptgw= 1 and WFK nkpt= 19
 Assuming expert user. Execution will continue.
 ==== Q-mesh for screening function ====
 Number of points in the irreducible wedge :    19
 Reduced coordinates and weights : 

     1)     0.00000000E+00  0.00000000E+00  0.00000000E+00       0.00391
     2)     2.50000000E-01  2.50000000E-01  0.00000000E+00       0.02344
     3)     2.50000000E-01  1.25000000E-01  1.25000000E-01       0.04688
     4)     0.00000000E+00 -2.50000000E-01  0.00000000E+00       0.03125
     5)     2.50000000E-01  5.00000000E-01  0.00000000E+00       0.09375
     6)     2.50000000E-01 -1.25000000E-01  1.25000000E-01       0.09375
     7)     0.00000000E+00  3.75000000E-01 -1.25000000E-01       0.09375
     8)    -1.25000000E-01 -1.25000000E-01  0.00000000E+00       0.02344
     9)     3.75000000E-01  3.75000000E-01  0.00000000E+00       0.02344
    10)     2.50000000E-01  3.75000000E-01 -1.25000000E-01       0.09375
    11)     0.00000000E+00  2.50000000E-01 -2.50000000E-01       0.04688
    12)     3.75000000E-01  0.00000000E+00  1.25000000E-01       0.09375
    13)     0.00000000E+00  5.00000000E-01  0.00000000E+00       0.01563
    14)     2.50000000E-01 -3.75000000E-01  1.25000000E-01       0.09375
    15)     3.75000000E-01 -3.75000000E-01  0.00000000E+00       0.04688
    16)     2.50000000E-01 -3.75000000E-01 -1.25000000E-01       0.09375
    17)     5.00000000E-01  5.00000000E-01  0.00000000E+00       0.01172
    18)     3.75000000E-01  5.00000000E-01 -1.25000000E-01       0.04688
    19)     2.50000000E-01  5.00000000E-01 -2.50000000E-01       0.02344

 Together with 48 symmetry operations and time-reversal symmetry 
 yields   256 points in the full Brillouin Zone.


 setmesh: FFT mesh size selected  =  20x 20x 20
          total number of points  =     8000


 k       eigenvalues [eV]
  1         -8.37  11.25  11.25  11.72  18.16  20.83  20.83  25.88
  2         -5.49   3.70   9.54   9.80  19.97  23.00  23.31  26.49
  3         -6.61   8.39   8.89   8.89  17.38  22.88  25.11  25.11
  4         -6.05   6.36   7.47  10.16  19.56  23.19  24.50  24.97
  5         -3.91   1.17   8.39  10.18  21.09  22.29  23.02  28.63
  6         -2.81   2.00   6.16   8.19  18.85  24.44  26.22  26.49
  7         -2.04   0.38   6.64   8.36  21.29  22.43  26.35  28.35
  8         -3.78   4.15   7.21   7.21  16.82  19.34  28.83  28.83
  9         -3.27   3.76   5.95   7.02  19.17  21.35  26.29  28.86
 10         -1.86   2.34   3.98   7.48  21.20  23.92  26.09  27.95
 11         -7.78   8.96   9.70  12.33  19.84  21.13  21.24  26.54
 12         -4.40   4.06   5.24  10.02  20.76  23.22  25.45  26.91
 13         -0.28   0.99   3.57   7.68  18.31  23.74  28.13  29.13
 14         -0.07  -0.07   6.69   6.69  17.37  17.37  30.76  30.76
 15          0.27   0.27   5.60   5.60  19.57  19.57  29.08  29.08
 16          0.74   0.74   4.52   4.52  23.57  23.57  25.36  25.36
 17         -7.20   6.32  11.37  11.37  20.94  20.94  21.05  27.64
 18         -3.12  -0.66  10.25  10.25  21.41  21.62  21.62  28.47
 19         -8.97  12.95  12.95  12.95  18.52  18.52  18.52  25.71
 Number of electrons calculated from density =    7.9937; Expected =    8.0000
 average of density, n =  0.104400
 r_s =    1.3175
 omega_plasma =   31.1678 [eV]


 rdqps: reading QP wavefunctions of the previous step 
        looking for file t41i_DS2_QPS
 file not found, 1st iteration initialized with KS eigenelements 

 Number of electrons calculated from density =    7.9937; Expected =    8.0000
 average of density, n =  0.104400
 r_s =    1.3175
 omega_plasma =   31.1678 [eV]


--------------------------------------------------------------------------------

 QP results after the unitary transformation in the KS subspace: 

  Number of electrons    =    7.9937

  QP Band energy    [Ha] =  1.13818376545189E+00
  QP Hartree energy [Ha] =  9.04317164590962E-01

--------------------------------------------------------------------------------

 === KS Band Gaps ===
  >>>> For spin  1
   Minimum optical gap =   5.5677 [eV], located at k-point      :   0.0000  0.0000  0.0000
   Fundamental gap     =   3.8643 [eV], Top of valence bands at :   0.0000  0.0000  0.0000
                                        Bottom of conduction at :  -0.3750 -0.3750  0.0000
 SIGMA fundamental parameters:
 Hartree-Fock
 number of plane-waves for SigmaX                  137
 number of plane-waves for SigmaC and W              1
 number of plane-waves for wavefunctions           137
 number of bands                                     8
 number of independent spin polarizations            1
 number of spinorial components                      1
 number of k-points in IBZ                          19
 number of q-points in IBZ                          19
 number of symmetry operations                      48
 number of k-points in BZ                          256
 number of q-points in BZ                          256
 number of frequencies for dSigma/dE                 1
 frequency step for dSigma/dE [eV]                0.00
 number of omega for Sigma on real axis              0
 max omega for Sigma on real axis  [eV]           0.00
 zcut for avoiding poles [eV]                     0.10

 matrix elements of self-energy operator (all in [eV])

 Self-Consistent on Energies only

 k =    0.000   0.000   0.000
 Band     E_lda   <Vxclda>   E(N-1)  <Hhartree>   SigX  SigC[E(N-1)]    Z     dSigC/dE  Sig[E(N)]  DeltaE  E(N)_pert E(N)_diago
    1    -8.965   -14.841    -8.965    -5.988    -5.580     0.000     1.000     0.000    -5.580    -2.602   -11.567   -11.567
    2    12.951   -16.710    12.951    16.267    -3.993     0.000     1.000     0.000    -3.993    -0.677    12.274    12.274
    3    12.951   -16.710    12.951    16.267    -3.993     0.000     1.000     0.000    -3.993    -0.677    12.274    12.274
    4    12.951   -16.710    12.951    16.267    -3.993     0.000     1.000     0.000    -3.993    -0.677    12.274    12.274
    5    18.519   -15.395    18.519    21.552    -2.305     0.000     1.000     0.000    -2.305     0.728    19.247    19.247
    6    18.519   -15.395    18.519    21.552    -2.305     0.000     1.000     0.000    -2.305     0.728    19.247    19.247
    7    18.519   -15.395    18.519    21.552    -2.305     0.000     1.000     0.000    -2.305     0.728    19.247    19.247
    8    25.707   -16.219    25.707    28.967    -2.023     0.000     1.000     0.000    -2.023     1.237    26.944    26.944

 E^0_gap          5.568
 E^GW_gap         6.973
 DeltaE^GW_gap    1.405


 writing QP data on file : t41o_DS2_QPS

 Convergence of QP corrections
 >>>>> For spin  1 <<<<<
.  kptgw no:  1; Maximum DeltaE = (  -2.602   0.000) for band index:  1

================================================================================
== DATASET  3 ==================================================================
-   nproc =    1

 mkfilename : getkss/=0, take file _KSS from output of DATASET   1.

 Exchange-correlation functional for the present dataset will be:
  LDA: new Teter (4/93) with spin-polarized option - ixc=1
 Citation for XC functional:
  S. Goedecker, M. Teter, J. Huetter, PRB 54, 1703 (1996)

 SIGMA: Calculation of the GW corrections 

 Based on a program developped by R.W. Godby, V. Olevano, G. Onida, and L. Reining.
 Incorporated in ABINIT by V. Olevano, G.-M. Rignanese, and M. Torrent.
.Using double precision arithmetic ; gwpc =  8

 Real(R)+Recip(G) space primitive vectors, cartesian coordinates (Bohr,Bohr^-1):
 R(1)=  0.0000000  3.3703265  3.3703265  G(1)= -0.1483536  0.1483536  0.1483536
 R(2)=  3.3703265  0.0000000  3.3703265  G(2)=  0.1483536 -0.1483536  0.1483536
 R(3)=  3.3703265  3.3703265  0.0000000  G(3)=  0.1483536  0.1483536 -0.1483536
 Unit cell volume ucvol=  7.6567759E+01 bohr^3
 Angles (23,13,12)=  6.00000000E+01  6.00000000E+01  6.00000000E+01 degrees
--------------------------------------------------------------------------------

 ==== K-mesh for the wavefunctions ====
 Number of points in the irreducible wedge :    19
 Reduced coordinates and weights : 

     1)    -1.25000000E-01 -1.25000000E-01  0.00000000E+00       0.02344
     2)    -1.25000000E-01 -3.75000000E-01  0.00000000E+00       0.09375
     3)    -2.50000000E-01 -2.50000000E-01  0.00000000E+00       0.02344
     4)    -1.25000000E-01 -2.50000000E-01  1.25000000E-01       0.09375
     5)    -1.25000000E-01  3.75000000E-01  0.00000000E+00       0.09375
     6)    -2.50000000E-01  5.00000000E-01  0.00000000E+00       0.09375
     7)    -1.25000000E-01  5.00000000E-01  1.25000000E-01       0.09375
     8)    -3.75000000E-01 -3.75000000E-01  0.00000000E+00       0.02344
     9)    -2.50000000E-01 -3.75000000E-01  1.25000000E-01       0.09375
    10)    -1.25000000E-01 -3.75000000E-01  2.50000000E-01       0.09375
    11)    -1.25000000E-01  1.25000000E-01  0.00000000E+00       0.04688
    12)    -2.50000000E-01  2.50000000E-01  0.00000000E+00       0.04688
    13)    -3.75000000E-01  3.75000000E-01  0.00000000E+00       0.04688
    14)     5.00000000E-01  5.00000000E-01  0.00000000E+00       0.01172
    15)    -3.75000000E-01  5.00000000E-01  1.25000000E-01       0.04688
    16)    -2.50000000E-01  5.00000000E-01  2.50000000E-01       0.02344
    17)    -2.50000000E-01  0.00000000E+00  0.00000000E+00       0.03125
    18)     5.00000000E-01  0.00000000E+00  0.00000000E+00       0.01563
    19)     0.00000000E+00  0.00000000E+00  0.00000000E+00       0.00391

 Together with 48 symmetry operations and time-reversal symmetry 
 yields   256 points in the full Brillouin Zone.



 COMMENT: In a self-consistent GW run, the QP corrections should be calculated for all the k-points of the KSS file 
 but nkptgw= 1 and WFK nkpt= 19
 Assuming expert user. Execution will continue.
 ==== Q-mesh for screening function ====
 Number of points in the irreducible wedge :    19
 Reduced coordinates and weights : 

     1)     0.00000000E+00  0.00000000E+00  0.00000000E+00       0.00391
     2)     2.50000000E-01  2.50000000E-01  0.00000000E+00       0.02344
     3)     2.50000000E-01  1.25000000E-01  1.25000000E-01       0.04688
     4)     0.00000000E+00 -2.50000000E-01  0.00000000E+00       0.03125
     5)     2.50000000E-01  5.00000000E-01  0.00000000E+00       0.09375
     6)     2.50000000E-01 -1.25000000E-01  1.25000000E-01       0.09375
     7)     0.00000000E+00  3.75000000E-01 -1.25000000E-01       0.09375
     8)    -1.25000000E-01 -1.25000000E-01  0.00000000E+00       0.02344
     9)     3.75000000E-01  3.75000000E-01  0.00000000E+00       0.02344
    10)     2.50000000E-01  3.75000000E-01 -1.25000000E-01       0.09375
    11)     0.00000000E+00  2.50000000E-01 -2.50000000E-01       0.04688
    12)     3.75000000E-01  0.00000000E+00  1.25000000E-01       0.09375
    13)     0.00000000E+00  5.00000000E-01  0.00000000E+00       0.01563
    14)     2.50000000E-01 -3.75000000E-01  1.25000000E-01       0.09375
    15)     3.75000000E-01 -3.75000000E-01  0.00000000E+00       0.04688
    16)     2.50000000E-01 -3.75000000E-01 -1.25000000E-01       0.09375
    17)     5.00000000E-01  5.00000000E-01  0.00000000E+00       0.01172
    18)     3.75000000E-01  5.00000000E-01 -1.25000000E-01       0.04688
    19)     2.50000000E-01  5.00000000E-01 -2.50000000E-01       0.02344

 Together with 48 symmetry operations and time-reversal symmetry 
 yields   256 points in the full Brillouin Zone.


 setmesh: FFT mesh size selected  =  20x 20x 20
          total number of points  =     8000


 k       eigenvalues [eV]
  1         -8.37  11.25  11.25  11.72  18.16  20.83  20.83  25.88
  2         -5.49   3.70   9.54   9.80  19.97  23.00  23.31  26.49
  3         -6.61   8.39   8.89   8.89  17.38  22.88  25.11  25.11
  4         -6.05   6.36   7.47  10.16  19.56  23.19  24.50  24.97
  5         -3.91   1.17   8.39  10.18  21.09  22.29  23.02  28.63
  6         -2.81   2.00   6.16   8.19  18.85  24.44  26.22  26.49
  7         -2.04   0.38   6.64   8.36  21.29  22.43  26.35  28.35
  8         -3.78   4.15   7.21   7.21  16.82  19.34  28.83  28.83
  9         -3.27   3.76   5.95   7.02  19.17  21.35  26.29  28.86
 10         -1.86   2.34   3.98   7.48  21.20  23.92  26.09  27.95
 11         -7.78   8.96   9.70  12.33  19.84  21.13  21.24  26.54
 12         -4.40   4.06   5.24  10.02  20.76  23.22  25.45  26.91
 13         -0.28   0.99   3.57   7.68  18.31  23.74  28.13  29.13
 14         -0.07  -0.07   6.69   6.69  17.37  17.37  30.76  30.76
 15          0.27   0.27   5.60   5.60  19.57  19.57  29.08  29.08
 16          0.74   0.74   4.52   4.52  23.57  23.57  25.36  25.36
 17         -7.20   6.32  11.37  11.37  20.94  20.94  21.05  27.64
 18         -3.12  -0.66  10.25  10.25  21.41  21.62  21.62  28.47
 19         -8.97  12.95  12.95  12.95  18.52  18.52  18.52  25.71
 Number of electrons calculated from density =    7.9937; Expected =    8.0000
 average of density, n =  0.104400
 r_s =    1.3175
 omega_plasma =   31.1678 [eV]


 rdqps: reading QP wavefunctions of the previous step 
        looking for file t41i_DS3_QPS
 file not found, 1st iteration initialized with KS eigenelements 

 Number of electrons calculated from density =    7.9937; Expected =    8.0000
 average of density, n =  0.104400
 r_s =    1.3175
 omega_plasma =   31.1678 [eV]


--------------------------------------------------------------------------------

 QP results after the unitary transformation in the KS subspace: 

  Number of electrons    =    7.9937

  QP Band energy    [Ha] =  1.13818376545189E+00
  QP Hartree energy [Ha] =  9.04317164590962E-01

--------------------------------------------------------------------------------

 === KS Band Gaps ===
  >>>> For spin  1
   Minimum optical gap =   5.5677 [eV], located at k-point      :   0.0000  0.0000  0.0000
   Fundamental gap     =   3.8643 [eV], Top of valence bands at :   0.0000  0.0000  0.0000
                                        Bottom of conduction at :  -0.3750 -0.3750  0.0000
 SIGMA fundamental parameters:
 Hartree-Fock
 number of plane-waves for SigmaX                  137
 number of plane-waves for SigmaC and W              1
 number of plane-waves for wavefunctions           137
 number of bands                                     8
 number of independent spin polarizations            1
 number of spinorial components                      1
 number of k-points in IBZ                          19
 number of q-points in IBZ                          19
 number of symmetry operations                      48
 number of k-points in BZ                          256
 number of q-points in BZ                          256
 number of frequencies for dSigma/dE                 1
 frequency step for dSigma/dE [eV]                0.00
 number of omega for Sigma on real axis              0
 max omega for Sigma on real axis  [eV]           0.00
 zcut for avoiding poles [eV]                     0.10

 matrix elements of self-energy operator (all in [eV])

 Self-Consistent on Energies only

 k =    0.000   0.000   0.000
 Band     E_lda   <Vxclda>   E(N-1)  <Hhartree>   SigX  SigC[E(N-1)]    Z     dSigC/dE  Sig[E(N)]  DeltaE  E(N)_pert E(N)_diago
    1    -8.965   -14.841    -8.965    -5.623    -6.420     0.000     1.000     0.000    -6.420    -3.077   -12.042   -12.042
    2    12.951   -16.710    12.951    16.678    -4.785     0.000     1.000     0.000    -4.785    -1.057    11.894    11.894
    3    12.951   -16.710    12.951    16.678    -4.785     0.000     1.000     0.000    -4.785    -1.057    11.894    11.894
    4    12.951   -16.710    12.951    16.678    -4.785     0.000     1.000     0.000    -4.785    -1.057    11.894    11.894
    5    18.519   -15.395    18.519    21.946    -2.342     0.000     1.000     0.000    -2.342     1.085    19.604    19.604
    6    18.519   -15.395    18.519    21.946    -2.342     0.000     1.000     0.000    -2.342     1.085    19.604    19.604
    7    18.519   -15.395    18.519    21.946    -2.342     0.000     1.000     0.000    -2.342     1.085    19.604    19.604
    8    25.707   -16.219    25.707    29.364    -2.036     0.000     1.000     0.000    -2.036     1.622    27.329    27.329

 E^0_gap          5.568
 E^GW_gap         7.710
 DeltaE^GW_gap    2.143


 writing QP data on file : t41o_DS3_QPS

 Convergence of QP corrections
 >>>>> For spin  1 <<<<<
.  kptgw no:  1; Maximum DeltaE = (  -3.077   0.000) for band index:  1

================================================================================
== DATASET  4 ==================================================================
-   nproc =    1

 mkfilename : getkss/=0, take file _KSS from output of DATASET   1.

 Exchange-correlation functional for the present dataset will be:
  LDA: new Teter (4/93) with spin-polarized option - ixc=1
 Citation for XC functional:
  S. Goedecker, M. Teter, J. Huetter, PRB 54, 1703 (1996)

 SIGMA: Calculation of the GW corrections 

 Based on a program developped by R.W. Godby, V. Olevano, G. Onida, and L. Reining.
 Incorporated in ABINIT by V. Olevano, G.-M. Rignanese, and M. Torrent.
.Using double precision arithmetic ; gwpc =  8

 Real(R)+Recip(G) space primitive vectors, cartesian coordinates (Bohr,Bohr^-1):
 R(1)=  0.0000000  3.3703265  3.3703265  G(1)= -0.1483536  0.1483536  0.1483536
 R(2)=  3.3703265  0.0000000  3.3703265  G(2)=  0.1483536 -0.1483536  0.1483536
 R(3)=  3.3703265  3.3703265  0.0000000  G(3)=  0.1483536  0.1483536 -0.1483536
 Unit cell volume ucvol=  7.6567759E+01 bohr^3
 Angles (23,13,12)=  6.00000000E+01  6.00000000E+01  6.00000000E+01 degrees
--------------------------------------------------------------------------------

 ==== K-mesh for the wavefunctions ====
 Number of points in the irreducible wedge :    19
 Reduced coordinates and weights : 

     1)    -1.25000000E-01 -1.25000000E-01  0.00000000E+00       0.02344
     2)    -1.25000000E-01 -3.75000000E-01  0.00000000E+00       0.09375
     3)    -2.50000000E-01 -2.50000000E-01  0.00000000E+00       0.02344
     4)    -1.25000000E-01 -2.50000000E-01  1.25000000E-01       0.09375
     5)    -1.25000000E-01  3.75000000E-01  0.00000000E+00       0.09375
     6)    -2.50000000E-01  5.00000000E-01  0.00000000E+00       0.09375
     7)    -1.25000000E-01  5.00000000E-01  1.25000000E-01       0.09375
     8)    -3.75000000E-01 -3.75000000E-01  0.00000000E+00       0.02344
     9)    -2.50000000E-01 -3.75000000E-01  1.25000000E-01       0.09375
    10)    -1.25000000E-01 -3.75000000E-01  2.50000000E-01       0.09375
    11)    -1.25000000E-01  1.25000000E-01  0.00000000E+00       0.04688
    12)    -2.50000000E-01  2.50000000E-01  0.00000000E+00       0.04688
    13)    -3.75000000E-01  3.75000000E-01  0.00000000E+00       0.04688
    14)     5.00000000E-01  5.00000000E-01  0.00000000E+00       0.01172
    15)    -3.75000000E-01  5.00000000E-01  1.25000000E-01       0.04688
    16)    -2.50000000E-01  5.00000000E-01  2.50000000E-01       0.02344
    17)    -2.50000000E-01  0.00000000E+00  0.00000000E+00       0.03125
    18)     5.00000000E-01  0.00000000E+00  0.00000000E+00       0.01563
    19)     0.00000000E+00  0.00000000E+00  0.00000000E+00       0.00391

 Together with 48 symmetry operations and time-reversal symmetry 
 yields   256 points in the full Brillouin Zone.



 COMMENT: In a self-consistent GW run, the QP corrections should be calculated for all the k-points of the KSS file 
 but nkptgw= 1 and WFK nkpt= 19
 Assuming expert user. Execution will continue.
 ==== Q-mesh for screening function ====
 Number of points in the irreducible wedge :    19
 Reduced coordinates and weights : 

     1)     0.00000000E+00  0.00000000E+00  0.00000000E+00       0.00391
     2)     2.50000000E-01  2.50000000E-01  0.00000000E+00       0.02344
     3)     2.50000000E-01  1.25000000E-01  1.25000000E-01       0.04688
     4)     0.00000000E+00 -2.50000000E-01  0.00000000E+00       0.03125
     5)     2.50000000E-01  5.00000000E-01  0.00000000E+00       0.09375
     6)     2.50000000E-01 -1.25000000E-01  1.25000000E-01       0.09375
     7)     0.00000000E+00  3.75000000E-01 -1.25000000E-01       0.09375
     8)    -1.25000000E-01 -1.25000000E-01  0.00000000E+00       0.02344
     9)     3.75000000E-01  3.75000000E-01  0.00000000E+00       0.02344
    10)     2.50000000E-01  3.75000000E-01 -1.25000000E-01       0.09375
    11)     0.00000000E+00  2.50000000E-01 -2.50000000E-01       0.04688
    12)     3.75000000E-01  0.00000000E+00  1.25000000E-01       0.09375
    13)     0.00000000E+00  5.00000000E-01  0.00000000E+00       0.01563
    14)     2.50000000E-01 -3.75000000E-01  1.25000000E-01       0.09375
    15)     3.75000000E-01 -3.75000000E-01  0.00000000E+00       0.04688
    16)     2.50000000E-01 -3.75000000E-01 -1.25000000E-01       0.09375
    17)     5.00000000E-01  5.00000000E-01  0.00000000E+00       0.01172
    18)     3.75000000E-01  5.00000000E-01 -1.25000000E-01       0.04688
    19)     2.50000000E-01  5.00000000E-01 -2.50000000E-01       0.02344

 Together with 48 symmetry operations and time-reversal symmetry 
 yields   256 points in the full Brillouin Zone.


 setmesh: FFT mesh size selected  =  20x 20x 20
          total number of points  =     8000


 k       eigenvalues [eV]
  1         -8.37  11.25  11.25  11.72  18.16  20.83  20.83  25.88
  2         -5.49   3.70   9.54   9.80  19.97  23.00  23.31  26.49
  3         -6.61   8.39   8.89   8.89  17.38  22.88  25.11  25.11
  4         -6.05   6.36   7.47  10.16  19.56  23.19  24.50  24.97
  5         -3.91   1.17   8.39  10.18  21.09  22.29  23.02  28.63
  6         -2.81   2.00   6.16   8.19  18.85  24.44  26.22  26.49
  7         -2.04   0.38   6.64   8.36  21.29  22.43  26.35  28.35
  8         -3.78   4.15   7.21   7.21  16.82  19.34  28.83  28.83
  9         -3.27   3.76   5.95   7.02  19.17  21.35  26.29  28.86
 10         -1.86   2.34   3.98   7.48  21.20  23.92  26.09  27.95
 11         -7.78   8.96   9.70  12.33  19.84  21.13  21.24  26.54
 12         -4.40   4.06   5.24  10.02  20.76  23.22  25.45  26.91
 13         -0.28   0.99   3.57   7.68  18.31  23.74  28.13  29.13
 14         -0.07  -0.07   6.69   6.69  17.37  17.37  30.76  30.76
 15          0.27   0.27   5.60   5.60  19.57  19.57  29.08  29.08
 16          0.74   0.74   4.52   4.52  23.57  23.57  25.36  25.36
 17         -7.20   6.32  11.37  11.37  20.94  20.94  21.05  27.64
 18         -3.12  -0.66  10.25  10.25  21.41  21.62  21.62  28.47
 19         -8.97  12.95  12.95  12.95  18.52  18.52  18.52  25.71
 Number of electrons calculated from density =    7.9937; Expected =    8.0000
 average of density, n =  0.104400
 r_s =    1.3175
 omega_plasma =   31.1678 [eV]


 rdqps: reading QP wavefunctions of the previous step 
        looking for file t41i_DS4_QPS
 file not found, 1st iteration initialized with KS eigenelements 

 Number of electrons calculated from density =    7.9937; Expected =    8.0000
 average of density, n =  0.104400
 r_s =    1.3175
 omega_plasma =   31.1678 [eV]


--------------------------------------------------------------------------------

 QP results after the unitary transformation in the KS subspace: 

  Number of electrons    =    7.9937

  QP Band energy    [Ha] =  1.13818376545189E+00
  QP Hartree energy [Ha] =  9.04317164590962E-01

--------------------------------------------------------------------------------

 === KS Band Gaps ===
  >>>> For spin  1
   Minimum optical gap =   5.5677 [eV], located at k-point      :   0.0000  0.0000  0.0000
   Fundamental gap     =   3.8643 [eV], Top of valence bands at :   0.0000  0.0000  0.0000
                                        Bottom of conduction at :  -0.3750 -0.3750  0.0000
 SIGMA fundamental parameters:
 Hartree-Fock
 number of plane-waves for SigmaX                  137
 number of plane-waves for SigmaC and W              1
 number of plane-waves for wavefunctions           137
 number of bands                                     8
 number of independent spin polarizations            1
 number of spinorial components                      1
 number of k-points in IBZ                          19
 number of q-points in IBZ                          19
 number of symmetry operations                      48
 number of k-points in BZ                          256
 number of q-points in BZ                          256
 number of frequencies for dSigma/dE                 1
 frequency step for dSigma/dE [eV]                0.00
 number of omega for Sigma on real axis              0
 max omega for Sigma on real axis  [eV]           0.00
 zcut for avoiding poles [eV]                     0.10

 matrix elements of self-energy operator (all in [eV])

 Self-Consistent on Energies only

 k =    0.000   0.000   0.000
 Band     E_lda   <Vxclda>   E(N-1)  <Hhartree>   SigX  SigC[E(N-1)]    Z     dSigC/dE  Sig[E(N)]  DeltaE  E(N)_pert E(N)_diago
    1    -8.965   -14.841    -8.965    -5.995    -5.136     0.000     1.000     0.000    -5.136    -2.166   -11.131   -11.131
    2    12.951   -16.710    12.951    15.885    -3.828     0.000     1.000     0.000    -3.828    -0.894    12.057    12.057
    3    12.951   -16.710    12.951    15.885    -3.828     0.000     1.000     0.000    -3.828    -0.894    12.057    12.057
    4    12.951   -16.710    12.951    15.885    -3.828     0.000     1.000     0.000    -3.828    -0.894    12.057    12.057
    5    18.519   -15.395    18.519    21.404    -1.874     0.000     1.000     0.000    -1.874     1.011    19.530    19.530
    6    18.519   -15.395    18.519    21.404    -1.874     0.000     1.000     0.000    -1.874     1.011    19.530    19.530
    7    18.519   -15.395    18.519    21.404    -1.874     0.000     1.000     0.000    -1.874     1.011    19.530    19.530
    8    25.707   -16.219    25.707    28.751    -1.628     0.000     1.000     0.000    -1.628     1.416    27.123    27.123

 E^0_gap          5.568
 E^GW_gap         7.473
 DeltaE^GW_gap    1.906


 writing QP data on file : t41o_DS4_QPS

 Convergence of QP corrections
 >>>>> For spin  1 <<<<<
.  kptgw no:  1; Maximum DeltaE = (  -2.166   0.000) for band index:  1

== END DATASET(S) ==============================================================
================================================================================
  
 -outvars: echo values of variables after computation  --------
            acell      6.7406530879E+00  6.7406530879E+00  6.7406530879E+00 Bohr
              amu      1.20110000E+01
             bdgw           1       8
           diemac      1.20000000E+01
             ecut1     1.20000000E+01 Hartree
             ecut2     1.04264636E+01 Hartree
             ecut3     1.04264636E+01 Hartree
             ecut4     1.04264636E+01 Hartree
         ecutsigx1     1.15000000E+01 Hartree
         ecutsigx2     1.04264636E+01 Hartree
         ecutsigx3     1.04264636E+01 Hartree
         ecutsigx4     1.04264636E+01 Hartree
          ecutwfn1     1.15000000E+01 Hartree
          ecutwfn2     1.04264636E+01 Hartree
          ecutwfn3     1.04264636E+01 Hartree
          ecutwfn4     1.04264636E+01 Hartree
           enunit           1
           etotal1    -1.1928648088E+01
           etotal2     0.0000000000E+00
           etotal3     0.0000000000E+00
           etotal4     0.0000000000E+00
            fcart1    -0.0000000000E+00 -0.0000000000E+00 -0.0000000000E+00
                      -0.0000000000E+00 -0.0000000000E+00 -0.0000000000E+00
            fcart2     0.0000000000E+00  0.0000000000E+00  0.0000000000E+00
                       0.0000000000E+00  0.0000000000E+00  0.0000000000E+00
            fcart3     0.0000000000E+00  0.0000000000E+00  0.0000000000E+00
                       0.0000000000E+00  0.0000000000E+00  0.0000000000E+00
            fcart4     0.0000000000E+00  0.0000000000E+00  0.0000000000E+00
                       0.0000000000E+00  0.0000000000E+00  0.0000000000E+00
-          fftalg         112
           getkss           1
        gwcalctyp1          0
        gwcalctyp2        115
        gwcalctyp3        215
        gwcalctyp4        315
           gwpara           2
         icutcoul1          6
         icutcoul2          5
         icutcoul3          6
         icutcoul4          6
           istwfk        0    0    0    0    0    0    0    0    0    0
                         0    0    0    1    0    0    0    1    1
           jdtset        1    2    3    4
              kpt     -1.25000000E-01 -1.25000000E-01  0.00000000E+00
                      -1.25000000E-01 -3.75000000E-01  0.00000000E+00
                      -2.50000000E-01 -2.50000000E-01  0.00000000E+00
                      -1.25000000E-01 -2.50000000E-01  1.25000000E-01
                      -1.25000000E-01  3.75000000E-01  0.00000000E+00
                      -2.50000000E-01  5.00000000E-01  0.00000000E+00
                      -1.25000000E-01  5.00000000E-01  1.25000000E-01
                      -3.75000000E-01 -3.75000000E-01  0.00000000E+00
                      -2.50000000E-01 -3.75000000E-01  1.25000000E-01
                      -1.25000000E-01 -3.75000000E-01  2.50000000E-01
                      -1.25000000E-01  1.25000000E-01  0.00000000E+00
                      -2.50000000E-01  2.50000000E-01  0.00000000E+00
                      -3.75000000E-01  3.75000000E-01  0.00000000E+00
                       5.00000000E-01  5.00000000E-01  0.00000000E+00
                      -3.75000000E-01  5.00000000E-01  1.25000000E-01
                      -2.50000000E-01  5.00000000E-01  2.50000000E-01
                      -2.50000000E-01  0.00000000E+00  0.00000000E+00
                       5.00000000E-01  0.00000000E+00  0.00000000E+00
                       0.00000000E+00  0.00000000E+00  0.00000000E+00
         kptrlatt        4   -4    4     -4    4    4     -4   -4    4
          kptrlen      2.69626124E+01
P           mkmem          19
            natom           2
            nband           8
           ndtset           4
            ngfft1         16      16      16
            ngfft2         15      15      15
            ngfft3         15      15      15
            ngfft4         15      15      15
             nkpt          19
           nkptgw           1
          npwsigx1          0
          npwsigx2        137
          npwsigx3        137
          npwsigx4        137
           npwwfn1          0
           npwwfn2        137
           npwwfn3        137
           npwwfn4        137
          nshsigx1          0
          nshsigx2         10
          nshsigx3         10
          nshsigx4         10
            nstep         250
             nsym          48
           ntypat           1
              occ      2.000000  2.000000  2.000000  2.000000  0.000000  0.000000
                       0.000000  0.000000
        optdriver1          0
        optdriver2          4
        optdriver3          4
        optdriver4          4
             rcut1     0.00000000E+00 Bohr
             rcut2     9.09090900E+00 Bohr
             rcut3     0.00000000E+00 Bohr
             rcut4     0.00000000E+00 Bohr
            rprim      0.0000000000E+00  5.0000000000E-01  5.0000000000E-01
                       5.0000000000E-01  0.0000000000E+00  5.0000000000E-01
                       5.0000000000E-01  5.0000000000E-01  0.0000000000E+00
          spgroup         227
           strten1     3.6504966721E-03  3.6504966721E-03  3.6504966721E-03
                       0.0000000000E+00  0.0000000000E+00  0.0000000000E+00
           strten2     0.0000000000E+00  0.0000000000E+00  0.0000000000E+00
                       0.0000000000E+00  0.0000000000E+00  0.0000000000E+00
           strten3     0.0000000000E+00  0.0000000000E+00  0.0000000000E+00
                       0.0000000000E+00  0.0000000000E+00  0.0000000000E+00
           strten4     0.0000000000E+00  0.0000000000E+00  0.0000000000E+00
                       0.0000000000E+00  0.0000000000E+00  0.0000000000E+00
           symrel      1  0  0   0  1  0   0  0  1      -1  0  0   0 -1  0   0  0 -1
                       0 -1  1   0 -1  0   1 -1  0       0  1 -1   0  1  0  -1  1  0
                      -1  0  0  -1  0  1  -1  1  0       1  0  0   1  0 -1   1 -1  0
                       0  1 -1   1  0 -1   0  0 -1       0 -1  1  -1  0  1   0  0  1
                      -1  0  0  -1  1  0  -1  0  1       1  0  0   1 -1  0   1  0 -1
                       0 -1  1   1 -1  0   0 -1  0       0  1 -1  -1  1  0   0  1  0
                       1  0  0   0  0  1   0  1  0      -1  0  0   0  0 -1   0 -1  0
                       0  1 -1   0  0 -1   1  0 -1       0 -1  1   0  0  1  -1  0  1
                      -1  0  1  -1  1  0  -1  0  0       1  0 -1   1 -1  0   1  0  0
                       0 -1  0   1 -1  0   0 -1  1       0  1  0  -1  1  0   0  1 -1
                       1  0 -1   0  0 -1   0  1 -1      -1  0  1   0  0  1   0 -1  1
                       0  1  0   0  0  1   1  0  0       0 -1  0   0  0 -1  -1  0  0
                       1  0 -1   0  1 -1   0  0 -1      -1  0  1   0 -1  1   0  0  1
                       0 -1  0   0 -1  1   1 -1  0       0  1  0   0  1 -1  -1  1  0
                      -1  0  1  -1  0  0  -1  1  0       1  0 -1   1  0  0   1 -1  0
                       0  1  0   1  0  0   0  0  1       0 -1  0  -1  0  0   0  0 -1
                       0  0 -1   0  1 -1   1  0 -1       0  0  1   0 -1  1  -1  0  1
                       1 -1  0   0 -1  1   0 -1  0      -1  1  0   0  1 -1   0  1  0
                       0  0  1   1  0  0   0  1  0       0  0 -1  -1  0  0   0 -1  0
                      -1  1  0  -1  0  0  -1  0  1       1 -1  0   1  0  0   1  0 -1
                       0  0  1   0  1  0   1  0  0       0  0 -1   0 -1  0  -1  0  0
                       1 -1  0   0 -1  0   0 -1  1      -1  1  0   0  1  0   0  1 -1
                       0  0 -1   1  0 -1   0  1 -1       0  0  1  -1  0  1   0 -1  1
                      -1  1  0  -1  0  1  -1  0  0       1 -1  0   1  0 -1   1  0  0
         symsigma        1
            tnons      0.0000000  0.0000000  0.0000000     0.2500000  0.2500000  0.2500000
                       0.0000000  0.0000000  0.0000000     0.2500000  0.2500000  0.2500000
                       0.0000000  0.0000000  0.0000000     0.2500000  0.2500000  0.2500000
                       0.0000000  0.0000000  0.0000000     0.2500000  0.2500000  0.2500000
                       0.0000000  0.0000000  0.0000000     0.2500000  0.2500000  0.2500000
                       0.0000000  0.0000000  0.0000000     0.2500000  0.2500000  0.2500000
                       0.0000000  0.0000000  0.0000000     0.2500000  0.2500000  0.2500000
                       0.0000000  0.0000000  0.0000000     0.2500000  0.2500000  0.2500000
                       0.0000000  0.0000000  0.0000000     0.2500000  0.2500000  0.2500000
                       0.0000000  0.0000000  0.0000000     0.2500000  0.2500000  0.2500000
                       0.0000000  0.0000000  0.0000000     0.2500000  0.2500000  0.2500000
                       0.0000000  0.0000000  0.0000000     0.2500000  0.2500000  0.2500000
                       0.0000000  0.0000000  0.0000000     0.2500000  0.2500000  0.2500000
                       0.0000000  0.0000000  0.0000000     0.2500000  0.2500000  0.2500000
                       0.0000000  0.0000000  0.0000000     0.2500000  0.2500000  0.2500000
                       0.0000000  0.0000000  0.0000000     0.2500000  0.2500000  0.2500000
                       0.0000000  0.0000000  0.0000000     0.2500000  0.2500000  0.2500000
                       0.0000000  0.0000000  0.0000000     0.2500000  0.2500000  0.2500000
                       0.0000000  0.0000000  0.0000000     0.2500000  0.2500000  0.2500000
                       0.0000000  0.0000000  0.0000000     0.2500000  0.2500000  0.2500000
                       0.0000000  0.0000000  0.0000000     0.2500000  0.2500000  0.2500000
                       0.0000000  0.0000000  0.0000000     0.2500000  0.2500000  0.2500000
                       0.0000000  0.0000000  0.0000000     0.2500000  0.2500000  0.2500000
                       0.0000000  0.0000000  0.0000000     0.2500000  0.2500000  0.2500000
           tolvrs      1.00000000E-10
            typat      1  1
              wtk        0.02344    0.09375    0.02344    0.09375    0.09375    0.09375
                         0.09375    0.02344    0.09375    0.09375    0.04688    0.04688
                         0.04688    0.01172    0.04688    0.02344    0.03125    0.01563
                         0.00391
           xangst      0.0000000000E+00  0.0000000000E+00  0.0000000000E+00
                       8.9174999628E-01  8.9174999628E-01  8.9174999628E-01
            xcart      0.0000000000E+00  0.0000000000E+00  0.0000000000E+00
                       1.6851632720E+00  1.6851632720E+00  1.6851632720E+00
             xred      0.0000000000E+00  0.0000000000E+00  0.0000000000E+00
                       2.5000000000E-01  2.5000000000E-01  2.5000000000E-01
            znucl        6.00000

================================================================================


- Timing analysis has been suppressed with timopt=0



================================================================================

 Suggested references for the acknowledgment of ABINIT usage.

 The users of ABINIT have little formal obligations with respect to the ABINIT group
 (those specified in the GNU General Public License, http://www.gnu.org/copyleft/gpl.txt).
 However, it is common practice in the scientific literature,
 to acknowledge the efforts of people that have made the research possible.
 In this spirit, please find below suggested citations of work written by ABINIT developers,
 corresponding to implementations inside of ABINIT that you have used in the present run.
 Note also that it will be of great value to readers of publications presenting these results,
 to read papers enabling them to understand the theoretical formalism and details
 of the ABINIT implementation.
 For information on why they are suggested, see also http://www.abinit.org/about/?text=acknowledgments.

 [1] Effect of self-consistency on quasiparticles in solids
 F. Bruneval, N. Vast, L. Reining, Phys. Rev. B 74, 045102 (2006).
 Comment : in case gwcalctyp >= 10.

 [2] Libxc: A library of exchange and correlation functionals for density functional theory.
 M.A.L. Marques, M.J.T. Oliveira, T. Burnus, Computer Physics Communications 183, 2227 (2012).
 Comment : to be cited when LibXC is used (negative value of ixc)
 Strong suggestion to cite this paper.

 [3] ABINIT : First-principles approach of materials and nanosystem properties.
 X. Gonze, B. Amadon, P.-M. Anglade, J.-M. Beuken, F. Bottin, P. Boulanger, F. Bruneval,
 D. Caliste, R. Caracas, M. Cote, T. Deutsch, L. Genovese, Ph. Ghosez, M. Giantomassi
 S. Goedecker, D.R. Hamann, P. Hermet, F. Jollet, G. Jomard, S. Leroux, M. Mancini, S. Mazevet,
 M.J.T. Oliveira, G. Onida, Y. Pouillon, T. Rangel, G.-M. Rignanese, D. Sangalli, R. Shaltaf,
 M. Torrent, M.J. Verstraete, G. Zerah, J.W. Zwanziger
 Computer Phys. Comm. 180, 2582-2615 (2009).
 Comment : the third generic paper describing the ABINIT project.
 Note that a version of this paper, that is not formatted for Computer Phys. Comm. 
 is available at http://www.abinit.org/about/ABINIT_CPC_v10.pdf .
 The licence allows the authors to put it on the Web.

 [4] A brief introduction to the ABINIT software package.
 X. Gonze, G.-M. Rignanese, M. Verstraete, J.-M. Beuken, Y. Pouillon, R. Caracas, F. Jollet,
 M. Torrent, G. Zerah, M. Mikami, Ph. Ghosez, M. Veithen, J.-Y. Raty, V. Olevano, F. Bruneval,
 L. Reining, R. Godby, G. Onida, D.R. Hamann, and D.C. Allan.
 Z. Kristallogr. 220, 558-562 (2005).
 Comment : the second generic paper describing the ABINIT project. Note that this paper
 should be cited especially if you are using the GW part of ABINIT, as several authors
 of this part are not in the list of authors of the first or third paper.
 The .pdf of the latter paper is available at http://www.abinit.org/about/zfk_0505-06_558-562.pdf.
 Note that it should not redistributed (Copyright by Oldenburg Wissenshaftverlag,
 the licence allows the authors to put it on the Web).


 And optionally :

 [5] First-principles computation of material properties : the ABINIT software project. 
 X. Gonze, J.-M. Beuken, R. Caracas, F. Detraux, M. Fuchs, G.-M. Rignanese, L. Sindic,
 M. Verstraete, G. Zerah, F. Jollet, M. Torrent, A. Roy, M. Mikami, Ph. Ghosez, J.-Y. Raty, D.C. Allan.
 Computational Materials Science 25, 478-492 (2002). http://dx.doi.org/10.1016/S0927-0256(02)00325-7
 Comment : the original paper describing the ABINIT project.
-
- Proc.   0 individual time (sec): cpu=          3.3  wall=          3.3

================================================================================

 Calculation completed.
.Delivered   12 WARNINGs and   9 COMMENTs to log file.
+Overall time at end (sec) : cpu=          3.3  wall=          3.3
