
.Version 7.10.4 of ABINIT 
.(MPI version, prepared for a x86_64_linux_gnu4.7 computer) 

.Copyright (C) 1998-2014 ABINIT group . 
 ABINIT comes with ABSOLUTELY NO WARRANTY.
 It is free software, and you are welcome to redistribute it
 under certain conditions (GNU General Public License,
 see ~abinit/COPYING or http://www.gnu.org/copyleft/gpl.txt).

 ABINIT is a project of the Universite Catholique de Louvain,
 Corning Inc. and other collaborators, see ~abinit/doc/developers/contributors.txt .
 Please read ~abinit/doc/users/acknowledgments.html for suggested
 acknowledgments of the ABINIT effort.
 For more information, see http://www.abinit.org .

.Starting date : Sun  1 Feb 2015.
- ( at 15h01 )
  
- input  file    -> t82.in
- output file    -> t82.out
- root for input  files -> t82i
- root for output files -> t82o


 DATASET   11 : space group Fd -3 m (#227); Bravais cF (face-center cubic)
================================================================================
 Values of the parameters that define the memory need for DATASET 11.
   intxc =         0  ionmov =         0    iscf =         7 xclevel =         1
  lmnmax =        13   lnmax =         5   mband =         5  mffmem =         1
P  mgfft =        12   mkmem =         2 mpssoang=         3     mpw =        69
  mqgrid =      3001   natom =         2    nfft =      1728    nkpt =         2
  nloalg =         4  nspden =         1 nspinor =         1  nsppol =         1
    nsym =        48  n1xccc =         1  ntypat =         1  occopt =         1
 PAW method is used; the additional fine FFT grid is defined by:
   mgfftf=        16    nfftf =      4096
================================================================================
P This job should need less than                       2.227 Mbytes of memory.
  Rough estimation (10% accuracy) of disk space for files :
_ WF disk file :      0.013 Mbytes ; DEN or POT disk file :      0.033 Mbytes.
================================================================================


 DATASET   12 : space group Fd -3 m (#227); Bravais cF (face-center cubic)
================================================================================
 Values of the parameters that define the memory need for DATASET 12.
   intxc =         0  ionmov =         0    iscf =         7 xclevel =         1
  lmnmax =        13   lnmax =         5   mband =         5  mffmem =         1
P  mgfft =        12   mkmem =         2 mpssoang=         3     mpw =        69
  mqgrid =      3001   natom =         2    nfft =      1728    nkpt =         2
  nloalg =         4  nspden =         1 nspinor =         1  nsppol =         1
    nsym =        48  n1xccc =         1  ntypat =         1  occopt =         1
 PAW method is used; the additional fine FFT grid is defined by:
   mgfftf=        16    nfftf =      4096
================================================================================
P This job should need less than                       2.227 Mbytes of memory.
  Rough estimation (10% accuracy) of disk space for files :
_ WF disk file :      0.013 Mbytes ; DEN or POT disk file :      0.033 Mbytes.
================================================================================


 DATASET   21 : space group Fd -3 m (#227); Bravais cF (face-center cubic)
================================================================================
 Values of the parameters that define the memory need for DATASET 21 (RF).
   intxc =         0    iscf =        -3 xclevel =         1  lmnmax =        13
   lnmax =         5   mband =         5  mffmem =         1   mgfft =        12
P  mkmem =        16  mkqmem =        16  mk1mem =        16 mpssoang=         3
     mpw =        69  mqgrid =      3001   natom =         2    nfft =      1728
    nkpt =        16  nloalg =         4  nspden =         1 nspinor =         1
  nsppol =         1    nsym =        48  n1xccc =         1  ntypat =         1
  occopt =         1
================================================================================
P This job should need less than                       1.396 Mbytes of memory.
  Rough estimation (10% accuracy) of disk space for files :
_ WF disk file :      0.086 Mbytes ; DEN or POT disk file :      0.015 Mbytes.
================================================================================


 DATASET   22 : space group Fd -3 m (#227); Bravais cF (face-center cubic)
================================================================================
 Values of the parameters that define the memory need for DATASET 22 (RF).
   intxc =         0    iscf =        -3 xclevel =         1  lmnmax =        13
   lnmax =         5   mband =         5  mffmem =         1   mgfft =        12
P  mkmem =        16  mkqmem =        16  mk1mem =        16 mpssoang=         3
     mpw =        69  mqgrid =      3001   natom =         2    nfft =      1728
    nkpt =        16  nloalg =         4  nspden =         1 nspinor =         1
  nsppol =         1    nsym =        48  n1xccc =         1  ntypat =         1
  occopt =         1
================================================================================
P This job should need less than                       1.396 Mbytes of memory.
  Rough estimation (10% accuracy) of disk space for files :
_ WF disk file :      0.086 Mbytes ; DEN or POT disk file :      0.015 Mbytes.
================================================================================


 DATASET   31 : space group Fd -3 m (#227); Bravais cF (face-center cubic)
================================================================================
 Values of the parameters that define the memory need for DATASET 31 (RF).
   intxc =         0    iscf =         7 xclevel =         1  lmnmax =        13
   lnmax =         5   mband =         5  mffmem =         1   mgfft =        12
P  mkmem =        16  mkqmem =        16  mk1mem =        16 mpssoang=         3
     mpw =        69  mqgrid =      3001   natom =         2    nfft =      1728
    nkpt =        16  nloalg =         4  nspden =         1 nspinor =         1
  nsppol =         1    nsym =        48  n1xccc =         1  ntypat =         1
  occopt =         1
================================================================================
P This job should need less than                       1.689 Mbytes of memory.
  Rough estimation (10% accuracy) of disk space for files :
_ WF disk file :      0.086 Mbytes ; DEN or POT disk file :      0.015 Mbytes.
================================================================================


 DATASET   32 : space group Fd -3 m (#227); Bravais cF (face-center cubic)
================================================================================
 Values of the parameters that define the memory need for DATASET 32 (RF).
   intxc =         0    iscf =         7 xclevel =         1  lmnmax =        13
   lnmax =         5   mband =         5  mffmem =         1   mgfft =        12
P  mkmem =        16  mkqmem =        16  mk1mem =        16 mpssoang=         3
     mpw =        69  mqgrid =      3001   natom =         2    nfft =      1728
    nkpt =        16  nloalg =         4  nspden =         1 nspinor =         1
  nsppol =         1    nsym =        48  n1xccc =         1  ntypat =         1
  occopt =         1
================================================================================
P This job should need less than                       1.689 Mbytes of memory.
  Rough estimation (10% accuracy) of disk space for files :
_ WF disk file :      0.086 Mbytes ; DEN or POT disk file :      0.015 Mbytes.
================================================================================

--------------------------------------------------------------------------------
------------- Echo of variables that govern the present computation ------------
--------------------------------------------------------------------------------
-
- outvars: echo of selected default values                                      
-   accesswff0 =  0 , fftalg0 =112 , wfoptalg0 = 10
-
- outvars: echo of global parameters not present in the input file              
-  max_nthreads =    0
-
 -outvars: echo values of preprocessed input variables --------
            acell      1.0220000000E+01  1.0220000000E+01  1.0220000000E+01 Bohr
              amu      2.80855000E+01
             ecut      3.00000000E+00 Hartree
           enunit           2
-          fftalg         112
           getddk11         0
           getddk12         0
           getddk21         0
           getddk22         0
           getddk31        21
           getddk32        21
           getwfk11         0
           getwfk12         0
           getwfk21        11
           getwfk22        11
           getwfk31        11
           getwfk32        11
             iscf11         7
             iscf12         7
             iscf21        -3
             iscf22        -3
             iscf31         7
             iscf32         7
              ixc11         2
              ixc12     -1009
              ixc21         2
              ixc22     -1009
              ixc31         2
              ixc32     -1009
           jdtset       11   12   21   22   31   32
              kpt11   -2.50000000E-01  5.00000000E-01  0.00000000E+00
                      -2.50000000E-01  0.00000000E+00  0.00000000E+00
              kpt12   -2.50000000E-01  5.00000000E-01  0.00000000E+00
                      -2.50000000E-01  0.00000000E+00  0.00000000E+00
              kpt21   -2.50000000E-01  5.00000000E-01  0.00000000E+00
                       5.00000000E-01 -2.50000000E-01  0.00000000E+00
                      -2.50000000E-01 -2.50000000E-01  2.50000000E-01
                      -2.50000000E-01  0.00000000E+00  0.00000000E+00
                      -2.50000000E-01  2.50000000E-01  2.50000000E-01
                       5.00000000E-01  5.00000000E-01  2.50000000E-01
                      -2.50000000E-01  5.00000000E-01  5.00000000E-01
                       0.00000000E+00 -2.50000000E-01  0.00000000E+00
                       2.50000000E-01 -2.50000000E-01  2.50000000E-01
                       5.00000000E-01 -2.50000000E-01  5.00000000E-01
                      -2.50000000E-01 -2.50000000E-01 -2.50000000E-01
                       5.00000000E-01  0.00000000E+00  2.50000000E-01
                      -2.50000000E-01  0.00000000E+00  5.00000000E-01
                       0.00000000E+00  5.00000000E-01  2.50000000E-01
                       0.00000000E+00 -2.50000000E-01  5.00000000E-01
                       0.00000000E+00  0.00000000E+00  2.50000000E-01
              kpt22   -2.50000000E-01  5.00000000E-01  0.00000000E+00
                       5.00000000E-01 -2.50000000E-01  0.00000000E+00
                      -2.50000000E-01 -2.50000000E-01  2.50000000E-01
                      -2.50000000E-01  0.00000000E+00  0.00000000E+00
                      -2.50000000E-01  2.50000000E-01  2.50000000E-01
                       5.00000000E-01  5.00000000E-01  2.50000000E-01
                      -2.50000000E-01  5.00000000E-01  5.00000000E-01
                       0.00000000E+00 -2.50000000E-01  0.00000000E+00
                       2.50000000E-01 -2.50000000E-01  2.50000000E-01
                       5.00000000E-01 -2.50000000E-01  5.00000000E-01
                      -2.50000000E-01 -2.50000000E-01 -2.50000000E-01
                       5.00000000E-01  0.00000000E+00  2.50000000E-01
                      -2.50000000E-01  0.00000000E+00  5.00000000E-01
                       0.00000000E+00  5.00000000E-01  2.50000000E-01
                       0.00000000E+00 -2.50000000E-01  5.00000000E-01
                       0.00000000E+00  0.00000000E+00  2.50000000E-01
              kpt31   -2.50000000E-01  5.00000000E-01  0.00000000E+00
                       5.00000000E-01 -2.50000000E-01  0.00000000E+00
                      -2.50000000E-01 -2.50000000E-01  2.50000000E-01
                      -2.50000000E-01  0.00000000E+00  0.00000000E+00
                      -2.50000000E-01  2.50000000E-01  2.50000000E-01
                       5.00000000E-01  5.00000000E-01  2.50000000E-01
                      -2.50000000E-01  5.00000000E-01  5.00000000E-01
                       0.00000000E+00 -2.50000000E-01  0.00000000E+00
                       2.50000000E-01 -2.50000000E-01  2.50000000E-01
                       5.00000000E-01 -2.50000000E-01  5.00000000E-01
                      -2.50000000E-01 -2.50000000E-01 -2.50000000E-01
                       5.00000000E-01  0.00000000E+00  2.50000000E-01
                      -2.50000000E-01  0.00000000E+00  5.00000000E-01
                       0.00000000E+00  5.00000000E-01  2.50000000E-01
                       0.00000000E+00 -2.50000000E-01  5.00000000E-01
                       0.00000000E+00  0.00000000E+00  2.50000000E-01
              kpt32   -2.50000000E-01  5.00000000E-01  0.00000000E+00
                       5.00000000E-01 -2.50000000E-01  0.00000000E+00
                      -2.50000000E-01 -2.50000000E-01  2.50000000E-01
                      -2.50000000E-01  0.00000000E+00  0.00000000E+00
                      -2.50000000E-01  2.50000000E-01  2.50000000E-01
                       5.00000000E-01  5.00000000E-01  2.50000000E-01
                      -2.50000000E-01  5.00000000E-01  5.00000000E-01
                       0.00000000E+00 -2.50000000E-01  0.00000000E+00
                       2.50000000E-01 -2.50000000E-01  2.50000000E-01
                       5.00000000E-01 -2.50000000E-01  5.00000000E-01
                      -2.50000000E-01 -2.50000000E-01 -2.50000000E-01
                       5.00000000E-01  0.00000000E+00  2.50000000E-01
                      -2.50000000E-01  0.00000000E+00  5.00000000E-01
                       0.00000000E+00  5.00000000E-01  2.50000000E-01
                       0.00000000E+00 -2.50000000E-01  5.00000000E-01
                       0.00000000E+00  0.00000000E+00  2.50000000E-01
           kptopt11         1
           kptopt12         1
           kptopt21         2
           kptopt22         2
           kptopt31         2
           kptopt32         2
         kptrlatt        2   -2    2     -2    2    2     -2   -2    2
          kptrlen      2.04400000E+01
P           mkmem11         2
P           mkmem12         2
P           mkmem21        16
P           mkmem22        16
P           mkmem31        16
P           mkmem32        16
P          mkqmem11         2
P          mkqmem12         2
P          mkqmem21        16
P          mkqmem22        16
P          mkqmem31        16
P          mkqmem32        16
P          mk1mem11         2
P          mk1mem12         2
P          mk1mem21        16
P          mk1mem22        16
P          mk1mem31        16
P          mk1mem32        16
            natom           2
            nband11         5
            nband12         5
            nband21         5
            nband22         5
            nband31         5
            nband32         5
           ndtset           6
            ngfft          12      12      12
          ngfftdg          16      16      16
             nkpt11         2
             nkpt12         2
             nkpt21        16
             nkpt22        16
             nkpt31        16
             nkpt32        16
             nqpt11         0
             nqpt12         0
             nqpt21         1
             nqpt22         1
             nqpt31         1
             nqpt32         1
            nstep           3
             nsym          48
           ntypat           1
              occ11    2.000000  2.000000  2.000000  2.000000  0.000000
              occ12    2.000000  2.000000  2.000000  2.000000  0.000000
              occ21    2.000000  2.000000  2.000000  2.000000  0.000000
              occ22    2.000000  2.000000  2.000000  2.000000  0.000000
              occ31    2.000000  2.000000  2.000000  2.000000  0.000000
              occ32    2.000000  2.000000  2.000000  2.000000  0.000000
        optdriver11         0
        optdriver12         0
        optdriver21         1
        optdriver22         1
        optdriver31         1
        optdriver32         1
        pawecutdg      6.00000000E+00 Hartree
         pawxcdev           0
            rfdir11         0       0       0
            rfdir12         0       0       0
            rfdir21         1       1       1
            rfdir22         1       1       1
            rfdir31         1       0       0
            rfdir32         1       0       0
           rfelfd11         0
           rfelfd12         0
           rfelfd21         2
           rfelfd22         2
           rfelfd31         0
           rfelfd32         0
           rfphon11         0
           rfphon12         0
           rfphon21         0
           rfphon22         0
           rfphon31         1
           rfphon32         1
            rprim      0.0000000000E+00  5.0000000000E-01  5.0000000000E-01
                       5.0000000000E-01  0.0000000000E+00  5.0000000000E-01
                       5.0000000000E-01  5.0000000000E-01  0.0000000000E+00
           shiftk      5.00000000E-01  5.00000000E-01  5.00000000E-01
          spgroup         227
           symrel      1  0  0   0  1  0   0  0  1      -1  0  0   0 -1  0   0  0 -1
                       0 -1  1   0 -1  0   1 -1  0       0  1 -1   0  1  0  -1  1  0
                      -1  0  0  -1  0  1  -1  1  0       1  0  0   1  0 -1   1 -1  0
                       0  1 -1   1  0 -1   0  0 -1       0 -1  1  -1  0  1   0  0  1
                      -1  0  0  -1  1  0  -1  0  1       1  0  0   1 -1  0   1  0 -1
                       0 -1  1   1 -1  0   0 -1  0       0  1 -1  -1  1  0   0  1  0
                       1  0  0   0  0  1   0  1  0      -1  0  0   0  0 -1   0 -1  0
                       0  1 -1   0  0 -1   1  0 -1       0 -1  1   0  0  1  -1  0  1
                      -1  0  1  -1  1  0  -1  0  0       1  0 -1   1 -1  0   1  0  0
                       0 -1  0   1 -1  0   0 -1  1       0  1  0  -1  1  0   0  1 -1
                       1  0 -1   0  0 -1   0  1 -1      -1  0  1   0  0  1   0 -1  1
                       0  1  0   0  0  1   1  0  0       0 -1  0   0  0 -1  -1  0  0
                       1  0 -1   0  1 -1   0  0 -1      -1  0  1   0 -1  1   0  0  1
                       0 -1  0   0 -1  1   1 -1  0       0  1  0   0  1 -1  -1  1  0
                      -1  0  1  -1  0  0  -1  1  0       1  0 -1   1  0  0   1 -1  0
                       0  1  0   1  0  0   0  0  1       0 -1  0  -1  0  0   0  0 -1
                       0  0 -1   0  1 -1   1  0 -1       0  0  1   0 -1  1  -1  0  1
                       1 -1  0   0 -1  1   0 -1  0      -1  1  0   0  1 -1   0  1  0
                       0  0  1   1  0  0   0  1  0       0  0 -1  -1  0  0   0 -1  0
                      -1  1  0  -1  0  0  -1  0  1       1 -1  0   1  0  0   1  0 -1
                       0  0  1   0  1  0   1  0  0       0  0 -1   0 -1  0  -1  0  0
                       1 -1  0   0 -1  0   0 -1  1      -1  1  0   0  1  0   0  1 -1
                       0  0 -1   1  0 -1   0  1 -1       0  0  1  -1  0  1   0 -1  1
                      -1  1  0  -1  0  1  -1  0  0       1 -1  0   1  0 -1   1  0  0
            tnons      0.0000000  0.0000000  0.0000000     0.0000000  0.0000000  0.0000000
                       0.0000000  0.5000000  0.0000000     0.0000000  0.5000000  0.0000000
                       0.5000000  0.0000000  0.0000000     0.5000000  0.0000000  0.0000000
                       0.0000000  0.0000000  0.5000000     0.0000000  0.0000000  0.5000000
                       0.5000000  0.0000000  0.0000000     0.5000000  0.0000000  0.0000000
                       0.0000000  0.5000000  0.0000000     0.0000000  0.5000000  0.0000000
                       0.0000000  0.0000000  0.0000000     0.0000000  0.0000000  0.0000000
                       0.0000000  0.0000000  0.5000000     0.0000000  0.0000000  0.5000000
                       0.5000000  0.0000000  0.0000000     0.5000000  0.0000000  0.0000000
                       0.0000000  0.5000000  0.0000000     0.0000000  0.5000000  0.0000000
                       0.0000000  0.0000000  0.5000000     0.0000000  0.0000000  0.5000000
                       0.0000000  0.0000000  0.0000000     0.0000000  0.0000000  0.0000000
                       0.0000000  0.0000000  0.5000000     0.0000000  0.0000000  0.5000000
                       0.0000000  0.5000000  0.0000000     0.0000000  0.5000000  0.0000000
                       0.5000000  0.0000000  0.0000000     0.5000000  0.0000000  0.0000000
                       0.0000000  0.0000000  0.0000000     0.0000000  0.0000000  0.0000000
                       0.0000000  0.0000000  0.5000000     0.0000000  0.0000000  0.5000000
                       0.0000000  0.5000000  0.0000000     0.0000000  0.5000000  0.0000000
                       0.0000000  0.0000000  0.0000000     0.0000000  0.0000000  0.0000000
                       0.5000000  0.0000000  0.0000000     0.5000000  0.0000000  0.0000000
                       0.0000000  0.0000000  0.0000000     0.0000000  0.0000000  0.0000000
                       0.0000000  0.5000000  0.0000000     0.0000000  0.5000000  0.0000000
                       0.0000000  0.0000000  0.5000000     0.0000000  0.0000000  0.5000000
                       0.5000000  0.0000000  0.0000000     0.5000000  0.0000000  0.0000000
           tolvrs11    1.00000000E-10
           tolvrs12    1.00000000E-10
           tolvrs21    0.00000000E+00
           tolvrs22    0.00000000E+00
           tolvrs31    1.00000000E-10
           tolvrs32    1.00000000E-10
           tolwfr11    0.00000000E+00
           tolwfr12    0.00000000E+00
           tolwfr21    1.00000000E-22
           tolwfr22    1.00000000E-22
           tolwfr31    0.00000000E+00
           tolwfr32    0.00000000E+00
            typat      1  1
           useylm           1
              wtk11      0.75000    0.25000
              wtk12      0.75000    0.25000
              wtk21      0.06250    0.06250    0.06250    0.06250    0.06250    0.06250
                         0.06250    0.06250    0.06250    0.06250    0.06250    0.06250
                         0.06250    0.06250    0.06250    0.06250
              wtk22      0.06250    0.06250    0.06250    0.06250    0.06250    0.06250
                         0.06250    0.06250    0.06250    0.06250    0.06250    0.06250
                         0.06250    0.06250    0.06250    0.06250
              wtk31      0.06250    0.06250    0.06250    0.06250    0.06250    0.06250
                         0.06250    0.06250    0.06250    0.06250    0.06250    0.06250
                         0.06250    0.06250    0.06250    0.06250
              wtk32      0.06250    0.06250    0.06250    0.06250    0.06250    0.06250
                         0.06250    0.06250    0.06250    0.06250    0.06250    0.06250
                         0.06250    0.06250    0.06250    0.06250
           xangst      6.7602388397E-01  6.7602388397E-01  6.7602388397E-01
                       4.7321671878E+00  4.7321671878E+00  4.7321671878E+00
            xcart      1.2775000000E+00  1.2775000000E+00  1.2775000000E+00
                       8.9425000000E+00  8.9425000000E+00  8.9425000000E+00
             xred      1.2500000000E-01  1.2500000000E-01  1.2500000000E-01
                       8.7500000000E-01  8.7500000000E-01  8.7500000000E-01
            znucl       14.00000

================================================================================

 chkinp: Checking input parameters for consistency, jdtset=  11.

 chkinp: Checking input parameters for consistency, jdtset=  12.

 chkinp: Checking input parameters for consistency, jdtset=  21.

 chkinp: Checking input parameters for consistency, jdtset=  22.

 chkinp: Checking input parameters for consistency, jdtset=  31.

 chkinp: Checking input parameters for consistency, jdtset=  32.

================================================================================
== DATASET 11 ==================================================================
-   nproc =    1

 Exchange-correlation functional for the present dataset will be:
  LDA: Perdew-Zunger-Ceperley-Alder - ixc=2
 Citation for XC functional:
  J.P.Perdew and A.Zunger, PRB 23, 5048 (1981)

 Real(R)+Recip(G) space primitive vectors, cartesian coordinates (Bohr,Bohr^-1):
 R(1)=  0.0000000  5.1100000  5.1100000  G(1)= -0.0978474  0.0978474  0.0978474
 R(2)=  5.1100000  0.0000000  5.1100000  G(2)=  0.0978474 -0.0978474  0.0978474
 R(3)=  5.1100000  5.1100000  0.0000000  G(3)=  0.0978474  0.0978474 -0.0978474
 Unit cell volume ucvol=  2.6686566E+02 bohr^3
 Angles (23,13,12)=  6.00000000E+01  6.00000000E+01  6.00000000E+01 degrees

 Coarse grid specifications (used for wave-functions):

 getcut: wavevector=  0.0000  0.0000  0.0000  ngfft=  12  12  12
         ecut(hartree)=      3.000   => boxcut(ratio)=   2.12971

 Fine grid specifications (used for densities):

 getcut: wavevector=  0.0000  0.0000  0.0000  ngfft=  16  16  16
         ecut(hartree)=      6.000   => boxcut(ratio)=   2.00791

--- Pseudopotential description ------------------------------------------------
- pspini: atom type   1  psp file is /data/ABINIT/testf_gcc47/trunk_7.10.4-training/tests/Psps_for_tests/Si-LDA.paw
- pspatm: opening atomic psp file    /data/ABINIT/testf_gcc47/trunk_7.10.4-training/tests/Psps_for_tests/Si-LDA.paw
- Paw atomic data for element Si - Generated by AtomPAW (N. Holzwarth) + AtomPAW2Abinit v3.1.1
- 14.00000   4.00000  20070412                znucl, zion, pspdat
    7    7    2    0      1398   0.00000      pspcod,pspxc,lmax,lloc,mmax,r2well
 Pseudopotential format is: paw3
 basis_size (lnmax)=  5 (lmn_size= 13), orbitals=   0   0   1   1   2
 Spheres core radius: rc_sph= 2.00437498
 4 radial meshes are used:
  - mesh 1: r(i)=AA*[exp(BB*(i-1))-1], size=1398 , AA= 0.43309E-03 BB= 0.60633E-02
  - mesh 2: r(i)=AA*[exp(BB*(i-1))-1], size=1393 , AA= 0.43309E-03 BB= 0.60633E-02
  - mesh 3: r(i)=AA*[exp(BB*(i-1))-1], size=1508 , AA= 0.43309E-03 BB= 0.60633E-02
  - mesh 4: r(i)=AA*[exp(BB*(i-1))-1], size=1658 , AA= 0.43309E-03 BB= 0.60633E-02
 Shapefunction is SIN type: shapef(r)=[sin(pi*r/rshp)/(pi*r/rshp)]**2
 Radius for shape functions = sphere core radius
 Radial grid used for partial waves is grid 1
 Radial grid used for projectors is grid  2
 Radial grid used for (t)core density is grid 3
 Radial grid used for Vloc is grid 4
 Compensation charge density is taken into account in XC energy/potential
 pspatm: atomic psp has been read  and splines computed

   5.68697669E+01                                ecore*ucvol(ha*bohr**3)
--------------------------------------------------------------------------------

P newkpt: treating      5 bands with npw=      69 for ikpt=   1 by node    0
P newkpt: treating      5 bands with npw=      65 for ikpt=   2 by node    0

_setup2: Arith. and geom. avg. npw (full set) are      68.000      67.977

================================================================================

     iter   Etot(hartree)      deltaE(h)  residm     vres2
 ETOT  1  -7.9823767631949    -7.982E+00 1.395E-02 2.512E+00
 ETOT  2  -7.9992667506708    -1.689E-02 1.954E-07 7.144E-01
 ETOT  3  -8.0002111826826    -9.444E-04 2.374E-05 1.221E-02

 Cartesian components of stress tensor (hartree/bohr^3)
  sigma(1 1)=  1.74997490E-04  sigma(3 2)=  0.00000000E+00
  sigma(2 2)=  1.74997490E-04  sigma(3 1)=  0.00000000E+00
  sigma(3 3)=  1.74997490E-04  sigma(2 1)=  0.00000000E+00


 scprqt:  WARNING -
  nstep=    3 was not enough SCF cycles to converge;
  potential residual=  1.221E-02 exceeds tolvrs=  1.000E-10


 PAW TEST:
 ==== Compensation charge inside spheres ============
 The following values must be close to each other ...
 Compensation charge over spherical meshes =     -0.278327423419745
 Compensation charge over fine fft grid    =     -0.278263035353154

 ==== Results concerning PAW augmentation regions ====

 Total pseudopotential strength Dij (hartree):
 Atom #  1
   0.46649  -1.45969   0.00000   0.00000   0.00000   0.00000   0.00000   0.00000   0.00000   0.00000   0.00000   0.00000 ...
  -1.45969   3.55262   0.00000   0.00000   0.00000   0.00000   0.00000   0.00000   0.00000   0.00000   0.00000   0.00000 ...
   0.00000   0.00000   0.11612   0.00000   0.00000  -0.36652   0.00000   0.00000   0.00000   0.00000   0.00000  -0.00034 ...
   0.00000   0.00000   0.00000   0.11612   0.00000   0.00000  -0.36652   0.00000  -0.00034   0.00000   0.00000   0.00000 ...
   0.00000   0.00000   0.00000   0.00000   0.11612   0.00000   0.00000  -0.36652   0.00000  -0.00034   0.00000   0.00000 ...
   0.00000   0.00000  -0.36652   0.00000   0.00000   1.19795   0.00000   0.00000   0.00000   0.00000   0.00000   0.00093 ...
   0.00000   0.00000   0.00000  -0.36652   0.00000   0.00000   1.19795   0.00000   0.00093   0.00000   0.00000   0.00000 ...
   0.00000   0.00000   0.00000   0.00000  -0.36652   0.00000   0.00000   1.19795   0.00000   0.00093   0.00000   0.00000 ...
   0.00000   0.00000   0.00000  -0.00034   0.00000   0.00000   0.00093   0.00000  -0.01210   0.00000   0.00000   0.00000 ...
   0.00000   0.00000   0.00000   0.00000  -0.00034   0.00000   0.00000   0.00093   0.00000  -0.01210   0.00000   0.00000 ...
   0.00000   0.00000   0.00000   0.00000   0.00000   0.00000   0.00000   0.00000   0.00000   0.00000  -0.01207   0.00000 ...
   0.00000   0.00000  -0.00034   0.00000   0.00000   0.00093   0.00000   0.00000   0.00000   0.00000   0.00000  -0.01210 ...
   ...  only 12  components have been written...
 Atom #  2
   0.46649  -1.45969   0.00000   0.00000   0.00000   0.00000   0.00000   0.00000   0.00000   0.00000   0.00000   0.00000 ...
  -1.45969   3.55262   0.00000   0.00000   0.00000   0.00000   0.00000   0.00000   0.00000   0.00000   0.00000   0.00000 ...
   0.00000   0.00000   0.11612   0.00000   0.00000  -0.36652   0.00000   0.00000   0.00000   0.00000   0.00000   0.00034 ...
   0.00000   0.00000   0.00000   0.11612   0.00000   0.00000  -0.36652   0.00000   0.00034   0.00000   0.00000   0.00000 ...
   0.00000   0.00000   0.00000   0.00000   0.11612   0.00000   0.00000  -0.36652   0.00000   0.00034   0.00000   0.00000 ...
   0.00000   0.00000  -0.36652   0.00000   0.00000   1.19795   0.00000   0.00000   0.00000   0.00000   0.00000  -0.00093 ...
   0.00000   0.00000   0.00000  -0.36652   0.00000   0.00000   1.19795   0.00000  -0.00093   0.00000   0.00000   0.00000 ...
   0.00000   0.00000   0.00000   0.00000  -0.36652   0.00000   0.00000   1.19795   0.00000  -0.00093   0.00000   0.00000 ...
   0.00000   0.00000   0.00000   0.00034   0.00000   0.00000  -0.00093   0.00000  -0.01210   0.00000   0.00000   0.00000 ...
   0.00000   0.00000   0.00000   0.00000   0.00034   0.00000   0.00000  -0.00093   0.00000  -0.01210   0.00000   0.00000 ...
   0.00000   0.00000   0.00000   0.00000   0.00000   0.00000   0.00000   0.00000   0.00000   0.00000  -0.01207   0.00000 ...
   0.00000   0.00000   0.00034   0.00000   0.00000  -0.00093   0.00000   0.00000   0.00000   0.00000   0.00000  -0.01210 ...
   ...  only 12  components have been written...

 Total pseudopotential strength Dij (eV):
 Atom #  1
  12.69384 -39.72014   0.00000   0.00000   0.00000   0.00000   0.00000   0.00000   0.00000   0.00000   0.00000   0.00000 ...
 -39.72014  96.67180   0.00000   0.00000   0.00000   0.00000   0.00000   0.00000   0.00000   0.00000   0.00000   0.00000 ...
   0.00000   0.00000   3.15971   0.00000   0.00000  -9.97362   0.00000   0.00000   0.00000   0.00000   0.00000  -0.00939 ...
   0.00000   0.00000   0.00000   3.15971   0.00000   0.00000  -9.97362   0.00000  -0.00939   0.00000   0.00000   0.00000 ...
   0.00000   0.00000   0.00000   0.00000   3.15971   0.00000   0.00000  -9.97362   0.00000  -0.00939   0.00000   0.00000 ...
   0.00000   0.00000  -9.97362   0.00000   0.00000  32.59796   0.00000   0.00000   0.00000   0.00000   0.00000   0.02530 ...
   0.00000   0.00000   0.00000  -9.97362   0.00000   0.00000  32.59796   0.00000   0.02530   0.00000   0.00000   0.00000 ...
   0.00000   0.00000   0.00000   0.00000  -9.97362   0.00000   0.00000  32.59796   0.00000   0.02530   0.00000   0.00000 ...
   0.00000   0.00000   0.00000  -0.00939   0.00000   0.00000   0.02530   0.00000  -0.32924   0.00000   0.00000   0.00000 ...
   0.00000   0.00000   0.00000   0.00000  -0.00939   0.00000   0.00000   0.02530   0.00000  -0.32924   0.00000   0.00000 ...
   0.00000   0.00000   0.00000   0.00000   0.00000   0.00000   0.00000   0.00000   0.00000   0.00000  -0.32852   0.00000 ...
   0.00000   0.00000  -0.00939   0.00000   0.00000   0.02530   0.00000   0.00000   0.00000   0.00000   0.00000  -0.32924 ...
   ...  only 12  components have been written...
 Atom #  2
  12.69384 -39.72014   0.00000   0.00000   0.00000   0.00000   0.00000   0.00000   0.00000   0.00000   0.00000   0.00000 ...
 -39.72014  96.67180   0.00000   0.00000   0.00000   0.00000   0.00000   0.00000   0.00000   0.00000   0.00000   0.00000 ...
   0.00000   0.00000   3.15971   0.00000   0.00000  -9.97362   0.00000   0.00000   0.00000   0.00000   0.00000   0.00939 ...
   0.00000   0.00000   0.00000   3.15971   0.00000   0.00000  -9.97362   0.00000   0.00939   0.00000   0.00000   0.00000 ...
   0.00000   0.00000   0.00000   0.00000   3.15971   0.00000   0.00000  -9.97362   0.00000   0.00939   0.00000   0.00000 ...
   0.00000   0.00000  -9.97362   0.00000   0.00000  32.59796   0.00000   0.00000   0.00000   0.00000   0.00000  -0.02530 ...
   0.00000   0.00000   0.00000  -9.97362   0.00000   0.00000  32.59796   0.00000  -0.02530   0.00000   0.00000   0.00000 ...
   0.00000   0.00000   0.00000   0.00000  -9.97362   0.00000   0.00000  32.59796   0.00000  -0.02530   0.00000   0.00000 ...
   0.00000   0.00000   0.00000   0.00939   0.00000   0.00000  -0.02530   0.00000  -0.32924   0.00000   0.00000   0.00000 ...
   0.00000   0.00000   0.00000   0.00000   0.00939   0.00000   0.00000  -0.02530   0.00000  -0.32924   0.00000   0.00000 ...
   0.00000   0.00000   0.00000   0.00000   0.00000   0.00000   0.00000   0.00000   0.00000   0.00000  -0.32852   0.00000 ...
   0.00000   0.00000   0.00939   0.00000   0.00000  -0.02530   0.00000   0.00000   0.00000   0.00000   0.00000  -0.32924 ...
   ...  only 12  components have been written...

 Augmentation waves occupancies Rhoij:
 Atom #  1
   1.33062  -0.05761   0.00000   0.00000   0.00000   0.00000   0.00000   0.00000   0.00000   0.00000   0.00000   0.00000 ...
  -0.05761   0.00262   0.00000   0.00000   0.00000   0.00000   0.00000   0.00000   0.00000   0.00000   0.00000   0.00000 ...
   0.00000   0.00000   1.10789   0.00000   0.00000   0.02208   0.00000   0.00000   0.00000   0.00000   0.00000  -0.13735 ...
   0.00000   0.00000   0.00000   1.10789   0.00000   0.00000   0.02208   0.00000  -0.13735   0.00000   0.00000   0.00000 ...
   0.00000   0.00000   0.00000   0.00000   1.10789   0.00000   0.00000   0.02208   0.00000  -0.13735   0.00000   0.00000 ...
   0.00000   0.00000   0.02208   0.00000   0.00000   0.00047   0.00000   0.00000   0.00000   0.00000   0.00000  -0.00284 ...
   0.00000   0.00000   0.00000   0.02208   0.00000   0.00000   0.00047   0.00000  -0.00284   0.00000   0.00000   0.00000 ...
   0.00000   0.00000   0.00000   0.00000   0.02208   0.00000   0.00000   0.00047   0.00000  -0.00284   0.00000   0.00000 ...
   0.00000   0.00000   0.00000  -0.13735   0.00000   0.00000  -0.00284   0.00000   0.02863   0.00000   0.00000   0.00000 ...
   0.00000   0.00000   0.00000   0.00000  -0.13735   0.00000   0.00000  -0.00284   0.00000   0.02863   0.00000   0.00000 ...
   0.00000   0.00000   0.00000   0.00000   0.00000   0.00000   0.00000   0.00000   0.00000   0.00000   0.00795   0.00000 ...
   0.00000   0.00000  -0.13735   0.00000   0.00000  -0.00284   0.00000   0.00000   0.00000   0.00000   0.00000   0.02863 ...
   ...  only 12  components have been written...
 Atom #  2
   1.33062  -0.05761   0.00000   0.00000   0.00000   0.00000   0.00000   0.00000   0.00000   0.00000   0.00000   0.00000 ...
  -0.05761   0.00262   0.00000   0.00000   0.00000   0.00000   0.00000   0.00000   0.00000   0.00000   0.00000   0.00000 ...
   0.00000   0.00000   1.10789   0.00000   0.00000   0.02208   0.00000   0.00000   0.00000   0.00000   0.00000   0.13735 ...
   0.00000   0.00000   0.00000   1.10789   0.00000   0.00000   0.02208   0.00000   0.13735   0.00000   0.00000   0.00000 ...
   0.00000   0.00000   0.00000   0.00000   1.10789   0.00000   0.00000   0.02208   0.00000   0.13735   0.00000   0.00000 ...
   0.00000   0.00000   0.02208   0.00000   0.00000   0.00047   0.00000   0.00000   0.00000   0.00000   0.00000   0.00284 ...
   0.00000   0.00000   0.00000   0.02208   0.00000   0.00000   0.00047   0.00000   0.00284   0.00000   0.00000   0.00000 ...
   0.00000   0.00000   0.00000   0.00000   0.02208   0.00000   0.00000   0.00047   0.00000   0.00284   0.00000   0.00000 ...
   0.00000   0.00000   0.00000   0.13735   0.00000   0.00000   0.00284   0.00000   0.02863   0.00000   0.00000   0.00000 ...
   0.00000   0.00000   0.00000   0.00000   0.13735   0.00000   0.00000   0.00284   0.00000   0.02863   0.00000   0.00000 ...
   0.00000   0.00000   0.00000   0.00000   0.00000   0.00000   0.00000   0.00000   0.00000   0.00000   0.00795   0.00000 ...
   0.00000   0.00000   0.13735   0.00000   0.00000   0.00284   0.00000   0.00000   0.00000   0.00000   0.00000   0.02863 ...
   ...  only 12  components have been written...


================================================================================

 ----iterations are completed or convergence reached----

 Mean square residual over all n,k,spin=   1.0938E-05; max=  2.3741E-05
  -0.2500  0.5000  0.0000    1  1.43247E-05 kpt; spin; max resid(k); each band:
  1.43E-05 1.29E-05 5.67E-06 5.03E-08 1.34E-05
  -0.2500  0.0000  0.0000    1  2.37411E-05 kpt; spin; max resid(k); each band:
  2.10E-05 1.75E-05 3.99E-07 4.00E-07 2.37E-05
 reduced coordinates (array xred) for    2 atoms
       0.125000000000      0.125000000000      0.125000000000
       0.875000000000      0.875000000000      0.875000000000
 rms dE/dt=  0.0000E+00; max dE/dt=  0.0000E+00; dE/dt below (all hartree)
    1       0.000000000000      0.000000000000      0.000000000000
    2       0.000000000000      0.000000000000      0.000000000000

 cartesian coordinates (angstrom) at end:
    1      0.67602388397372     0.67602388397372     0.67602388397372
    2      4.73216718781608     4.73216718781608     4.73216718781608

 cartesian forces (hartree/bohr) at end:
    1     -0.00000000000000    -0.00000000000000    -0.00000000000000
    2     -0.00000000000000    -0.00000000000000    -0.00000000000000
 frms,max,avg= 0.0000000E+00 0.0000000E+00   0.000E+00  0.000E+00  0.000E+00 h/b

 cartesian forces (eV/Angstrom) at end:
    1     -0.00000000000000    -0.00000000000000    -0.00000000000000
    2     -0.00000000000000    -0.00000000000000    -0.00000000000000
 frms,max,avg= 0.0000000E+00 0.0000000E+00   0.000E+00  0.000E+00  0.000E+00 e/A
 length scales= 10.220000000000 10.220000000000 10.220000000000 bohr
              =  5.408191071790  5.408191071790  5.408191071790 angstroms
 prteigrs : about to open file t82o_DS11_EIG
 Fermi (or HOMO) energy (hartree) =   0.18002   Average Vxc (hartree)=  -0.34010
 Eigenvalues (hartree) for nkpt=   2  k points:
 kpt#   1, nband=  5, wtk=  0.75000, kpt= -0.2500  0.5000  0.0000 (reduced coord)
  -0.13557  -0.03036   0.07220   0.12327   0.26222
 kpt#   2, nband=  5, wtk=  0.25000, kpt= -0.2500  0.0000  0.0000 (reduced coord)
  -0.20778   0.05967   0.18002   0.18002   0.28177
 Fermi (or HOMO) energy (eV) =   4.89864   Average Vxc (eV)=  -9.25448
 Eigenvalues (   eV  ) for nkpt=   2  k points:
 kpt#   1, nband=  5, wtk=  0.75000, kpt= -0.2500  0.5000  0.0000 (reduced coord)
  -3.68909  -0.82603   1.96458   3.35435   7.13539
 kpt#   2, nband=  5, wtk=  0.25000, kpt= -0.2500  0.0000  0.0000 (reduced coord)
  -5.65398   1.62360   4.89864   4.89864   7.66729
 Total charge density [el/Bohr^3]
,     Maximum=    8.7906E-02  at reduced coord.    0.0000    0.0000    0.5000
,Next maximum=    8.7906E-02  at reduced coord.    0.0000    0.5000    0.0000
,     Minimum=    3.6554E-03  at reduced coord.    0.3750    0.3750    0.3750
,Next minimum=    3.6554E-03  at reduced coord.    0.6250    0.6250    0.6250
,  Integrated=    8.0001E+00

--------------------------------------------------------------------------------
 Components of total free energy (in Hartree) :

    Kinetic energy  =  2.99822078003186E+00
    Hartree energy  =  5.33144534039893E-01
    XC energy       = -2.48162030029765E+00
    Ewald energy    = -8.43334331763888E+00
    PspCore energy  =  2.13102601960422E-01
    Loc. psp. energy= -2.44820423876603E+00
    Spherical terms =  1.61848875798776E+00
    >>>>>>>>> Etotal= -8.00021118268261E+00

 "Double-counting" decomposition of free energy:
    Band energy     =  1.50273826225225E-01
    Ewald energy    = -8.43334331763888E+00
    PspCore energy  =  2.13102601960422E-01
    Dble-C XC-energy=  1.34330753561545E-01
    Spherical terms = -4.22118841065058E-02
    >>>> Etotal (DC)= -7.97784801999819E+00

  >Total energy in eV           = -2.17696817453041E+02
  >Total DC energy in eV        = -2.17088284848912E+02
--------------------------------------------------------------------------------

 Cartesian components of stress tensor (hartree/bohr^3)
  sigma(1 1)=  1.74997490E-04  sigma(3 2)=  0.00000000E+00
  sigma(2 2)=  1.74997490E-04  sigma(3 1)=  0.00000000E+00
  sigma(3 3)=  1.74997490E-04  sigma(2 1)=  0.00000000E+00

-Cartesian components of stress tensor (GPa)         [Pressure= -5.1486E+00 GPa]
- sigma(1 1)=  5.14860304E+00  sigma(3 2)=  0.00000000E+00
- sigma(2 2)=  5.14860304E+00  sigma(3 1)=  0.00000000E+00
- sigma(3 3)=  5.14860304E+00  sigma(2 1)=  0.00000000E+00

================================================================================
== DATASET 12 ==================================================================
-   nproc =    1

 Real(R)+Recip(G) space primitive vectors, cartesian coordinates (Bohr,Bohr^-1):
 R(1)=  0.0000000  5.1100000  5.1100000  G(1)= -0.0978474  0.0978474  0.0978474
 R(2)=  5.1100000  0.0000000  5.1100000  G(2)=  0.0978474 -0.0978474  0.0978474
 R(3)=  5.1100000  5.1100000  0.0000000  G(3)=  0.0978474  0.0978474 -0.0978474
 Unit cell volume ucvol=  2.6686566E+02 bohr^3
 Angles (23,13,12)=  6.00000000E+01  6.00000000E+01  6.00000000E+01 degrees

 Coarse grid specifications (used for wave-functions):

 getcut: wavevector=  0.0000  0.0000  0.0000  ngfft=  12  12  12
         ecut(hartree)=      3.000   => boxcut(ratio)=   2.12971

 Fine grid specifications (used for densities):

 getcut: wavevector=  0.0000  0.0000  0.0000  ngfft=  16  16  16
         ecut(hartree)=      6.000   => boxcut(ratio)=   2.00791

--- Pseudopotential description ------------------------------------------------
- pspini: atom type   1  psp file is /data/ABINIT/testf_gcc47/trunk_7.10.4-training/tests/Psps_for_tests/Si-LDA.paw
- pspatm: opening atomic psp file    /data/ABINIT/testf_gcc47/trunk_7.10.4-training/tests/Psps_for_tests/Si-LDA.paw
- Paw atomic data for element Si - Generated by AtomPAW (N. Holzwarth) + AtomPAW2Abinit v3.1.1
- 14.00000   4.00000  20070412                znucl, zion, pspdat
    7    7    2    0      1398   0.00000      pspcod,pspxc,lmax,lloc,mmax,r2well
 Pseudopotential format is: paw3
 basis_size (lnmax)=  5 (lmn_size= 13), orbitals=   0   0   1   1   2
 Spheres core radius: rc_sph= 2.00437498
 4 radial meshes are used:
  - mesh 1: r(i)=AA*[exp(BB*(i-1))-1], size=1398 , AA= 0.43309E-03 BB= 0.60633E-02
  - mesh 2: r(i)=AA*[exp(BB*(i-1))-1], size=1393 , AA= 0.43309E-03 BB= 0.60633E-02
  - mesh 3: r(i)=AA*[exp(BB*(i-1))-1], size=1508 , AA= 0.43309E-03 BB= 0.60633E-02
  - mesh 4: r(i)=AA*[exp(BB*(i-1))-1], size=1658 , AA= 0.43309E-03 BB= 0.60633E-02
 Shapefunction is SIN type: shapef(r)=[sin(pi*r/rshp)/(pi*r/rshp)]**2
 Radius for shape functions = sphere core radius
 Radial grid used for partial waves is grid 1
 Radial grid used for projectors is grid  2
 Radial grid used for (t)core density is grid 3
 Radial grid used for Vloc is grid 4
 Compensation charge density is taken into account in XC energy/potential
 pspatm: atomic psp has been read  and splines computed

--------------------------------------------------------------------------------

P newkpt: treating      5 bands with npw=      69 for ikpt=   1 by node    0
P newkpt: treating      5 bands with npw=      65 for ikpt=   2 by node    0

_setup2: Arith. and geom. avg. npw (full set) are      68.000      67.977

================================================================================

     iter   Etot(hartree)      deltaE(h)  residm     vres2
 ETOT  1  -7.9823767631949    -7.982E+00 1.395E-02 2.512E+00
 ETOT  2  -7.9992667506708    -1.689E-02 1.954E-07 7.144E-01
 ETOT  3  -8.0002111826826    -9.444E-04 2.374E-05 1.221E-02

 Cartesian components of stress tensor (hartree/bohr^3)
  sigma(1 1)=  1.74997490E-04  sigma(3 2)=  0.00000000E+00
  sigma(2 2)=  1.74997490E-04  sigma(3 1)=  0.00000000E+00
  sigma(3 3)=  1.74997490E-04  sigma(2 1)=  0.00000000E+00


 scprqt:  WARNING -
  nstep=    3 was not enough SCF cycles to converge;
  potential residual=  1.221E-02 exceeds tolvrs=  1.000E-10


 PAW TEST:
 ==== Compensation charge inside spheres ============
 The following values must be close to each other ...
 Compensation charge over spherical meshes =     -0.278327423419751
 Compensation charge over fine fft grid    =     -0.278263035353161

 ==== Results concerning PAW augmentation regions ====

 Total pseudopotential strength Dij (hartree):
 Atom #  1
   0.46649  -1.45969   0.00000   0.00000   0.00000   0.00000   0.00000   0.00000   0.00000   0.00000   0.00000   0.00000 ...
  -1.45969   3.55262   0.00000   0.00000   0.00000   0.00000   0.00000   0.00000   0.00000   0.00000   0.00000   0.00000 ...
   0.00000   0.00000   0.11612   0.00000   0.00000  -0.36652   0.00000   0.00000   0.00000   0.00000   0.00000  -0.00034 ...
   0.00000   0.00000   0.00000   0.11612   0.00000   0.00000  -0.36652   0.00000  -0.00034   0.00000   0.00000   0.00000 ...
   0.00000   0.00000   0.00000   0.00000   0.11612   0.00000   0.00000  -0.36652   0.00000  -0.00034   0.00000   0.00000 ...
   0.00000   0.00000  -0.36652   0.00000   0.00000   1.19795   0.00000   0.00000   0.00000   0.00000   0.00000   0.00093 ...
   0.00000   0.00000   0.00000  -0.36652   0.00000   0.00000   1.19795   0.00000   0.00093   0.00000   0.00000   0.00000 ...
   0.00000   0.00000   0.00000   0.00000  -0.36652   0.00000   0.00000   1.19795   0.00000   0.00093   0.00000   0.00000 ...
   0.00000   0.00000   0.00000  -0.00034   0.00000   0.00000   0.00093   0.00000  -0.01210   0.00000   0.00000   0.00000 ...
   0.00000   0.00000   0.00000   0.00000  -0.00034   0.00000   0.00000   0.00093   0.00000  -0.01210   0.00000   0.00000 ...
   0.00000   0.00000   0.00000   0.00000   0.00000   0.00000   0.00000   0.00000   0.00000   0.00000  -0.01207   0.00000 ...
   0.00000   0.00000  -0.00034   0.00000   0.00000   0.00093   0.00000   0.00000   0.00000   0.00000   0.00000  -0.01210 ...
   ...  only 12  components have been written...
 Atom #  2
   0.46649  -1.45969   0.00000   0.00000   0.00000   0.00000   0.00000   0.00000   0.00000   0.00000   0.00000   0.00000 ...
  -1.45969   3.55262   0.00000   0.00000   0.00000   0.00000   0.00000   0.00000   0.00000   0.00000   0.00000   0.00000 ...
   0.00000   0.00000   0.11612   0.00000   0.00000  -0.36652   0.00000   0.00000   0.00000   0.00000   0.00000   0.00034 ...
   0.00000   0.00000   0.00000   0.11612   0.00000   0.00000  -0.36652   0.00000   0.00034   0.00000   0.00000   0.00000 ...
   0.00000   0.00000   0.00000   0.00000   0.11612   0.00000   0.00000  -0.36652   0.00000   0.00034   0.00000   0.00000 ...
   0.00000   0.00000  -0.36652   0.00000   0.00000   1.19795   0.00000   0.00000   0.00000   0.00000   0.00000  -0.00093 ...
   0.00000   0.00000   0.00000  -0.36652   0.00000   0.00000   1.19795   0.00000  -0.00093   0.00000   0.00000   0.00000 ...
   0.00000   0.00000   0.00000   0.00000  -0.36652   0.00000   0.00000   1.19795   0.00000  -0.00093   0.00000   0.00000 ...
   0.00000   0.00000   0.00000   0.00034   0.00000   0.00000  -0.00093   0.00000  -0.01210   0.00000   0.00000   0.00000 ...
   0.00000   0.00000   0.00000   0.00000   0.00034   0.00000   0.00000  -0.00093   0.00000  -0.01210   0.00000   0.00000 ...
   0.00000   0.00000   0.00000   0.00000   0.00000   0.00000   0.00000   0.00000   0.00000   0.00000  -0.01207   0.00000 ...
   0.00000   0.00000   0.00034   0.00000   0.00000  -0.00093   0.00000   0.00000   0.00000   0.00000   0.00000  -0.01210 ...
   ...  only 12  components have been written...

 Total pseudopotential strength Dij (eV):
 Atom #  1
  12.69384 -39.72014   0.00000   0.00000   0.00000   0.00000   0.00000   0.00000   0.00000   0.00000   0.00000   0.00000 ...
 -39.72014  96.67180   0.00000   0.00000   0.00000   0.00000   0.00000   0.00000   0.00000   0.00000   0.00000   0.00000 ...
   0.00000   0.00000   3.15971   0.00000   0.00000  -9.97362   0.00000   0.00000   0.00000   0.00000   0.00000  -0.00939 ...
   0.00000   0.00000   0.00000   3.15971   0.00000   0.00000  -9.97362   0.00000  -0.00939   0.00000   0.00000   0.00000 ...
   0.00000   0.00000   0.00000   0.00000   3.15971   0.00000   0.00000  -9.97362   0.00000  -0.00939   0.00000   0.00000 ...
   0.00000   0.00000  -9.97362   0.00000   0.00000  32.59796   0.00000   0.00000   0.00000   0.00000   0.00000   0.02530 ...
   0.00000   0.00000   0.00000  -9.97362   0.00000   0.00000  32.59796   0.00000   0.02530   0.00000   0.00000   0.00000 ...
   0.00000   0.00000   0.00000   0.00000  -9.97362   0.00000   0.00000  32.59796   0.00000   0.02530   0.00000   0.00000 ...
   0.00000   0.00000   0.00000  -0.00939   0.00000   0.00000   0.02530   0.00000  -0.32924   0.00000   0.00000   0.00000 ...
   0.00000   0.00000   0.00000   0.00000  -0.00939   0.00000   0.00000   0.02530   0.00000  -0.32924   0.00000   0.00000 ...
   0.00000   0.00000   0.00000   0.00000   0.00000   0.00000   0.00000   0.00000   0.00000   0.00000  -0.32852   0.00000 ...
   0.00000   0.00000  -0.00939   0.00000   0.00000   0.02530   0.00000   0.00000   0.00000   0.00000   0.00000  -0.32924 ...
   ...  only 12  components have been written...
 Atom #  2
  12.69384 -39.72014   0.00000   0.00000   0.00000   0.00000   0.00000   0.00000   0.00000   0.00000   0.00000   0.00000 ...
 -39.72014  96.67180   0.00000   0.00000   0.00000   0.00000   0.00000   0.00000   0.00000   0.00000   0.00000   0.00000 ...
   0.00000   0.00000   3.15971   0.00000   0.00000  -9.97362   0.00000   0.00000   0.00000   0.00000   0.00000   0.00939 ...
   0.00000   0.00000   0.00000   3.15971   0.00000   0.00000  -9.97362   0.00000   0.00939   0.00000   0.00000   0.00000 ...
   0.00000   0.00000   0.00000   0.00000   3.15971   0.00000   0.00000  -9.97362   0.00000   0.00939   0.00000   0.00000 ...
   0.00000   0.00000  -9.97362   0.00000   0.00000  32.59796   0.00000   0.00000   0.00000   0.00000   0.00000  -0.02530 ...
   0.00000   0.00000   0.00000  -9.97362   0.00000   0.00000  32.59796   0.00000  -0.02530   0.00000   0.00000   0.00000 ...
   0.00000   0.00000   0.00000   0.00000  -9.97362   0.00000   0.00000  32.59796   0.00000  -0.02530   0.00000   0.00000 ...
   0.00000   0.00000   0.00000   0.00939   0.00000   0.00000  -0.02530   0.00000  -0.32924   0.00000   0.00000   0.00000 ...
   0.00000   0.00000   0.00000   0.00000   0.00939   0.00000   0.00000  -0.02530   0.00000  -0.32924   0.00000   0.00000 ...
   0.00000   0.00000   0.00000   0.00000   0.00000   0.00000   0.00000   0.00000   0.00000   0.00000  -0.32852   0.00000 ...
   0.00000   0.00000   0.00939   0.00000   0.00000  -0.02530   0.00000   0.00000   0.00000   0.00000   0.00000  -0.32924 ...
   ...  only 12  components have been written...

 Augmentation waves occupancies Rhoij:
 Atom #  1
   1.33062  -0.05761   0.00000   0.00000   0.00000   0.00000   0.00000   0.00000   0.00000   0.00000   0.00000   0.00000 ...
  -0.05761   0.00262   0.00000   0.00000   0.00000   0.00000   0.00000   0.00000   0.00000   0.00000   0.00000   0.00000 ...
   0.00000   0.00000   1.10789   0.00000   0.00000   0.02208   0.00000   0.00000   0.00000   0.00000   0.00000  -0.13735 ...
   0.00000   0.00000   0.00000   1.10789   0.00000   0.00000   0.02208   0.00000  -0.13735   0.00000   0.00000   0.00000 ...
   0.00000   0.00000   0.00000   0.00000   1.10789   0.00000   0.00000   0.02208   0.00000  -0.13735   0.00000   0.00000 ...
   0.00000   0.00000   0.02208   0.00000   0.00000   0.00047   0.00000   0.00000   0.00000   0.00000   0.00000  -0.00284 ...
   0.00000   0.00000   0.00000   0.02208   0.00000   0.00000   0.00047   0.00000  -0.00284   0.00000   0.00000   0.00000 ...
   0.00000   0.00000   0.00000   0.00000   0.02208   0.00000   0.00000   0.00047   0.00000  -0.00284   0.00000   0.00000 ...
   0.00000   0.00000   0.00000  -0.13735   0.00000   0.00000  -0.00284   0.00000   0.02863   0.00000   0.00000   0.00000 ...
   0.00000   0.00000   0.00000   0.00000  -0.13735   0.00000   0.00000  -0.00284   0.00000   0.02863   0.00000   0.00000 ...
   0.00000   0.00000   0.00000   0.00000   0.00000   0.00000   0.00000   0.00000   0.00000   0.00000   0.00795   0.00000 ...
   0.00000   0.00000  -0.13735   0.00000   0.00000  -0.00284   0.00000   0.00000   0.00000   0.00000   0.00000   0.02863 ...
   ...  only 12  components have been written...
 Atom #  2
   1.33062  -0.05761   0.00000   0.00000   0.00000   0.00000   0.00000   0.00000   0.00000   0.00000   0.00000   0.00000 ...
  -0.05761   0.00262   0.00000   0.00000   0.00000   0.00000   0.00000   0.00000   0.00000   0.00000   0.00000   0.00000 ...
   0.00000   0.00000   1.10789   0.00000   0.00000   0.02208   0.00000   0.00000   0.00000   0.00000   0.00000   0.13735 ...
   0.00000   0.00000   0.00000   1.10789   0.00000   0.00000   0.02208   0.00000   0.13735   0.00000   0.00000   0.00000 ...
   0.00000   0.00000   0.00000   0.00000   1.10789   0.00000   0.00000   0.02208   0.00000   0.13735   0.00000   0.00000 ...
   0.00000   0.00000   0.02208   0.00000   0.00000   0.00047   0.00000   0.00000   0.00000   0.00000   0.00000   0.00284 ...
   0.00000   0.00000   0.00000   0.02208   0.00000   0.00000   0.00047   0.00000   0.00284   0.00000   0.00000   0.00000 ...
   0.00000   0.00000   0.00000   0.00000   0.02208   0.00000   0.00000   0.00047   0.00000   0.00284   0.00000   0.00000 ...
   0.00000   0.00000   0.00000   0.13735   0.00000   0.00000   0.00284   0.00000   0.02863   0.00000   0.00000   0.00000 ...
   0.00000   0.00000   0.00000   0.00000   0.13735   0.00000   0.00000   0.00284   0.00000   0.02863   0.00000   0.00000 ...
   0.00000   0.00000   0.00000   0.00000   0.00000   0.00000   0.00000   0.00000   0.00000   0.00000   0.00795   0.00000 ...
   0.00000   0.00000   0.13735   0.00000   0.00000   0.00284   0.00000   0.00000   0.00000   0.00000   0.00000   0.02863 ...
   ...  only 12  components have been written...


================================================================================

 ----iterations are completed or convergence reached----

 Mean square residual over all n,k,spin=   1.0938E-05; max=  2.3741E-05
  -0.2500  0.5000  0.0000    1  1.43247E-05 kpt; spin; max resid(k); each band:
  1.43E-05 1.29E-05 5.67E-06 5.03E-08 1.34E-05
  -0.2500  0.0000  0.0000    1  2.37411E-05 kpt; spin; max resid(k); each band:
  2.10E-05 1.75E-05 3.99E-07 4.00E-07 2.37E-05
 reduced coordinates (array xred) for    2 atoms
       0.125000000000      0.125000000000      0.125000000000
       0.875000000000      0.875000000000      0.875000000000
 rms dE/dt=  0.0000E+00; max dE/dt=  0.0000E+00; dE/dt below (all hartree)
    1       0.000000000000      0.000000000000      0.000000000000
    2       0.000000000000      0.000000000000      0.000000000000

 cartesian coordinates (angstrom) at end:
    1      0.67602388397372     0.67602388397372     0.67602388397372
    2      4.73216718781608     4.73216718781608     4.73216718781608

 cartesian forces (hartree/bohr) at end:
    1     -0.00000000000000    -0.00000000000000    -0.00000000000000
    2     -0.00000000000000    -0.00000000000000    -0.00000000000000
 frms,max,avg= 0.0000000E+00 0.0000000E+00   0.000E+00  0.000E+00  0.000E+00 h/b

 cartesian forces (eV/Angstrom) at end:
    1     -0.00000000000000    -0.00000000000000    -0.00000000000000
    2     -0.00000000000000    -0.00000000000000    -0.00000000000000
 frms,max,avg= 0.0000000E+00 0.0000000E+00   0.000E+00  0.000E+00  0.000E+00 e/A
 length scales= 10.220000000000 10.220000000000 10.220000000000 bohr
              =  5.408191071790  5.408191071790  5.408191071790 angstroms
 prteigrs : about to open file t82o_DS12_EIG
 Fermi (or HOMO) energy (hartree) =   0.18002   Average Vxc (hartree)=  -0.34010
 Eigenvalues (hartree) for nkpt=   2  k points:
 kpt#   1, nband=  5, wtk=  0.75000, kpt= -0.2500  0.5000  0.0000 (reduced coord)
  -0.13557  -0.03036   0.07220   0.12327   0.26222
 kpt#   2, nband=  5, wtk=  0.25000, kpt= -0.2500  0.0000  0.0000 (reduced coord)
  -0.20778   0.05967   0.18002   0.18002   0.28177
 Fermi (or HOMO) energy (eV) =   4.89864   Average Vxc (eV)=  -9.25448
 Eigenvalues (   eV  ) for nkpt=   2  k points:
 kpt#   1, nband=  5, wtk=  0.75000, kpt= -0.2500  0.5000  0.0000 (reduced coord)
  -3.68909  -0.82603   1.96458   3.35435   7.13539
 kpt#   2, nband=  5, wtk=  0.25000, kpt= -0.2500  0.0000  0.0000 (reduced coord)
  -5.65398   1.62360   4.89864   4.89864   7.66729
 Total charge density [el/Bohr^3]
,     Maximum=    8.7906E-02  at reduced coord.    0.0000    0.0000    0.5000
,Next maximum=    8.7906E-02  at reduced coord.    0.0000    0.5000    0.0000
,     Minimum=    3.6554E-03  at reduced coord.    0.3750    0.3750    0.3750
,Next minimum=    3.6554E-03  at reduced coord.    0.6250    0.6250    0.6250
,  Integrated=    8.0001E+00

--------------------------------------------------------------------------------
 Components of total free energy (in Hartree) :

    Kinetic energy  =  2.99822078003188E+00
    Hartree energy  =  5.33144534039903E-01
    XC energy       = -2.48162030029764E+00
    Ewald energy    = -8.43334331763888E+00
    PspCore energy  =  2.13102601960422E-01
    Loc. psp. energy= -2.44820423876607E+00
    Spherical terms =  1.61848875798775E+00
    >>>>>>>>> Etotal= -8.00021118268263E+00

 "Double-counting" decomposition of free energy:
    Band energy     =  1.50273826225212E-01
    Ewald energy    = -8.43334331763888E+00
    PspCore energy  =  2.13102601960422E-01
    Dble-C XC-energy=  1.34330753561535E-01
    Spherical terms = -4.22118841065111E-02
    >>>> Etotal (DC)= -7.97784801999822E+00

  >Total energy in eV           = -2.17696817453042E+02
  >Total DC energy in eV        = -2.17088284848912E+02
--------------------------------------------------------------------------------

 Cartesian components of stress tensor (hartree/bohr^3)
  sigma(1 1)=  1.74997490E-04  sigma(3 2)=  0.00000000E+00
  sigma(2 2)=  1.74997490E-04  sigma(3 1)=  0.00000000E+00
  sigma(3 3)=  1.74997490E-04  sigma(2 1)=  0.00000000E+00

-Cartesian components of stress tensor (GPa)         [Pressure= -5.1486E+00 GPa]
- sigma(1 1)=  5.14860304E+00  sigma(3 2)=  0.00000000E+00
- sigma(2 2)=  5.14860304E+00  sigma(3 1)=  0.00000000E+00
- sigma(3 3)=  5.14860304E+00  sigma(2 1)=  0.00000000E+00

================================================================================
== DATASET 21 ==================================================================
-   nproc =    1

 mkfilename : getwfk/=0, take file _WFK from output of DATASET  11.

 Exchange-correlation functional for the present dataset will be:
  LDA: Perdew-Zunger-Ceperley-Alder - ixc=2
 Citation for XC functional:
  J.P.Perdew and A.Zunger, PRB 23, 5048 (1981)

 Real(R)+Recip(G) space primitive vectors, cartesian coordinates (Bohr,Bohr^-1):
 R(1)=  0.0000000  5.1100000  5.1100000  G(1)= -0.0978474  0.0978474  0.0978474
 R(2)=  5.1100000  0.0000000  5.1100000  G(2)=  0.0978474 -0.0978474  0.0978474
 R(3)=  5.1100000  5.1100000  0.0000000  G(3)=  0.0978474  0.0978474 -0.0978474
 Unit cell volume ucvol=  2.6686566E+02 bohr^3
 Angles (23,13,12)=  6.00000000E+01  6.00000000E+01  6.00000000E+01 degrees
 setup1 : take into account q-point for computing boxcut.

 Coarse grid specifications (used for wave-functions):

 getcut: wavevector=  0.0000  0.0000  0.0000  ngfft=  12  12  12
         ecut(hartree)=      3.000   => boxcut(ratio)=   2.12971

 Fine grid specifications (used for densities):

 getcut: wavevector=  0.0000  0.0000  0.0000  ngfft=  16  16  16
         ecut(hartree)=      6.000   => boxcut(ratio)=   2.00791

--- Pseudopotential description ------------------------------------------------
- pspini: atom type   1  psp file is /data/ABINIT/testf_gcc47/trunk_7.10.4-training/tests/Psps_for_tests/Si-LDA.paw
- pspatm: opening atomic psp file    /data/ABINIT/testf_gcc47/trunk_7.10.4-training/tests/Psps_for_tests/Si-LDA.paw
- Paw atomic data for element Si - Generated by AtomPAW (N. Holzwarth) + AtomPAW2Abinit v3.1.1
- 14.00000   4.00000  20070412                znucl, zion, pspdat
    7    7    2    0      1398   0.00000      pspcod,pspxc,lmax,lloc,mmax,r2well
 Pseudopotential format is: paw3
 basis_size (lnmax)=  5 (lmn_size= 13), orbitals=   0   0   1   1   2
 Spheres core radius: rc_sph= 2.00437498
 4 radial meshes are used:
  - mesh 1: r(i)=AA*[exp(BB*(i-1))-1], size=1398 , AA= 0.43309E-03 BB= 0.60633E-02
  - mesh 2: r(i)=AA*[exp(BB*(i-1))-1], size=1393 , AA= 0.43309E-03 BB= 0.60633E-02
  - mesh 3: r(i)=AA*[exp(BB*(i-1))-1], size=1508 , AA= 0.43309E-03 BB= 0.60633E-02
  - mesh 4: r(i)=AA*[exp(BB*(i-1))-1], size=1658 , AA= 0.43309E-03 BB= 0.60633E-02
 Shapefunction is SIN type: shapef(r)=[sin(pi*r/rshp)/(pi*r/rshp)]**2
 Radius for shape functions = sphere core radius
 Radial grid used for partial waves is grid 1
 Radial grid used for projectors is grid  2
 Radial grid used for (t)core density is grid 3
 Radial grid used for Vloc is grid 4
 Compensation charge density is taken into account in XC energy/potential
 pspatm: atomic psp has been read  and splines computed

--------------------------------------------------------------------------------

-inwffil : will read wavefunctions from disk file t82o_DS11_WFK
- newkpt: read input wf with ikpt,npw=   1      69, make ikpt,npw=   1      69
- newkpt: read input wf with ikpt,npw=   1      69, make ikpt,npw=   2      69
- newkpt: read input wf with ikpt,npw=   1      69, make ikpt,npw=   3      69
- newkpt: read input wf with ikpt,npw=   2      65, make ikpt,npw=   4      65
- newkpt: read input wf with ikpt,npw=   1      69, make ikpt,npw=   5      69
- newkpt: read input wf with ikpt,npw=   1      69, make ikpt,npw=   6      69
- newkpt: read input wf with ikpt,npw=   1      69, make ikpt,npw=   7      69
- newkpt: read input wf with ikpt,npw=   2      65, make ikpt,npw=   8      65
- newkpt: read input wf with ikpt,npw=   1      69, make ikpt,npw=   9      69
- newkpt: read input wf with ikpt,npw=   1      69, make ikpt,npw=  10      69
- newkpt: read input wf with ikpt,npw=   2      65, make ikpt,npw=  11      65
- newkpt: read input wf with ikpt,npw=   1      69, make ikpt,npw=  12      69
- newkpt: read input wf with ikpt,npw=   1      69, make ikpt,npw=  13      69
- newkpt: read input wf with ikpt,npw=   1      69, make ikpt,npw=  14      69
- newkpt: read input wf with ikpt,npw=   1      69, make ikpt,npw=  15      69
- newkpt: read input wf with ikpt,npw=   2      65, make ikpt,npw=  16      65


 ==>  initialize data related to q vector <== 

 The list of irreducible perturbations for this q vector is:
    1)    idir= 1    ipert=   3
    2)    idir= 2    ipert=   3
    3)    idir= 3    ipert=   3

================================================================================

--------------------------------------------------------------------------------
 Perturbation wavevector (in red.coord.)   0.000000  0.000000  0.000000
 Perturbation : derivative vs k along direction   1
 The set of symmetries contains only one element for this perturbation.
 symkpt : not enough symmetry to change the number of k points.

--------------------------------------------------------------------------------

-inwffil : will read wavefunctions from disk file t82o_DS11_WFK
- newkpt: read input wf with ikpt,npw=   1      69, make ikpt,npw=   1      69
- newkpt: read input wf with ikpt,npw=   1      69, make ikpt,npw=   2      69
- newkpt: read input wf with ikpt,npw=   1      69, make ikpt,npw=   3      69
- newkpt: read input wf with ikpt,npw=   2      65, make ikpt,npw=   4      65
- newkpt: read input wf with ikpt,npw=   1      69, make ikpt,npw=   5      69
- newkpt: read input wf with ikpt,npw=   1      69, make ikpt,npw=   6      69
- newkpt: read input wf with ikpt,npw=   1      69, make ikpt,npw=   7      69
- newkpt: read input wf with ikpt,npw=   2      65, make ikpt,npw=   8      65
- newkpt: read input wf with ikpt,npw=   1      69, make ikpt,npw=   9      69
- newkpt: read input wf with ikpt,npw=   1      69, make ikpt,npw=  10      69
- newkpt: read input wf with ikpt,npw=   2      65, make ikpt,npw=  11      65
- newkpt: read input wf with ikpt,npw=   1      69, make ikpt,npw=  12      69
- newkpt: read input wf with ikpt,npw=   1      69, make ikpt,npw=  13      69
- newkpt: read input wf with ikpt,npw=   1      69, make ikpt,npw=  14      69
- newkpt: read input wf with ikpt,npw=   1      69, make ikpt,npw=  15      69
- newkpt: read input wf with ikpt,npw=   2      65, make ikpt,npw=  16      65

--------------------------------------------------------------------------------

-inwffil : will read wavefunctions from disk file t82o_DS11_WFK
- newkpt: read input wf with ikpt,npw=   1      69, make ikpt,npw=   1      69
- newkpt: read input wf with ikpt,npw=   1      69, make ikpt,npw=   2      69
- newkpt: read input wf with ikpt,npw=   1      69, make ikpt,npw=   3      69
- newkpt: read input wf with ikpt,npw=   2      65, make ikpt,npw=   4      65
- newkpt: read input wf with ikpt,npw=   1      69, make ikpt,npw=   5      69
- newkpt: read input wf with ikpt,npw=   1      69, make ikpt,npw=   6      69
- newkpt: read input wf with ikpt,npw=   1      69, make ikpt,npw=   7      69
- newkpt: read input wf with ikpt,npw=   2      65, make ikpt,npw=   8      65
- newkpt: read input wf with ikpt,npw=   1      69, make ikpt,npw=   9      69
- newkpt: read input wf with ikpt,npw=   1      69, make ikpt,npw=  10      69
- newkpt: read input wf with ikpt,npw=   2      65, make ikpt,npw=  11      65
- newkpt: read input wf with ikpt,npw=   1      69, make ikpt,npw=  12      69
- newkpt: read input wf with ikpt,npw=   1      69, make ikpt,npw=  13      69
- newkpt: read input wf with ikpt,npw=   1      69, make ikpt,npw=  14      69
- newkpt: read input wf with ikpt,npw=   1      69, make ikpt,npw=  15      69
- newkpt: read input wf with ikpt,npw=   2      65, make ikpt,npw=  16      65

 Initialisation of the first-order wave-functions :
  ireadwf=   0
P newkpt: treating      5 bands with npw=      69 for ikpt=   1 by node    0
P newkpt: treating      5 bands with npw=      69 for ikpt=   2 by node    0
P newkpt: treating      5 bands with npw=      69 for ikpt=   3 by node    0
P newkpt: treating      5 bands with npw=      65 for ikpt=   4 by node    0
P newkpt: treating      5 bands with npw=      69 for ikpt=   5 by node    0
P newkpt: treating      5 bands with npw=      69 for ikpt=   6 by node    0
P newkpt: treating      5 bands with npw=      69 for ikpt=   7 by node    0
P newkpt: treating      5 bands with npw=      65 for ikpt=   8 by node    0
P newkpt: treating      5 bands with npw=      69 for ikpt=   9 by node    0
P newkpt: treating      5 bands with npw=      69 for ikpt=  10 by node    0
P newkpt: treating      5 bands with npw=      65 for ikpt=  11 by node    0
P newkpt: treating      5 bands with npw=      69 for ikpt=  12 by node    0
P newkpt: treating      5 bands with npw=      69 for ikpt=  13 by node    0
P newkpt: treating      5 bands with npw=      69 for ikpt=  14 by node    0
P newkpt: treating      5 bands with npw=      69 for ikpt=  15 by node    0
P newkpt: treating      5 bands with npw=      65 for ikpt=  16 by node    0


     iter   2DEtotal(Ha)        deltaE(Ha) residm    vres2
-ETOT  1  -10.828333238083     -1.083E+01 3.607E-03 0.000E+00
 ETOT  2  -10.828954012495     -6.208E-04 1.263E-06 0.000E+00
 ETOT  3  -10.828954452992     -4.405E-07 6.193E-08 0.000E+00

 scprqt:  WARNING -
  nstep=    3 was not enough SCF cycles to converge;
  maximum residual=  6.193E-08 exceeds tolwfr=  1.000E-22

================================================================================

 ----iterations are completed or convergence reached----

 Mean square residual over all n,k,spin=   2.4172E-09; max=  6.1932E-08
  -0.2500  0.5000  0.0000    1  2.37694E-10 kpt; spin; max resid(k); each band:
  1.09E-11 5.59E-11 6.38E-11 2.38E-10 1.43E-10
   0.5000 -0.2500  0.0000    1  2.16014E-10 kpt; spin; max resid(k); each band:
  4.95E-11 1.37E-11 2.16E-10 6.74E-12 1.90E-10
  -0.2500 -0.2500  0.2500    1  2.44874E-10 kpt; spin; max resid(k); each band:
  3.80E-11 2.07E-11 1.06E-10 2.45E-10 1.18E-10
  -0.2500  0.0000  0.0000    1  7.66486E-10 kpt; spin; max resid(k); each band:
  2.94E-12 1.20E-10 2.09E-11 2.09E-11 7.66E-10
  -0.2500  0.2500  0.2500    1  2.16014E-10 kpt; spin; max resid(k); each band:
  4.95E-11 1.37E-11 2.16E-10 6.74E-12 1.90E-10
   0.5000  0.5000  0.2500    1  2.44878E-10 kpt; spin; max resid(k); each band:
  3.80E-11 2.07E-11 1.06E-10 2.45E-10 1.18E-10
  -0.2500  0.5000  0.5000    1  2.37694E-10 kpt; spin; max resid(k); each band:
  1.09E-11 5.59E-11 6.38E-11 2.38E-10 1.43E-10
   0.0000 -0.2500  0.0000    1  6.18421E-08 kpt; spin; max resid(k); each band:
  2.55E-13 1.85E-10 1.28E-11 2.16E-10 6.18E-08
   0.2500 -0.2500  0.2500    1  2.44874E-10 kpt; spin; max resid(k); each band:
  3.80E-11 2.07E-11 1.06E-10 2.45E-10 1.18E-10
   0.5000 -0.2500  0.5000    1  2.44878E-10 kpt; spin; max resid(k); each band:
  3.80E-11 2.07E-11 1.06E-10 2.45E-10 1.18E-10
  -0.2500 -0.2500 -0.2500    1  6.19317E-08 kpt; spin; max resid(k); each band:
  2.65E-13 1.85E-10 9.51E-11 1.40E-11 6.19E-08
   0.5000  0.0000  0.2500    1  2.16014E-10 kpt; spin; max resid(k); each band:
  4.95E-11 1.37E-11 2.16E-10 6.74E-12 1.90E-10
  -0.2500  0.0000  0.5000    1  2.37694E-10 kpt; spin; max resid(k); each band:
  1.09E-11 5.59E-11 6.38E-11 2.38E-10 1.43E-10
   0.0000  0.5000  0.2500    1  2.44874E-10 kpt; spin; max resid(k); each band:
  3.80E-11 2.07E-11 1.06E-10 2.45E-10 1.18E-10
   0.0000 -0.2500  0.5000    1  2.44878E-10 kpt; spin; max resid(k); each band:
  3.80E-11 2.07E-11 1.06E-10 2.45E-10 1.18E-10
   0.0000  0.0000  0.2500    1  6.16236E-08 kpt; spin; max resid(k); each band:
  2.30E-13 1.85E-10 1.29E-11 1.53E-11 6.16E-08
 loper3 : ek2=    1.8142585669E+01
          f-sum rule ratio=    1.3263722640E+00
 prteigrs : about to open file t82_1WF1_EIG
 Expectation of eigenvalue derivatives (hartree) for nkpt=  16  k points:
  (in case of degenerate eigenvalues, averaged derivative)
 kpt#   1, nband=  5, wtk=  0.06250, kpt= -0.2500  0.5000  0.0000 (reduced coord)
  -0.12665  -0.05676   0.23528   0.18187   0.23782
 kpt#   2, nband=  5, wtk=  0.06250, kpt=  0.5000 -0.2500  0.0000 (reduced coord)
  -0.26335   0.35685   0.21055  -0.05040  -0.05096
 kpt#   3, nband=  5, wtk=  0.06250, kpt= -0.2500 -0.2500  0.2500 (reduced coord)
  -0.19500   0.15005   0.22291   0.06574   0.09343
 kpt#   4, nband=  5, wtk=  0.06250, kpt= -0.2500  0.0000  0.0000 (reduced coord)
  -0.23228   0.67338   0.12937   0.12937   0.13366
 kpt#   5, nband=  5, wtk=  0.06250, kpt= -0.2500  0.2500  0.2500 (reduced coord)
  -0.26335   0.35685   0.21055  -0.05040  -0.05096
 kpt#   6, nband=  5, wtk=  0.06250, kpt=  0.5000  0.5000  0.2500 (reduced coord)
   0.19500  -0.15005  -0.22291  -0.06574  -0.09343
 kpt#   7, nband=  5, wtk=  0.06250, kpt= -0.2500  0.5000  0.5000 (reduced coord)
   0.12665   0.05676  -0.23528  -0.18187  -0.23782
 kpt#   8, nband=  5, wtk=  0.06250, kpt=  0.0000 -0.2500  0.0000 (reduced coord)
   0.07743  -0.22446  -0.04312  -0.04312  -0.04454
 kpt#   9, nband=  5, wtk=  0.06250, kpt=  0.2500 -0.2500  0.2500 (reduced coord)
   0.19500  -0.15005  -0.22291  -0.06574  -0.09343
 kpt#  10, nband=  5, wtk=  0.06250, kpt=  0.5000 -0.2500  0.5000 (reduced coord)
  -0.19500   0.15005   0.22291   0.06574   0.09343
 kpt#  11, nband=  5, wtk=  0.06250, kpt= -0.2500 -0.2500 -0.2500 (reduced coord)
  -0.07743   0.22446   0.04312   0.04312   0.04451
 kpt#  12, nband=  5, wtk=  0.06250, kpt=  0.5000  0.0000  0.2500 (reduced coord)
   0.26335  -0.35685  -0.21055   0.05040   0.05096
 kpt#  13, nband=  5, wtk=  0.06250, kpt= -0.2500  0.0000  0.5000 (reduced coord)
  -0.12665  -0.05676   0.23528   0.18187   0.23782
 kpt#  14, nband=  5, wtk=  0.06250, kpt=  0.0000  0.5000  0.2500 (reduced coord)
  -0.19500   0.15005   0.22291   0.06574   0.09343
 kpt#  15, nband=  5, wtk=  0.06250, kpt=  0.0000 -0.2500  0.5000 (reduced coord)
   0.19500  -0.15005  -0.22291  -0.06574  -0.09343
 kpt#  16, nband=  5, wtk=  0.06250, kpt=  0.0000  0.0000  0.2500 (reduced coord)
  -0.07742   0.22446   0.04312   0.04312   0.04461
 Expectation of eigenvalue derivatives (   eV  ) for nkpt=  16  k points:
 kpt#   1, nband=  5, wtk=  0.06250, kpt= -0.2500  0.5000  0.0000 (reduced coord)
  -3.44625  -1.54450   6.40217   4.94902   6.47135
 kpt#   2, nband=  5, wtk=  0.06250, kpt=  0.5000 -0.2500  0.0000 (reduced coord)
  -7.16614   9.71040   5.72922  -1.37135  -1.38657
 kpt#   3, nband=  5, wtk=  0.06250, kpt= -0.2500 -0.2500  0.2500 (reduced coord)
  -5.30619   4.08295   6.06569   1.78884   2.54240
 kpt#   4, nband=  5, wtk=  0.06250, kpt= -0.2500  0.0000  0.0000 (reduced coord)
  -6.32056  18.32374   3.52028   3.52028   3.63702
 kpt#   5, nband=  5, wtk=  0.06250, kpt= -0.2500  0.2500  0.2500 (reduced coord)
  -7.16614   9.71040   5.72922  -1.37135  -1.38657
 kpt#   6, nband=  5, wtk=  0.06250, kpt=  0.5000  0.5000  0.2500 (reduced coord)
   5.30619  -4.08295  -6.06569  -1.78884  -2.54239
 kpt#   7, nband=  5, wtk=  0.06250, kpt= -0.2500  0.5000  0.5000 (reduced coord)
   3.44625   1.54450  -6.40217  -4.94902  -6.47135
 kpt#   8, nband=  5, wtk=  0.06250, kpt=  0.0000 -0.2500  0.0000 (reduced coord)
   2.10687  -6.10789  -1.17343  -1.17343  -1.21193
 kpt#   9, nband=  5, wtk=  0.06250, kpt=  0.2500 -0.2500  0.2500 (reduced coord)
   5.30619  -4.08295  -6.06569  -1.78884  -2.54240
 kpt#  10, nband=  5, wtk=  0.06250, kpt=  0.5000 -0.2500  0.5000 (reduced coord)
  -5.30619   4.08295   6.06569   1.78884   2.54239
 kpt#  11, nband=  5, wtk=  0.06250, kpt= -0.2500 -0.2500 -0.2500 (reduced coord)
  -2.10690   6.10788   1.17342   1.17342   1.21127
 kpt#  12, nband=  5, wtk=  0.06250, kpt=  0.5000  0.0000  0.2500 (reduced coord)
   7.16614  -9.71040  -5.72922   1.37135   1.38657
 kpt#  13, nband=  5, wtk=  0.06250, kpt= -0.2500  0.0000  0.5000 (reduced coord)
  -3.44625  -1.54450   6.40217   4.94902   6.47135
 kpt#  14, nband=  5, wtk=  0.06250, kpt=  0.0000  0.5000  0.2500 (reduced coord)
  -5.30619   4.08295   6.06569   1.78884   2.54240
 kpt#  15, nband=  5, wtk=  0.06250, kpt=  0.0000 -0.2500  0.5000 (reduced coord)
   5.30619  -4.08295  -6.06569  -1.78884  -2.54239
 kpt#  16, nband=  5, wtk=  0.06250, kpt=  0.0000  0.0000  0.2500 (reduced coord)
  -2.10678   6.10797   1.17343   1.17343   1.21383

 Nine components of 2nd-order total energy (hartree) are
 1,2,3: 0th-order hamiltonian combined with 1st-order wavefunctions
     kin0=   1.07257710E+01 eigvalue=  -2.30736583E+00  local=  -6.70921591E+00
 4,5,6: 1st-order hamiltonian combined with 1st and 0th-order wfs
     kin1=  -2.40638224E+01  Hartree=   0.00000000E+00     xc=   0.00000000E+00
 7,8,9: eventually, occupation + non-local contributions
    edocc=   7.06324281E+00     enl0=   2.01478163E+00   enl1=   2.44765432E+00
 10: eventually, PAW "on-site" Hxc contribution: epaw1=   0.00000000E+00
 1-10 gives the relaxation energy (to be shifted if some occ is /=2.0)
   erelax=  -1.08289545E+01
 11 Contribution from 1st-order change of wavefunctions overlap
 eovl1 =  -1.99113193E-02
  No Ewald or frozen-wf contrib.: the relaxation energy is the total one
 2DEtotal=   -0.1082895445E+02 Ha. Also 2DEtotal=   -0.294670836423E+03 eV
    (  non-var. 2DEtotal :   -1.0827995375E+01 Ha)

--------------------------------------------------------------------------------
 Perturbation wavevector (in red.coord.)   0.000000  0.000000  0.000000
 Perturbation : derivative vs k along direction   2
 The set of symmetries contains only one element for this perturbation.
 symkpt : not enough symmetry to change the number of k points.

--------------------------------------------------------------------------------

-inwffil : will read wavefunctions from disk file t82o_DS11_WFK
- newkpt: read input wf with ikpt,npw=   1      69, make ikpt,npw=   1      69
- newkpt: read input wf with ikpt,npw=   1      69, make ikpt,npw=   2      69
- newkpt: read input wf with ikpt,npw=   1      69, make ikpt,npw=   3      69
- newkpt: read input wf with ikpt,npw=   2      65, make ikpt,npw=   4      65
- newkpt: read input wf with ikpt,npw=   1      69, make ikpt,npw=   5      69
- newkpt: read input wf with ikpt,npw=   1      69, make ikpt,npw=   6      69
- newkpt: read input wf with ikpt,npw=   1      69, make ikpt,npw=   7      69
- newkpt: read input wf with ikpt,npw=   2      65, make ikpt,npw=   8      65
- newkpt: read input wf with ikpt,npw=   1      69, make ikpt,npw=   9      69
- newkpt: read input wf with ikpt,npw=   1      69, make ikpt,npw=  10      69
- newkpt: read input wf with ikpt,npw=   2      65, make ikpt,npw=  11      65
- newkpt: read input wf with ikpt,npw=   1      69, make ikpt,npw=  12      69
- newkpt: read input wf with ikpt,npw=   1      69, make ikpt,npw=  13      69
- newkpt: read input wf with ikpt,npw=   1      69, make ikpt,npw=  14      69
- newkpt: read input wf with ikpt,npw=   1      69, make ikpt,npw=  15      69
- newkpt: read input wf with ikpt,npw=   2      65, make ikpt,npw=  16      65

--------------------------------------------------------------------------------

-inwffil : will read wavefunctions from disk file t82o_DS11_WFK
- newkpt: read input wf with ikpt,npw=   1      69, make ikpt,npw=   1      69
- newkpt: read input wf with ikpt,npw=   1      69, make ikpt,npw=   2      69
- newkpt: read input wf with ikpt,npw=   1      69, make ikpt,npw=   3      69
- newkpt: read input wf with ikpt,npw=   2      65, make ikpt,npw=   4      65
- newkpt: read input wf with ikpt,npw=   1      69, make ikpt,npw=   5      69
- newkpt: read input wf with ikpt,npw=   1      69, make ikpt,npw=   6      69
- newkpt: read input wf with ikpt,npw=   1      69, make ikpt,npw=   7      69
- newkpt: read input wf with ikpt,npw=   2      65, make ikpt,npw=   8      65
- newkpt: read input wf with ikpt,npw=   1      69, make ikpt,npw=   9      69
- newkpt: read input wf with ikpt,npw=   1      69, make ikpt,npw=  10      69
- newkpt: read input wf with ikpt,npw=   2      65, make ikpt,npw=  11      65
- newkpt: read input wf with ikpt,npw=   1      69, make ikpt,npw=  12      69
- newkpt: read input wf with ikpt,npw=   1      69, make ikpt,npw=  13      69
- newkpt: read input wf with ikpt,npw=   1      69, make ikpt,npw=  14      69
- newkpt: read input wf with ikpt,npw=   1      69, make ikpt,npw=  15      69
- newkpt: read input wf with ikpt,npw=   2      65, make ikpt,npw=  16      65

 Initialisation of the first-order wave-functions :
  ireadwf=   0
[...]
             iscf12         7
             iscf21        -3
             iscf22        -3
             iscf31         7
             iscf32         7
              ixc11         2
              ixc12     -1009
              ixc21         2
              ixc22     -1009
              ixc31         2
              ixc32     -1009
           jdtset       11   12   21   22   31   32
              kpt11   -2.50000000E-01  5.00000000E-01  0.00000000E+00
                      -2.50000000E-01  0.00000000E+00  0.00000000E+00
              kpt12   -2.50000000E-01  5.00000000E-01  0.00000000E+00
                      -2.50000000E-01  0.00000000E+00  0.00000000E+00
              kpt21   -2.50000000E-01  5.00000000E-01  0.00000000E+00
                       5.00000000E-01 -2.50000000E-01  0.00000000E+00
                      -2.50000000E-01 -2.50000000E-01  2.50000000E-01
                      -2.50000000E-01  0.00000000E+00  0.00000000E+00
                      -2.50000000E-01  2.50000000E-01  2.50000000E-01
                       5.00000000E-01  5.00000000E-01  2.50000000E-01
                      -2.50000000E-01  5.00000000E-01  5.00000000E-01
                       0.00000000E+00 -2.50000000E-01  0.00000000E+00
                       2.50000000E-01 -2.50000000E-01  2.50000000E-01
                       5.00000000E-01 -2.50000000E-01  5.00000000E-01
                      -2.50000000E-01 -2.50000000E-01 -2.50000000E-01
                       5.00000000E-01  0.00000000E+00  2.50000000E-01
                      -2.50000000E-01  0.00000000E+00  5.00000000E-01
                       0.00000000E+00  5.00000000E-01  2.50000000E-01
                       0.00000000E+00 -2.50000000E-01  5.00000000E-01
                       0.00000000E+00  0.00000000E+00  2.50000000E-01
              kpt22   -2.50000000E-01  5.00000000E-01  0.00000000E+00
                       5.00000000E-01 -2.50000000E-01  0.00000000E+00
                      -2.50000000E-01 -2.50000000E-01  2.50000000E-01
                      -2.50000000E-01  0.00000000E+00  0.00000000E+00
                      -2.50000000E-01  2.50000000E-01  2.50000000E-01
                       5.00000000E-01  5.00000000E-01  2.50000000E-01
                      -2.50000000E-01  5.00000000E-01  5.00000000E-01
                       0.00000000E+00 -2.50000000E-01  0.00000000E+00
                       2.50000000E-01 -2.50000000E-01  2.50000000E-01
                       5.00000000E-01 -2.50000000E-01  5.00000000E-01
                      -2.50000000E-01 -2.50000000E-01 -2.50000000E-01
                       5.00000000E-01  0.00000000E+00  2.50000000E-01
                      -2.50000000E-01  0.00000000E+00  5.00000000E-01
                       0.00000000E+00  5.00000000E-01  2.50000000E-01
                       0.00000000E+00 -2.50000000E-01  5.00000000E-01
                       0.00000000E+00  0.00000000E+00  2.50000000E-01
              kpt31   -2.50000000E-01  5.00000000E-01  0.00000000E+00
                       5.00000000E-01 -2.50000000E-01  0.00000000E+00
                      -2.50000000E-01 -2.50000000E-01  2.50000000E-01
                      -2.50000000E-01  0.00000000E+00  0.00000000E+00
                      -2.50000000E-01  2.50000000E-01  2.50000000E-01
                       5.00000000E-01  5.00000000E-01  2.50000000E-01
                      -2.50000000E-01  5.00000000E-01  5.00000000E-01
                       0.00000000E+00 -2.50000000E-01  0.00000000E+00
                       2.50000000E-01 -2.50000000E-01  2.50000000E-01
                       5.00000000E-01 -2.50000000E-01  5.00000000E-01
                      -2.50000000E-01 -2.50000000E-01 -2.50000000E-01
                       5.00000000E-01  0.00000000E+00  2.50000000E-01
                      -2.50000000E-01  0.00000000E+00  5.00000000E-01
                       0.00000000E+00  5.00000000E-01  2.50000000E-01
                       0.00000000E+00 -2.50000000E-01  5.00000000E-01
                       0.00000000E+00  0.00000000E+00  2.50000000E-01
              kpt32   -2.50000000E-01  5.00000000E-01  0.00000000E+00
                       5.00000000E-01 -2.50000000E-01  0.00000000E+00
                      -2.50000000E-01 -2.50000000E-01  2.50000000E-01
                      -2.50000000E-01  0.00000000E+00  0.00000000E+00
                      -2.50000000E-01  2.50000000E-01  2.50000000E-01
                       5.00000000E-01  5.00000000E-01  2.50000000E-01
                      -2.50000000E-01  5.00000000E-01  5.00000000E-01
                       0.00000000E+00 -2.50000000E-01  0.00000000E+00
                       2.50000000E-01 -2.50000000E-01  2.50000000E-01
                       5.00000000E-01 -2.50000000E-01  5.00000000E-01
                      -2.50000000E-01 -2.50000000E-01 -2.50000000E-01
                       5.00000000E-01  0.00000000E+00  2.50000000E-01
                      -2.50000000E-01  0.00000000E+00  5.00000000E-01
                       0.00000000E+00  5.00000000E-01  2.50000000E-01
                       0.00000000E+00 -2.50000000E-01  5.00000000E-01
                       0.00000000E+00  0.00000000E+00  2.50000000E-01
           kptopt11         1
           kptopt12         1
           kptopt21         2
           kptopt22         2
           kptopt31         2
           kptopt32         2
         kptrlatt        2   -2    2     -2    2    2     -2   -2    2
          kptrlen      2.04400000E+01
P           mkmem11         2
P           mkmem12         2
P           mkmem21        16
P           mkmem22        16
P           mkmem31        16
P           mkmem32        16
P          mkqmem11         2
P          mkqmem12         2
P          mkqmem21        16
P          mkqmem22        16
P          mkqmem31        16
P          mkqmem32        16
P          mk1mem11         2
P          mk1mem12         2
P          mk1mem21        16
P          mk1mem22        16
P          mk1mem31        16
P          mk1mem32        16
            natom           2
            nband11         5
            nband12         5
            nband21         5
            nband22         5
            nband31         5
            nband32         5
           ndtset           6
            ngfft          12      12      12
          ngfftdg          16      16      16
             nkpt11         2
             nkpt12         2
             nkpt21        16
             nkpt22        16
             nkpt31        16
             nkpt32        16
             nqpt11         0
             nqpt12         0
             nqpt21         1
             nqpt22         1
             nqpt31         1
             nqpt32         1
            nstep           3
             nsym          48
           ntypat           1
              occ11    2.000000  2.000000  2.000000  2.000000  0.000000
              occ12    2.000000  2.000000  2.000000  2.000000  0.000000
              occ21    2.000000  2.000000  2.000000  2.000000  0.000000
              occ22    2.000000  2.000000  2.000000  2.000000  0.000000
              occ31    2.000000  2.000000  2.000000  2.000000  0.000000
              occ32    2.000000  2.000000  2.000000  2.000000  0.000000
        optdriver11         0
        optdriver12         0
        optdriver21         1
        optdriver22         1
        optdriver31         1
        optdriver32         1
        pawecutdg      6.00000000E+00 Hartree
         pawxcdev           0
            rfdir11         0       0       0
            rfdir12         0       0       0
            rfdir21         1       1       1
            rfdir22         1       1       1
            rfdir31         1       0       0
            rfdir32         1       0       0
           rfelfd11         0
           rfelfd12         0
           rfelfd21         2
           rfelfd22         2
           rfelfd31         0
           rfelfd32         0
           rfphon11         0
           rfphon12         0
           rfphon21         0
           rfphon22         0
           rfphon31         1
           rfphon32         1
            rprim      0.0000000000E+00  5.0000000000E-01  5.0000000000E-01
                       5.0000000000E-01  0.0000000000E+00  5.0000000000E-01
                       5.0000000000E-01  5.0000000000E-01  0.0000000000E+00
           shiftk      5.00000000E-01  5.00000000E-01  5.00000000E-01
          spgroup         227
           strten11    1.7499748980E-04  1.7499748980E-04  1.7499748980E-04
                       0.0000000000E+00  0.0000000000E+00  0.0000000000E+00
           strten12    1.7499748980E-04  1.7499748980E-04  1.7499748980E-04
                       0.0000000000E+00  0.0000000000E+00  0.0000000000E+00
           strten31    0.0000000000E+00  0.0000000000E+00  0.0000000000E+00
                       0.0000000000E+00  0.0000000000E+00  0.0000000000E+00
           strten32    0.0000000000E+00  0.0000000000E+00  0.0000000000E+00
                       0.0000000000E+00  0.0000000000E+00  0.0000000000E+00
           symrel      1  0  0   0  1  0   0  0  1      -1  0  0   0 -1  0   0  0 -1
                       0 -1  1   0 -1  0   1 -1  0       0  1 -1   0  1  0  -1  1  0
                      -1  0  0  -1  0  1  -1  1  0       1  0  0   1  0 -1   1 -1  0
                       0  1 -1   1  0 -1   0  0 -1       0 -1  1  -1  0  1   0  0  1
                      -1  0  0  -1  1  0  -1  0  1       1  0  0   1 -1  0   1  0 -1
                       0 -1  1   1 -1  0   0 -1  0       0  1 -1  -1  1  0   0  1  0
                       1  0  0   0  0  1   0  1  0      -1  0  0   0  0 -1   0 -1  0
                       0  1 -1   0  0 -1   1  0 -1       0 -1  1   0  0  1  -1  0  1
                      -1  0  1  -1  1  0  -1  0  0       1  0 -1   1 -1  0   1  0  0
                       0 -1  0   1 -1  0   0 -1  1       0  1  0  -1  1  0   0  1 -1
                       1  0 -1   0  0 -1   0  1 -1      -1  0  1   0  0  1   0 -1  1
                       0  1  0   0  0  1   1  0  0       0 -1  0   0  0 -1  -1  0  0
                       1  0 -1   0  1 -1   0  0 -1      -1  0  1   0 -1  1   0  0  1
                       0 -1  0   0 -1  1   1 -1  0       0  1  0   0  1 -1  -1  1  0
                      -1  0  1  -1  0  0  -1  1  0       1  0 -1   1  0  0   1 -1  0
                       0  1  0   1  0  0   0  0  1       0 -1  0  -1  0  0   0  0 -1
                       0  0 -1   0  1 -1   1  0 -1       0  0  1   0 -1  1  -1  0  1
                       1 -1  0   0 -1  1   0 -1  0      -1  1  0   0  1 -1   0  1  0
                       0  0  1   1  0  0   0  1  0       0  0 -1  -1  0  0   0 -1  0
                      -1  1  0  -1  0  0  -1  0  1       1 -1  0   1  0  0   1  0 -1
                       0  0  1   0  1  0   1  0  0       0  0 -1   0 -1  0  -1  0  0
                       1 -1  0   0 -1  0   0 -1  1      -1  1  0   0  1  0   0  1 -1
                       0  0 -1   1  0 -1   0  1 -1       0  0  1  -1  0  1   0 -1  1
                      -1  1  0  -1  0  1  -1  0  0       1 -1  0   1  0 -1   1  0  0
            tnons      0.0000000  0.0000000  0.0000000     0.0000000  0.0000000  0.0000000
                       0.0000000  0.5000000  0.0000000     0.0000000  0.5000000  0.0000000
                       0.5000000  0.0000000  0.0000000     0.5000000  0.0000000  0.0000000
                       0.0000000  0.0000000  0.5000000     0.0000000  0.0000000  0.5000000
                       0.5000000  0.0000000  0.0000000     0.5000000  0.0000000  0.0000000
                       0.0000000  0.5000000  0.0000000     0.0000000  0.5000000  0.0000000
                       0.0000000  0.0000000  0.0000000     0.0000000  0.0000000  0.0000000
                       0.0000000  0.0000000  0.5000000     0.0000000  0.0000000  0.5000000
                       0.5000000  0.0000000  0.0000000     0.5000000  0.0000000  0.0000000
                       0.0000000  0.5000000  0.0000000     0.0000000  0.5000000  0.0000000
                       0.0000000  0.0000000  0.5000000     0.0000000  0.0000000  0.5000000
                       0.0000000  0.0000000  0.0000000     0.0000000  0.0000000  0.0000000
                       0.0000000  0.0000000  0.5000000     0.0000000  0.0000000  0.5000000
                       0.0000000  0.5000000  0.0000000     0.0000000  0.5000000  0.0000000
                       0.5000000  0.0000000  0.0000000     0.5000000  0.0000000  0.0000000
                       0.0000000  0.0000000  0.0000000     0.0000000  0.0000000  0.0000000
                       0.0000000  0.0000000  0.5000000     0.0000000  0.0000000  0.5000000
                       0.0000000  0.5000000  0.0000000     0.0000000  0.5000000  0.0000000
                       0.0000000  0.0000000  0.0000000     0.0000000  0.0000000  0.0000000
                       0.5000000  0.0000000  0.0000000     0.5000000  0.0000000  0.0000000
                       0.0000000  0.0000000  0.0000000     0.0000000  0.0000000  0.0000000
                       0.0000000  0.5000000  0.0000000     0.0000000  0.5000000  0.0000000
                       0.0000000  0.0000000  0.5000000     0.0000000  0.0000000  0.5000000
                       0.5000000  0.0000000  0.0000000     0.5000000  0.0000000  0.0000000
           tolvrs11    1.00000000E-10
           tolvrs12    1.00000000E-10
           tolvrs21    0.00000000E+00
           tolvrs22    0.00000000E+00
           tolvrs31    1.00000000E-10
           tolvrs32    1.00000000E-10
           tolwfr11    0.00000000E+00
           tolwfr12    0.00000000E+00
           tolwfr21    1.00000000E-22
           tolwfr22    1.00000000E-22
           tolwfr31    0.00000000E+00
           tolwfr32    0.00000000E+00
            typat      1  1
           useylm           1
              wtk11      0.75000    0.25000
              wtk12      0.75000    0.25000
              wtk21      0.06250    0.06250    0.06250    0.06250    0.06250    0.06250
                         0.06250    0.06250    0.06250    0.06250    0.06250    0.06250
                         0.06250    0.06250    0.06250    0.06250
              wtk22      0.06250    0.06250    0.06250    0.06250    0.06250    0.06250
                         0.06250    0.06250    0.06250    0.06250    0.06250    0.06250
                         0.06250    0.06250    0.06250    0.06250
              wtk31      0.06250    0.06250    0.06250    0.06250    0.06250    0.06250
                         0.06250    0.06250    0.06250    0.06250    0.06250    0.06250
                         0.06250    0.06250    0.06250    0.06250
              wtk32      0.06250    0.06250    0.06250    0.06250    0.06250    0.06250
                         0.06250    0.06250    0.06250    0.06250    0.06250    0.06250
                         0.06250    0.06250    0.06250    0.06250
           xangst      6.7602388397E-01  6.7602388397E-01  6.7602388397E-01
                       4.7321671878E+00  4.7321671878E+00  4.7321671878E+00
            xcart      1.2775000000E+00  1.2775000000E+00  1.2775000000E+00
                       8.9425000000E+00  8.9425000000E+00  8.9425000000E+00
             xred      1.2500000000E-01  1.2500000000E-01  1.2500000000E-01
                       8.7500000000E-01  8.7500000000E-01  8.7500000000E-01
            znucl       14.00000

================================================================================


- Timing analysis has been suppressed with timopt=0



================================================================================

 Suggested references for the acknowledgment of ABINIT usage.

 The users of ABINIT have little formal obligations with respect to the ABINIT group
 (those specified in the GNU General Public License, http://www.gnu.org/copyleft/gpl.txt).
 However, it is common practice in the scientific literature,
 to acknowledge the efforts of people that have made the research possible.
 In this spirit, please find below suggested citations of work written by ABINIT developers,
 corresponding to implementations inside of ABINIT that you have used in the present run.
 Note also that it will be of great value to readers of publications presenting these results,
 to read papers enabling them to understand the theoretical formalism and details
 of the ABINIT implementation.
 For information on why they are suggested, see also http://www.abinit.org/about/?text=acknowledgments.

 [1] Implementation of the Projector Augmented-Wave Method in the ABINIT code.
 M. Torrent, F. Jollet, F. Bottin, G. Zerah, and X. Gonze Comput. Mat. Science 42, 337, (2008).
 Comment : PAW calculations. Strong suggestion to cite this paper.

 [2] Projector augmented-wave approach to density-functional perturbation theory.
 C. Audouze, F. Jollet, M. Torrent and X. Gonze, Phys. Rev. B 73, 235101 (2006).
 Comparison between projector augmented-wave and ultrasoft pseudopotential formalisms
 at the density-functional perturbation theory level.
 C. Audouze, F. Jollet, M. Torrent and X. Gonze, Phys. Rev. B 78, 035105 (2008).
 Comment : to be cited in case the computation of response function with PAW, i.e. (rfphon=1 or rfelfd=1) and usepaw=1.
 Strong suggestion to cite these papers.

 [3] Libxc: A library of exchange and correlation functionals for density functional theory.
 M.A.L. Marques, M.J.T. Oliveira, T. Burnus, Computer Physics Communications 183, 2227 (2012).
 Comment : to be cited when LibXC is used (negative value of ixc)
 Strong suggestion to cite this paper.

 [4] First-principles responses of solids to atomic displacements and homogeneous electric fields:,
 implementation of a conjugate-gradient algorithm. X. Gonze, Phys. Rev. B55, 10337 (1997).
 Comment : Non-vanishing rfphon and/or rfelfd, in the norm-conserving case.

 [5] Dynamical matrices, Born effective charges, dielectric permittivity tensors, and ,
 interatomic force constants from density-functional perturbation theory,
 X. Gonze and C. Lee, Phys. Rev. B55, 10355 (1997).
 Comment : Non-vanishing rfphon and/or rfelfd, in the norm-conserving case.

 [6] ABINIT : First-principles approach of materials and nanosystem properties.
 X. Gonze, B. Amadon, P.-M. Anglade, J.-M. Beuken, F. Bottin, P. Boulanger, F. Bruneval,
 D. Caliste, R. Caracas, M. Cote, T. Deutsch, L. Genovese, Ph. Ghosez, M. Giantomassi
 S. Goedecker, D.R. Hamann, P. Hermet, F. Jollet, G. Jomard, S. Leroux, M. Mancini, S. Mazevet,
 M.J.T. Oliveira, G. Onida, Y. Pouillon, T. Rangel, G.-M. Rignanese, D. Sangalli, R. Shaltaf,
 M. Torrent, M.J. Verstraete, G. Zerah, J.W. Zwanziger
 Computer Phys. Comm. 180, 2582-2615 (2009).
 Comment : the third generic paper describing the ABINIT project.
 Note that a version of this paper, that is not formatted for Computer Phys. Comm. 
 is available at http://www.abinit.org/about/ABINIT_CPC_v10.pdf .
 The licence allows the authors to put it on the Web.

 [7] A brief introduction to the ABINIT software package.
 X. Gonze, G.-M. Rignanese, M. Verstraete, J.-M. Beuken, Y. Pouillon, R. Caracas, F. Jollet,
 M. Torrent, G. Zerah, M. Mikami, Ph. Ghosez, M. Veithen, J.-Y. Raty, V. Olevano, F. Bruneval,
 L. Reining, R. Godby, G. Onida, D.R. Hamann, and D.C. Allan.
 Z. Kristallogr. 220, 558-562 (2005).
 Comment : the second generic paper describing the ABINIT project. Note that this paper
 should be cited especially if you are using the GW part of ABINIT, as several authors
 of this part are not in the list of authors of the first or third paper.
 The .pdf of the latter paper is available at http://www.abinit.org/about/zfk_0505-06_558-562.pdf.
 Note that it should not redistributed (Copyright by Oldenburg Wissenshaftverlag,
 the licence allows the authors to put it on the Web).
-
- Proc.   0 individual time (sec): cpu=         17.0  wall=         17.0

================================================================================

 Calculation completed.
.Delivered   66 WARNINGs and   0 COMMENTs to log file.
+Overall time at end (sec) : cpu=         17.0  wall=         17.0
