
.Version 7.9.3 of ABINIT 
.(MPI version, prepared for a x86_64_linux_gnu4.7 computer) 

.Copyright (C) 1998-2014 ABINIT group . 
 ABINIT comes with ABSOLUTELY NO WARRANTY.
 It is free software, and you are welcome to redistribute it
 under certain conditions (GNU General Public License,
 see ~abinit/COPYING or http://www.gnu.org/copyleft/gpl.txt).

 ABINIT is a project of the Universite Catholique de Louvain,
 Corning Inc. and other collaborators, see ~abinit/doc/developers/contributors.txt .
 Please read ~abinit/doc/users/acknowledgments.html for suggested
 acknowledgments of the ABINIT effort.
 For more information, see http://www.abinit.org .

.Starting date : Sat 30 Aug 2014.
- ( at 22h23 )
  
- input  file    -> telast_4.in
- output file    -> telast_4.out
- root for input  files -> telast_4i
- root for output files -> telast_4o


 DATASET    1 : space group P6_3 m c (#186); Bravais hP (primitive hexag.)
================================================================================
 Values of the parameters that define the memory need for DATASET  1.
   intxc =         0  ionmov =         0    iscf =         5 xclevel =         1
  lmnmax =         2   lnmax =         2   mband =         8  mffmem =         1
P  mgfft =        30   mkmem =         8 mpssoang=         3     mpw =       428
  mqgrid =      3001   natom =         4    nfft =      9720    nkpt =         8
  nloalg =         4  nspden =         1 nspinor =         1  nsppol =         1
    nsym =        12  n1xccc =      2501  ntypat =         2  occopt =         1
================================================================================
P This job should need less than                       3.687 Mbytes of memory.
  Rough estimation (10% accuracy) of disk space for files :
_ WF disk file :      0.420 Mbytes ; DEN or POT disk file :      0.076 Mbytes.
================================================================================


 DATASET    2 : space group P6_3 m c (#186); Bravais hP (primitive hexag.)
================================================================================
 Values of the parameters that define the memory need for DATASET  2.
   intxc =         0  ionmov =         0    iscf =         5 xclevel =         1
  lmnmax =         2   lnmax =         2   mband =         8  mffmem =         1
P  mgfft =        30   mkmem =        64 mpssoang=         3     mpw =       428
  mqgrid =      3001   natom =         4    nfft =      9720    nkpt =        64
  nloalg =         4  nspden =         1 nspinor =         1  nsppol =         1
    nsym =        12  n1xccc =      2501  ntypat =         2  occopt =         1
================================================================================
P This job should need less than                       6.976 Mbytes of memory.
  Rough estimation (10% accuracy) of disk space for files :
_ WF disk file :      3.346 Mbytes ; DEN or POT disk file :      0.076 Mbytes.
================================================================================


 DATASET    3 : space group P6_3 m c (#186); Bravais hP (primitive hexag.)
================================================================================
 Values of the parameters that define the memory need for DATASET  3.
   intxc =         0  ionmov =         0    iscf =         5 xclevel =         1
  lmnmax =         2   lnmax =         2   mband =         8  mffmem =         1
P  mgfft =        30   mkmem =         8 mpssoang=         3     mpw =       428
  mqgrid =      3001   natom =         4    nfft =      9720    nkpt =         8
  nloalg =         4  nspden =         1 nspinor =         1  nsppol =         1
    nsym =        12  n1xccc =      2501  ntypat =         2  occopt =         1
================================================================================
P This job should need less than                       3.687 Mbytes of memory.
  Rough estimation (10% accuracy) of disk space for files :
_ WF disk file :      0.420 Mbytes ; DEN or POT disk file :      0.076 Mbytes.
================================================================================


 DATASET    4 : space group P6_3 m c (#186); Bravais hP (primitive hexag.)
================================================================================
 Values of the parameters that define the memory need for DATASET  4.
   intxc =         0  ionmov =         0    iscf =         5 xclevel =         1
  lmnmax =         2   lnmax =         2   mband =         8  mffmem =         1
P  mgfft =        30   mkmem =        64 mpssoang=         3     mpw =       428
  mqgrid =      3001   natom =         4    nfft =      9720    nkpt =        64
  nloalg =         4  nspden =         1 nspinor =         1  nsppol =         1
    nsym =        12  n1xccc =      2501  ntypat =         2  occopt =         1
================================================================================
P This job should need less than                       6.976 Mbytes of memory.
  Rough estimation (10% accuracy) of disk space for files :
_ WF disk file :      3.346 Mbytes ; DEN or POT disk file :      0.076 Mbytes.
================================================================================

--------------------------------------------------------------------------------
------------- Echo of variables that govern the present computation ------------
--------------------------------------------------------------------------------
-
- outvars: echo of selected default values                                      
-   accesswff0 =  0 , fftalg0 =112 , wfoptalg0 =  0
-
- outvars: echo of global parameters not present in the input file              
-  max_nthreads =    0
-
 -outvars: echo values of preprocessed input variables --------
            acell      7.5389648144E+00  7.5389648144E+00  1.2277795374E+01 Bohr
              amu      2.69815390E+01  7.49215900E+01
         berryopt1          0
         berryopt2         -1
         berryopt3          0
         berryopt4         -1
           diemac      9.00000000E+00
             ecut      6.00000000E+00 Hartree
           ecutsm      5.00000000E-01 Hartree
-          fftalg         112
           getwfk1          0
           getwfk2         -1
           getwfk3         -1
           getwfk4         -1
             iscf           5
           jdtset        1    2    3    4
              kpt1     0.00000000E+00  0.00000000E+00  1.25000000E-01
                       2.50000000E-01  0.00000000E+00  1.25000000E-01
                       5.00000000E-01  0.00000000E+00  1.25000000E-01
                       2.50000000E-01  2.50000000E-01  1.25000000E-01
                       0.00000000E+00  0.00000000E+00  3.75000000E-01
                       2.50000000E-01  0.00000000E+00  3.75000000E-01
                       5.00000000E-01  0.00000000E+00  3.75000000E-01
                       2.50000000E-01  2.50000000E-01  3.75000000E-01
              kpt2     0.00000000E+00  0.00000000E+00  1.25000000E-01
                       2.50000000E-01  0.00000000E+00  1.25000000E-01
                       5.00000000E-01  0.00000000E+00  1.25000000E-01
                      -2.50000000E-01  0.00000000E+00  1.25000000E-01
                       0.00000000E+00  2.50000000E-01  1.25000000E-01
                       2.50000000E-01  2.50000000E-01  1.25000000E-01
                       5.00000000E-01  2.50000000E-01  1.25000000E-01
                      -2.50000000E-01  2.50000000E-01  1.25000000E-01
                       0.00000000E+00  5.00000000E-01  1.25000000E-01
                       2.50000000E-01  5.00000000E-01  1.25000000E-01
                       5.00000000E-01  5.00000000E-01  1.25000000E-01
                      -2.50000000E-01  5.00000000E-01  1.25000000E-01
                       0.00000000E+00 -2.50000000E-01  1.25000000E-01
                       2.50000000E-01 -2.50000000E-01  1.25000000E-01
                       5.00000000E-01 -2.50000000E-01  1.25000000E-01
                      -2.50000000E-01 -2.50000000E-01  1.25000000E-01
                       0.00000000E+00  0.00000000E+00  3.75000000E-01
                       2.50000000E-01  0.00000000E+00  3.75000000E-01
                       5.00000000E-01  0.00000000E+00  3.75000000E-01
                      -2.50000000E-01  0.00000000E+00  3.75000000E-01
                       0.00000000E+00  2.50000000E-01  3.75000000E-01
                       2.50000000E-01  2.50000000E-01  3.75000000E-01
                       5.00000000E-01  2.50000000E-01  3.75000000E-01
                      -2.50000000E-01  2.50000000E-01  3.75000000E-01
                       0.00000000E+00  5.00000000E-01  3.75000000E-01
                       2.50000000E-01  5.00000000E-01  3.75000000E-01
                       5.00000000E-01  5.00000000E-01  3.75000000E-01
                      -2.50000000E-01  5.00000000E-01  3.75000000E-01
                       0.00000000E+00 -2.50000000E-01  3.75000000E-01
                       2.50000000E-01 -2.50000000E-01  3.75000000E-01
                       5.00000000E-01 -2.50000000E-01  3.75000000E-01
                      -2.50000000E-01 -2.50000000E-01  3.75000000E-01
                       0.00000000E+00  0.00000000E+00 -3.75000000E-01
                       2.50000000E-01  0.00000000E+00 -3.75000000E-01
                       5.00000000E-01  0.00000000E+00 -3.75000000E-01
                      -2.50000000E-01  0.00000000E+00 -3.75000000E-01
                       0.00000000E+00  2.50000000E-01 -3.75000000E-01
                       2.50000000E-01  2.50000000E-01 -3.75000000E-01
                       5.00000000E-01  2.50000000E-01 -3.75000000E-01
                      -2.50000000E-01  2.50000000E-01 -3.75000000E-01
                       0.00000000E+00  5.00000000E-01 -3.75000000E-01
                       2.50000000E-01  5.00000000E-01 -3.75000000E-01
                       5.00000000E-01  5.00000000E-01 -3.75000000E-01
                      -2.50000000E-01  5.00000000E-01 -3.75000000E-01
                       0.00000000E+00 -2.50000000E-01 -3.75000000E-01
                       2.50000000E-01 -2.50000000E-01 -3.75000000E-01
                       5.00000000E-01 -2.50000000E-01 -3.75000000E-01
                      -2.50000000E-01 -2.50000000E-01 -3.75000000E-01
                       0.00000000E+00  0.00000000E+00 -1.25000000E-01
                       2.50000000E-01  0.00000000E+00 -1.25000000E-01
              kpt3     0.00000000E+00  0.00000000E+00  1.25000000E-01
                       2.50000000E-01  0.00000000E+00  1.25000000E-01
                       5.00000000E-01  0.00000000E+00  1.25000000E-01
                       2.50000000E-01  2.50000000E-01  1.25000000E-01
                       0.00000000E+00  0.00000000E+00  3.75000000E-01
                       2.50000000E-01  0.00000000E+00  3.75000000E-01
                       5.00000000E-01  0.00000000E+00  3.75000000E-01
                       2.50000000E-01  2.50000000E-01  3.75000000E-01
              kpt4     0.00000000E+00  0.00000000E+00  1.25000000E-01
                       2.50000000E-01  0.00000000E+00  1.25000000E-01
                       5.00000000E-01  0.00000000E+00  1.25000000E-01
                      -2.50000000E-01  0.00000000E+00  1.25000000E-01
                       0.00000000E+00  2.50000000E-01  1.25000000E-01
                       2.50000000E-01  2.50000000E-01  1.25000000E-01
                       5.00000000E-01  2.50000000E-01  1.25000000E-01
                      -2.50000000E-01  2.50000000E-01  1.25000000E-01
                       0.00000000E+00  5.00000000E-01  1.25000000E-01
                       2.50000000E-01  5.00000000E-01  1.25000000E-01
                       5.00000000E-01  5.00000000E-01  1.25000000E-01
                      -2.50000000E-01  5.00000000E-01  1.25000000E-01
                       0.00000000E+00 -2.50000000E-01  1.25000000E-01
                       2.50000000E-01 -2.50000000E-01  1.25000000E-01
                       5.00000000E-01 -2.50000000E-01  1.25000000E-01
                      -2.50000000E-01 -2.50000000E-01  1.25000000E-01
                       0.00000000E+00  0.00000000E+00  3.75000000E-01
                       2.50000000E-01  0.00000000E+00  3.75000000E-01
                       5.00000000E-01  0.00000000E+00  3.75000000E-01
                      -2.50000000E-01  0.00000000E+00  3.75000000E-01
                       0.00000000E+00  2.50000000E-01  3.75000000E-01
                       2.50000000E-01  2.50000000E-01  3.75000000E-01
                       5.00000000E-01  2.50000000E-01  3.75000000E-01
                      -2.50000000E-01  2.50000000E-01  3.75000000E-01
                       0.00000000E+00  5.00000000E-01  3.75000000E-01
                       2.50000000E-01  5.00000000E-01  3.75000000E-01
                       5.00000000E-01  5.00000000E-01  3.75000000E-01
                      -2.50000000E-01  5.00000000E-01  3.75000000E-01
                       0.00000000E+00 -2.50000000E-01  3.75000000E-01
                       2.50000000E-01 -2.50000000E-01  3.75000000E-01
                       5.00000000E-01 -2.50000000E-01  3.75000000E-01
                      -2.50000000E-01 -2.50000000E-01  3.75000000E-01
                       0.00000000E+00  0.00000000E+00 -3.75000000E-01
                       2.50000000E-01  0.00000000E+00 -3.75000000E-01
                       5.00000000E-01  0.00000000E+00 -3.75000000E-01
                      -2.50000000E-01  0.00000000E+00 -3.75000000E-01
                       0.00000000E+00  2.50000000E-01 -3.75000000E-01
                       2.50000000E-01  2.50000000E-01 -3.75000000E-01
                       5.00000000E-01  2.50000000E-01 -3.75000000E-01
                      -2.50000000E-01  2.50000000E-01 -3.75000000E-01
                       0.00000000E+00  5.00000000E-01 -3.75000000E-01
                       2.50000000E-01  5.00000000E-01 -3.75000000E-01
                       5.00000000E-01  5.00000000E-01 -3.75000000E-01
                      -2.50000000E-01  5.00000000E-01 -3.75000000E-01
                       0.00000000E+00 -2.50000000E-01 -3.75000000E-01
                       2.50000000E-01 -2.50000000E-01 -3.75000000E-01
                       5.00000000E-01 -2.50000000E-01 -3.75000000E-01
                      -2.50000000E-01 -2.50000000E-01 -3.75000000E-01
                       0.00000000E+00  0.00000000E+00 -1.25000000E-01
                       2.50000000E-01  0.00000000E+00 -1.25000000E-01
                       outvar_i_n : Printing only first  50 k-points.
           kptopt1          1
           kptopt2          3
           kptopt3          1
           kptopt4          3
         kptrlatt        4    0    0      0    4    0      0    0    4
          kptrlen      3.01558593E+01
P           mkmem1          8
P           mkmem2         64
P           mkmem3          8
P           mkmem4         64
            natom           4
            nband1          8
            nband2          8
            nband3          8
            nband4          8
           ndtset           4
            ngfft          18      18      30
             nkpt1          8
             nkpt2         64
             nkpt3          8
             nkpt4         64
            nstep          40
             nsym          12
           ntypat           2
              occ1     2.000000  2.000000  2.000000  2.000000  2.000000  2.000000
                       2.000000  2.000000
              occ2     2.000000  2.000000  2.000000  2.000000  2.000000  2.000000
                       2.000000  2.000000
              occ3     2.000000  2.000000  2.000000  2.000000  2.000000  2.000000
                       2.000000  2.000000
              occ4     2.000000  2.000000  2.000000  2.000000  2.000000  2.000000
                       2.000000  2.000000
        optforces           1
            rfdir1          0       0       0
            rfdir2          1       1       1
            rfdir3          0       0       0
            rfdir4          1       1       1
            rprim1     8.6602540378E-01  5.0000000000E-01  0.0000000000E+00
                      -8.6602540378E-01  5.0000000000E-01  0.0000000000E+00
                       0.0000000000E+00  0.0000000000E+00  9.9990000000E-01
            rprim2     8.6602540378E-01  5.0000000000E-01  0.0000000000E+00
                      -8.6602540378E-01  5.0000000000E-01  0.0000000000E+00
                       0.0000000000E+00  0.0000000000E+00  9.9990000000E-01
            rprim3     8.6602540378E-01  5.0000000000E-01  0.0000000000E+00
                      -8.6602540378E-01  5.0000000000E-01  0.0000000000E+00
                       0.0000000000E+00  0.0000000000E+00  1.0001000000E+00
            rprim4     8.6602540378E-01  5.0000000000E-01  0.0000000000E+00
                      -8.6602540378E-01  5.0000000000E-01  0.0000000000E+00
                       0.0000000000E+00  0.0000000000E+00  1.0001000000E+00
           shiftk      0.00000000E+00  0.00000000E+00  5.00000000E-01
          spgroup         186
           symrel      1  0  0   0  1  0   0  0  1       0  1  0   1  0  0   0  0  1
                       1  1  0  -1  0  0   0  0  1      -1  0  0   1  1  0   0  0  1
                       0  1  0  -1 -1  0   0  0  1      -1 -1  0   0  1  0   0  0  1
                      -1  0  0   0 -1  0   0  0  1       0 -1  0  -1  0  0   0  0  1
                      -1 -1  0   1  0  0   0  0  1       1  0  0  -1 -1  0   0  0  1
                       0 -1  0   1  1  0   0  0  1       1  1  0   0 -1  0   0  0  1
            tnons      0.0000000  0.0000000  0.0000000     0.0000000  0.0000000  0.5000000
                       0.0000000  0.0000000  0.5000000    -0.0000000  0.0000000  0.0000000
                      -0.0000000  0.0000000  0.0000000    -0.0000000 -0.0000000  0.5000000
                      -0.0000000 -0.0000000  0.5000000    -0.0000000 -0.0000000  0.0000000
                      -0.0000000 -0.0000000  0.0000000     0.0000000 -0.0000000  0.5000000
                       0.0000000 -0.0000000  0.5000000     0.0000000  0.0000000  0.0000000
           tolvrs      1.00000000E-18
            typat      1  1  2  2
              wtk1       0.03125    0.18750    0.09375    0.18750    0.03125    0.18750
                         0.09375    0.18750
              wtk2       0.01563    0.01563    0.01563    0.01563    0.01563    0.01563
                         0.01563    0.01563    0.01563    0.01563    0.01563    0.01563
                         0.01563    0.01563    0.01563    0.01563    0.01563    0.01563
                         0.01563    0.01563    0.01563    0.01563    0.01563    0.01563
                         0.01563    0.01563    0.01563    0.01563    0.01563    0.01563
                         0.01563    0.01563    0.01563    0.01563    0.01563    0.01563
                         0.01563    0.01563    0.01563    0.01563    0.01563    0.01563
                         0.01563    0.01563    0.01563    0.01563    0.01563    0.01563
                         0.01563    0.01563
              wtk3       0.03125    0.18750    0.09375    0.18750    0.03125    0.18750
                         0.09375    0.18750
              wtk4       0.01563    0.01563    0.01563    0.01563    0.01563    0.01563
                         0.01563    0.01563    0.01563    0.01563    0.01563    0.01563
                         0.01563    0.01563    0.01563    0.01563    0.01563    0.01563
                         0.01563    0.01563    0.01563    0.01563    0.01563    0.01563
                         0.01563    0.01563    0.01563    0.01563    0.01563    0.01563
                         0.01563    0.01563    0.01563    0.01563    0.01563    0.01563
                         0.01563    0.01563    0.01563    0.01563    0.01563    0.01563
                         0.01563    0.01563    0.01563    0.01563    0.01563    0.01563
                         0.01563    0.01563
                       outvars : Printing only first  50 k-points.
           xangst1    -1.1516545412E+00  1.9947241781E+00  0.0000000000E+00
                       1.1516545412E+00  1.9947241781E+00  3.2482398854E+00
                      -1.1516545412E+00  1.9947241781E+00  2.4432343357E+00
                       1.1516545412E+00  1.9947241781E+00  5.6914742211E+00
           xangst2    -1.1516545412E+00  1.9947241781E+00  0.0000000000E+00
                       1.1516545412E+00  1.9947241781E+00  3.2482398854E+00
                      -1.1516545412E+00  1.9947241781E+00  2.4432343357E+00
                       1.1516545412E+00  1.9947241781E+00  5.6914742211E+00
           xangst3    -1.1516545412E+00  1.9947241781E+00  0.0000000000E+00
                       1.1516545412E+00  1.9947241781E+00  3.2488895983E+00
                      -1.1516545412E+00  1.9947241781E+00  2.4437230314E+00
                       1.1516545412E+00  1.9947241781E+00  5.6926126297E+00
           xangst4    -1.1516545412E+00  1.9947241781E+00  0.0000000000E+00
                       1.1516545412E+00  1.9947241781E+00  3.2488895983E+00
                      -1.1516545412E+00  1.9947241781E+00  2.4437230314E+00
                       1.1516545412E+00  1.9947241781E+00  5.6926126297E+00
            xcart1    -2.1763116825E+00  3.7694824072E+00  0.0000000000E+00
                       2.1763116825E+00  3.7694824072E+00  6.1382837972E+00
                      -2.1763116825E+00  3.7694824072E+00  4.6170437729E+00
                       2.1763116825E+00  3.7694824072E+00  1.0755327570E+01
            xcart2    -2.1763116825E+00  3.7694824072E+00  0.0000000000E+00
                       2.1763116825E+00  3.7694824072E+00  6.1382837972E+00
                      -2.1763116825E+00  3.7694824072E+00  4.6170437729E+00
                       2.1763116825E+00  3.7694824072E+00  1.0755327570E+01
            xcart3    -2.1763116825E+00  3.7694824072E+00  0.0000000000E+00
                       2.1763116825E+00  3.7694824072E+00  6.1395115768E+00
                      -2.1763116825E+00  3.7694824072E+00  4.6179672740E+00
                       2.1763116825E+00  3.7694824072E+00  1.0757478851E+01
            xcart4    -2.1763116825E+00  3.7694824072E+00  0.0000000000E+00
                       2.1763116825E+00  3.7694824072E+00  6.1395115768E+00
                      -2.1763116825E+00  3.7694824072E+00  4.6179672740E+00
                       2.1763116825E+00  3.7694824072E+00  1.0757478851E+01
             xred      3.3333333333E-01  6.6666666667E-01  0.0000000000E+00
                       6.6666666667E-01  3.3333333333E-01  5.0000000000E-01
                       3.3333333333E-01  6.6666666667E-01  3.7608588373E-01
                       6.6666666667E-01  3.3333333333E-01  8.7608588373E-01
            znucl       13.00000   33.00000

================================================================================

 chkinp: Checking input parameters for consistency, jdtset=   1.

 chkinp: Checking input parameters for consistency, jdtset=   2.

 chkinp: Checking input parameters for consistency, jdtset=   3.

 chkinp: Checking input parameters for consistency, jdtset=   4.

================================================================================
== DATASET  1 ==================================================================
-   nproc =    1

 Exchange-correlation functional for the present dataset will be:
  LDA: new Teter (4/93) with spin-polarized option - ixc=1
 Citation for XC functional:
  S. Goedecker, M. Teter, J. Huetter, PRB 54, 1703 (1996)

 Real(R)+Recip(G) space primitive vectors, cartesian coordinates (Bohr,Bohr^-1):
 R(1)=  6.5289350  3.7694824  0.0000000  G(1)=  0.0765822  0.1326442  0.0000000
 R(2)= -6.5289350  3.7694824  0.0000000  G(2)= -0.0765822  0.1326442  0.0000000
 R(3)=  0.0000000  0.0000000 12.2765676  G(3)=  0.0000000  0.0000000  0.0814560
 Unit cell volume ucvol=  6.0426999E+02 bohr^3
 Angles (23,13,12)=  9.00000000E+01  9.00000000E+01  1.20000000E+02 degrees

 getcut: wavevector=  0.0000  0.0000  0.0000  ngfft=  18  18  30
         ecut(hartree)=      6.000   => boxcut(ratio)=   2.16976

--- Pseudopotential description ------------------------------------------------
- pspini: atom type   1  psp file is /home/gonze/ABINIT/ABINITv7.9.3/trunk/7.9.3-private/tests/Psps_for_tests/13al.pspnc
- pspatm: opening atomic psp file    /home/gonze/ABINIT/ABINITv7.9.3/trunk/7.9.3-private/tests/Psps_for_tests/13al.pspnc
-  Troullier-Martins psp for element  Al        Thu Oct 27 17:31:05 EDT 1994
- 13.00000   3.00000    940714                znucl, zion, pspdat
    1    1    2    2      2001   0.00000      pspcod,pspxc,lmax,lloc,mmax,r2well
    0   4.657  11.889    1   2.2761078        l,e99.0,e99.9,nproj,rcpsp
   0.00000000   0.00000000   0.00000000   0.00000000     rms, ekb1, ekb2, epsatm
    1   1.829   2.761    1   2.2761078        l,e99.0,e99.9,nproj,rcpsp
   0.00000000   0.00000000   0.00000000   0.00000000     rms, ekb1, ekb2, epsatm
    2   0.000   0.000    0   2.2761078        l,e99.0,e99.9,nproj,rcpsp
   0.00000000   0.00000000   0.00000000   0.00000000     rms, ekb1, ekb2, epsatm
    2.09673076353074    0.12648111154518    1.01742091001718   rchrg,fchrg,qchrg
 pspatm: epsatm=    0.22155260
         --- l  ekb(1:nproj) -->
             0    2.540658
             1    1.353815
 pspatm: atomic psp has been read  and splines computed

- pspini: atom type   2  psp file is /home/gonze/ABINIT/ABINITv7.9.3/trunk/7.9.3-private/tests/Psps_for_tests/33as.pspnc
- pspatm: opening atomic psp file    /home/gonze/ABINIT/ABINITv7.9.3/trunk/7.9.3-private/tests/Psps_for_tests/33as.pspnc
-  Troullier-Martins psp for element  As        Thu Oct 27 17:37:14 EDT 1994
- 33.00000   5.00000    940714                znucl, zion, pspdat
    1    1    1    1      2001   0.00000      pspcod,pspxc,lmax,lloc,mmax,r2well
    0   4.772  10.829    1   2.5306160        l,e99.0,e99.9,nproj,rcpsp
   0.00000000   0.00000000   0.00000000   0.00000000     rms, ekb1, ekb2, epsatm
    1   2.745   5.580    0   2.5306160        l,e99.0,e99.9,nproj,rcpsp
   0.00000000   0.00000000   0.00000000   0.00000000     rms, ekb1, ekb2, epsatm
    2.05731715564010    0.36322996461007    2.76014815959125   rchrg,fchrg,qchrg
 pspatm: epsatm=   27.20579911
         --- l  ekb(1:nproj) -->
             0    0.838751
 pspatm: atomic psp has been read  and splines computed

   8.77675255E+02                                ecore*ucvol(ha*bohr**3)
--------------------------------------------------------------------------------

P newkpt: treating      8 bands with npw=     397 for ikpt=   1 by node    0
P newkpt: treating      8 bands with npw=     427 for ikpt=   2 by node    0
P newkpt: treating      8 bands with npw=     428 for ikpt=   3 by node    0
P newkpt: treating      8 bands with npw=     424 for ikpt=   4 by node    0
P newkpt: treating      8 bands with npw=     416 for ikpt=   5 by node    0
P newkpt: treating      8 bands with npw=     425 for ikpt=   6 by node    0
P newkpt: treating      8 bands with npw=     424 for ikpt=   7 by node    0
P newkpt: treating      8 bands with npw=     425 for ikpt=   8 by node    0

_setup2: Arith. and geom. avg. npw (full set) are     424.219     424.184

================================================================================

     iter   Etot(hartree)      deltaE(h)  residm     vres2    diffor    maxfor
 ETOT  1  -20.254720582061    -2.025E+01 4.636E-03 8.324E+00 1.023E-03 1.023E-03
 ETOT  2  -20.270119378557    -1.540E-02 1.123E-07 4.547E-01 1.203E-03 1.804E-04
 ETOT  3  -20.270562527527    -4.431E-04 1.816E-06 3.001E-01 8.100E-05 9.944E-05
 ETOT  4  -20.270919271378    -3.567E-04 7.477E-07 2.540E-02 1.035E-04 4.029E-06
 ETOT  5  -20.270941972288    -2.270E-05 1.154E-07 2.040E-03 1.836E-05 1.433E-05
 ETOT  6  -20.270943497598    -1.525E-06 7.257E-09 3.003E-04 1.565E-06 1.589E-05
 ETOT  7  -20.270943542323    -4.473E-08 1.297E-10 3.477E-04 3.359E-07 1.556E-05
 ETOT  8  -20.270943728425    -1.861E-07 3.914E-10 4.732E-05 1.604E-06 1.716E-05
 ETOT  9  -20.270943753805    -2.538E-08 1.074E-10 8.456E-08 1.066E-06 1.823E-05
 ETOT 10  -20.270943753853    -4.859E-11 6.029E-14 1.224E-08 6.753E-08 1.829E-05
 ETOT 11  -20.270943753865    -1.175E-11 6.315E-14 1.249E-09 3.601E-08 1.826E-05
 ETOT 12  -20.270943753866    -1.208E-12 4.594E-15 8.470E-11 1.830E-08 1.828E-05
 ETOT 13  -20.270943753866    -2.842E-14 2.511E-16 1.057E-11 3.028E-10 1.828E-05
 ETOT 14  -20.270943753866    -2.132E-14 3.240E-17 1.085E-12 2.485E-10 1.828E-05
 ETOT 15  -20.270943753866     3.553E-15 3.131E-18 1.415E-13 1.115E-10 1.828E-05
 ETOT 16  -20.270943753866     6.395E-14 4.466E-19 1.497E-14 1.819E-11 1.828E-05
 ETOT 17  -20.270943753866    -8.882E-14 4.231E-20 1.996E-15 1.482E-11 1.828E-05
 ETOT 18  -20.270943753866     4.974E-14 6.082E-21 2.121E-16 2.043E-12 1.828E-05
 ETOT 19  -20.270943753866     0.000E+00 5.659E-22 2.863E-17 1.847E-12 1.828E-05
 ETOT 20  -20.270943753866    -3.908E-14 8.214E-23 3.053E-18 2.687E-13 1.828E-05
 ETOT 21  -20.270943753866     1.030E-13 7.590E-24 4.143E-19 2.281E-13 1.828E-05

 At SCF step   21       vres2   =  4.14E-19 < tolvrs=  1.00E-18 =>converged.

 Cartesian components of stress tensor (hartree/bohr^3)
  sigma(1 1)= -7.20298104E-08  sigma(3 2)=  0.00000000E+00
  sigma(2 2)= -7.20298104E-08  sigma(3 1)=  0.00000000E+00
  sigma(3 3)= -6.19938084E-07  sigma(2 1)=  0.00000000E+00

================================================================================

 ----iterations are completed or convergence reached----

 Mean square residual over all n,k,spin=   2.2339E-24; max=  7.5903E-24
   0.0000  0.0000  0.1250    1  3.43947E-24 kpt; spin; max resid(k); each band:
  3.30E-24 1.69E-24 1.66E-24 4.81E-26 4.81E-26 3.44E-24 3.02E-25 3.04E-25
   0.2500  0.0000  0.1250    1  6.32807E-24 kpt; spin; max resid(k); each band:
  5.78E-24 1.98E-24 1.78E-24 1.40E-24 6.33E-24 2.40E-25 7.15E-25 1.05E-25
   0.5000  0.0000  0.1250    1  4.65350E-24 kpt; spin; max resid(k); each band:
  4.65E-24 6.20E-25 1.55E-24 4.60E-24 2.19E-24 1.30E-25 4.03E-25 6.45E-26
   0.2500  0.2500  0.1250    1  7.59026E-24 kpt; spin; max resid(k); each band:
  5.71E-24 7.95E-25 1.10E-24 7.59E-24 4.78E-24 4.85E-25 9.77E-25 4.36E-25
   0.0000  0.0000  0.3750    1  5.94990E-24 kpt; spin; max resid(k); each band:
  5.95E-24 4.64E-24 4.51E-24 5.74E-24 8.65E-26 8.65E-26 1.76E-25 1.75E-25
   0.2500  0.0000  0.3750    1  6.24901E-24 kpt; spin; max resid(k); each band:
  6.25E-24 4.93E-24 4.94E-24 5.78E-24 6.31E-25 3.07E-25 8.40E-25 4.76E-26
   0.5000  0.0000  0.3750    1  3.25097E-24 kpt; spin; max resid(k); each band:
  2.74E-24 1.92E-24 2.03E-24 3.25E-24 2.47E-24 1.65E-25 2.64E-25 8.94E-25
   0.2500  0.2500  0.3750    1  5.22450E-24 kpt; spin; max resid(k); each band:
  3.33E-24 1.94E-24 2.55E-24 5.22E-24 2.77E-24 1.96E-24 1.07E-24 1.03E-25
 reduced coordinates (array xred) for    4 atoms
       0.333333333333      0.666666666667      0.000000000000
       0.666666666667      0.333333333333      0.500000000000
       0.333333333333      0.666666666667      0.376085883730
       0.666666666667      0.333333333333      0.876085883730
 rms dE/dt=  1.2955E-04; max dE/dt=  2.2441E-04; dE/dt below (all hartree)
    1       0.000000000000      0.000000000000      0.000224408041
    2       0.000000000000      0.000000000000      0.000224408041
    3       0.000000000000      0.000000000000     -0.000224358435
    4       0.000000000000      0.000000000000     -0.000224358435

 cartesian coordinates (angstrom) at end:
    1     -1.15165454116847     1.99472417807121     0.00000000000000
    2      1.15165454116847     1.99472417807121     3.24823988535208
    3     -1.15165454116847     1.99472417807121     2.44323433569935
    4      1.15165454116847     1.99472417807121     5.69147422105143

 cartesian forces (hartree/bohr) at end:
    1     -0.00000000000000    -0.00000000000000    -0.00001827735938
    2     -0.00000000000000    -0.00000000000000    -0.00001827735938
    3     -0.00000000000000    -0.00000000000000     0.00001827735938
    4     -0.00000000000000    -0.00000000000000     0.00001827735938
 frms,max,avg= 1.0552438E-05 1.8277359E-05   0.000E+00  0.000E+00 -2.020E-09 h/b

 cartesian forces (eV/Angstrom) at end:
    1     -0.00000000000000    -0.00000000000000    -0.00093985952881
    2     -0.00000000000000    -0.00000000000000    -0.00093985952881
    3     -0.00000000000000    -0.00000000000000     0.00093985952881
    4     -0.00000000000000    -0.00000000000000     0.00093985952881
 frms,max,avg= 5.4262815E-04 9.3985953E-04   0.000E+00  0.000E+00 -1.039E-07 e/A
 length scales=  7.538964814400  7.538964814400 12.277795374000 bohr
              =  3.989448356142  3.989448356142  6.497129483653 angstroms
 prteigrs : about to open file telast_4o_DS1_EIG
 Fermi (or HOMO) energy (hartree) =   0.08618   Average Vxc (hartree)=  -0.34270
 Eigenvalues (hartree) for nkpt=   8  k points:
 kpt#   1, nband=  8, wtk=  0.03125, kpt=  0.0000  0.0000  0.1250 (reduced coord)
  -0.35500  -0.30560  -0.11713   0.05114   0.05114   0.06673   0.08618   0.08618
 kpt#   2, nband=  8, wtk=  0.18750, kpt=  0.2500  0.0000  0.1250 (reduced coord)
  -0.33586  -0.29255  -0.10545  -0.03923  -0.02010   0.02275   0.05955   0.06707
 kpt#   3, nband=  8, wtk=  0.09375, kpt=  0.5000  0.0000  0.1250 (reduced coord)
  -0.30399  -0.28358  -0.11998  -0.09155  -0.03885   0.00386   0.01548   0.05103
 kpt#   4, nband=  8, wtk=  0.18750, kpt=  0.2500  0.2500  0.1250 (reduced coord)
  -0.30597  -0.28218  -0.10696  -0.07991  -0.04119  -0.03241   0.00999   0.02545
 kpt#   5, nband=  8, wtk=  0.03125, kpt=  0.0000  0.0000  0.3750 (reduced coord)
  -0.34369  -0.32402  -0.07355  -0.00612   0.05994   0.05994   0.07424   0.07424
 kpt#   6, nband=  8, wtk=  0.18750, kpt=  0.2500  0.0000  0.3750 (reduced coord)
  -0.32558  -0.30818  -0.08219  -0.05100  -0.00949   0.03312   0.03649   0.05088
 kpt#   7, nband=  8, wtk=  0.09375, kpt=  0.5000  0.0000  0.3750 (reduced coord)
  -0.29788  -0.28932  -0.12393  -0.11246   0.00172   0.01475   0.03357   0.03503
 kpt#   8, nband=  8, wtk=  0.18750, kpt=  0.2500  0.2500  0.3750 (reduced coord)
  -0.29923  -0.28932  -0.11043  -0.09874  -0.03197  -0.01161   0.01062   0.04349
 Total charge density [el/Bohr^3]
,     Maximum=    9.5490E-02  at reduced coord.    0.8889    0.4444    0.9000
,Next maximum=    9.5490E-02  at reduced coord.    0.5556    0.4444    0.9000
,     Minimum=    1.9880E-03  at reduced coord.    0.0000    0.0000    0.1667
,Next minimum=    1.9880E-03  at reduced coord.    0.0000    0.0000    0.6667
,  Integrated=    1.6000E+01

--------------------------------------------------------------------------------
 Components of total free energy (in Hartree) :

    Kinetic energy  =  5.91968852104583E+00
    Hartree energy  =  1.65273631669016E+00
    XC energy       = -8.68526752216451E+00
    Ewald energy    = -1.68703089910137E+01
    PspCore energy  =  1.45245548202912E+00
    Loc. psp. energy= -4.92365808723336E+00
    NL   psp  energy=  1.18341052678013E+00
    >>>>>>>>> Etotal= -2.02709437538664E+01

 Other information on the energy :
    Total energy(eV)= -5.51600431690927E+02 ; Band energy (Ha)=  -1.4271558574E+00
--------------------------------------------------------------------------------

 Cartesian components of stress tensor (hartree/bohr^3)
  sigma(1 1)= -7.20298104E-08  sigma(3 2)=  0.00000000E+00
  sigma(2 2)= -7.20298104E-08  sigma(3 1)=  0.00000000E+00
  sigma(3 3)= -6.19938084E-07  sigma(2 1)=  0.00000000E+00

-Cartesian components of stress tensor (GPa)         [Pressure=  7.4925E-03 GPa]
- sigma(1 1)= -2.11918983E-03  sigma(3 2)=  0.00000000E+00
- sigma(2 2)= -2.11918983E-03  sigma(3 1)=  0.00000000E+00
- sigma(3 3)= -1.82392051E-02  sigma(2 1)=  0.00000000E+00

================================================================================
== DATASET  2 ==================================================================
-   nproc =    1

 mkfilename : getwfk/=0, take file _WFK from output of DATASET   1.

 Exchange-correlation functional for the present dataset will be:
  LDA: new Teter (4/93) with spin-polarized option - ixc=1
 Citation for XC functional:
  S. Goedecker, M. Teter, J. Huetter, PRB 54, 1703 (1996)

 Real(R)+Recip(G) space primitive vectors, cartesian coordinates (Bohr,Bohr^-1):
 R(1)=  6.5289350  3.7694824  0.0000000  G(1)=  0.0765822  0.1326442  0.0000000
 R(2)= -6.5289350  3.7694824  0.0000000  G(2)= -0.0765822  0.1326442  0.0000000
 R(3)=  0.0000000  0.0000000 12.2765676  G(3)=  0.0000000  0.0000000  0.0814560
 Unit cell volume ucvol=  6.0426999E+02 bohr^3
 Angles (23,13,12)=  9.00000000E+01  9.00000000E+01  1.20000000E+02 degrees

 getcut: wavevector=  0.0000  0.0000  0.0000  ngfft=  18  18  30
         ecut(hartree)=      6.000   => boxcut(ratio)=   2.16976
--------------------------------------------------------------------------------

-inwffil : will read wavefunctions from disk file telast_4o_DS1_WFK
- newkpt: read input wf with ikpt,npw=   1     397, make ikpt,npw=   1     397
- newkpt: read input wf with ikpt,npw=   2     427, make ikpt,npw=   2     427
- newkpt: read input wf with ikpt,npw=   3     428, make ikpt,npw=   3     428
- newkpt: read input wf with ikpt,npw=   2     427, make ikpt,npw=   4     427
- newkpt: read input wf with ikpt,npw=   2     427, make ikpt,npw=   5     427
- newkpt: read input wf with ikpt,npw=   4     424, make ikpt,npw=   6     424
- newkpt: read input wf with ikpt,npw=   4     424, make ikpt,npw=   7     424
- newkpt: read input wf with ikpt,npw=   2     427, make ikpt,npw=   8     427
- newkpt: read input wf with ikpt,npw=   3     428, make ikpt,npw=   9     428
- newkpt: read input wf with ikpt,npw=   4     424, make ikpt,npw=  10     424
- newkpt: read input wf with ikpt,npw=   3     428, make ikpt,npw=  11     428
- newkpt: read input wf with ikpt,npw=   4     424, make ikpt,npw=  12     424
- newkpt: read input wf with ikpt,npw=   2     427, make ikpt,npw=  13     427
- newkpt: read input wf with ikpt,npw=   2     427, make ikpt,npw=  14     427
- newkpt: read input wf with ikpt,npw=   4     424, make ikpt,npw=  15     424
- newkpt: read input wf with ikpt,npw=   4     424, make ikpt,npw=  16     424
- newkpt: read input wf with ikpt,npw=   5     416, make ikpt,npw=  17     416
- newkpt: read input wf with ikpt,npw=   6     425, make ikpt,npw=  18     425
- newkpt: read input wf with ikpt,npw=   7     424, make ikpt,npw=  19     424
- newkpt: read input wf with ikpt,npw=   6     425, make ikpt,npw=  20     425
- newkpt: read input wf with ikpt,npw=   6     425, make ikpt,npw=  21     425
- newkpt: read input wf with ikpt,npw=   8     425, make ikpt,npw=  22     425
- newkpt: read input wf with ikpt,npw=   8     425, make ikpt,npw=  23     425
- newkpt: read input wf with ikpt,npw=   6     425, make ikpt,npw=  24     425
- newkpt: read input wf with ikpt,npw=   7     424, make ikpt,npw=  25     424
- newkpt: read input wf with ikpt,npw=   8     425, make ikpt,npw=  26     425
- newkpt: read input wf with ikpt,npw=   7     424, make ikpt,npw=  27     424
- newkpt: read input wf with ikpt,npw=   8     425, make ikpt,npw=  28     425
- newkpt: read input wf with ikpt,npw=   6     425, make ikpt,npw=  29     425
- newkpt: read input wf with ikpt,npw=   6     425, make ikpt,npw=  30     425
- newkpt: read input wf with ikpt,npw=   8     425, make ikpt,npw=  31     425
- newkpt: read input wf with ikpt,npw=   8     425, make ikpt,npw=  32     425
- newkpt: read input wf with ikpt,npw=   5     416, make ikpt,npw=  33     416
- newkpt: read input wf with ikpt,npw=   6     425, make ikpt,npw=  34     425
- newkpt: read input wf with ikpt,npw=   7     424, make ikpt,npw=  35     424
- newkpt: read input wf with ikpt,npw=   6     425, make ikpt,npw=  36     425
- newkpt: read input wf with ikpt,npw=   6     425, make ikpt,npw=  37     425
- newkpt: read input wf with ikpt,npw=   8     425, make ikpt,npw=  38     425
- newkpt: read input wf with ikpt,npw=   8     425, make ikpt,npw=  39     425
- newkpt: read input wf with ikpt,npw=   6     425, make ikpt,npw=  40     425
- newkpt: read input wf with ikpt,npw=   7     424, make ikpt,npw=  41     424
- newkpt: read input wf with ikpt,npw=   8     425, make ikpt,npw=  42     425
- newkpt: read input wf with ikpt,npw=   7     424, make ikpt,npw=  43     424
- newkpt: read input wf with ikpt,npw=   8     425, make ikpt,npw=  44     425
- newkpt: read input wf with ikpt,npw=   6     425, make ikpt,npw=  45     425
- newkpt: read input wf with ikpt,npw=   6     425, make ikpt,npw=  46     425
- newkpt: read input wf with ikpt,npw=   8     425, make ikpt,npw=  47     425
- newkpt: read input wf with ikpt,npw=   8     425, make ikpt,npw=  48     425
- newkpt: read input wf with ikpt,npw=   1     397, make ikpt,npw=  49     397
- newkpt: read input wf with ikpt,npw=   2     427, make ikpt,npw=  50     427
- newkpt : prtvol=0 or 1, do not print more k-points.

_setup2: Arith. and geom. avg. npw (full set) are     424.219     424.184
  initberry: for direction 1, nkstr =   4, nstr =     16
  initberry: for direction 2, nkstr =   4, nstr =     16
  initberry: for direction 3, nkstr =   4, nstr =     16

================================================================================

     iter   Etot(hartree)      deltaE(h)  residm     vres2    diffor    maxfor
 ETOT  1  -20.270943753865    -2.027E+01 1.649E-26 8.541E-20 1.828E-05 1.828E-05

 At SCF step    1       vres2   =  8.54E-20 < tolvrs=  1.00E-18 =>converged.

 Computing the polarization (Berry phase) for reciprocal vector:
  0.25000  0.00000  0.00000 (in reduced coordinates)
  0.01915  0.03316  0.00000 (in cartesian coordinates - atomic units)
 Number of strings:    16
 Number of k points in string:    4

 Summary of the results
 Electronic Berry phase    -2.552824178E-11
            Ionic phase    -8.881784197E-16
            Total phase    -2.552912996E-11
    Remapping in [-1,1]    -2.552912996E-11

           Polarization    -2.758337085E-13 (a.u. of charge)/bohr^2
           Polarization    -1.578175984E-11 C/m^2


 Computing the polarization (Berry phase) for reciprocal vector:
  0.00000  0.25000  0.00000 (in reduced coordinates)
 -0.01915  0.03316  0.00000 (in cartesian coordinates - atomic units)
 Number of strings:    16
 Number of k points in string:    4

 Summary of the results
 Electronic Berry phase     2.553042611E-11
            Ionic phase    -1.332267630E-15
            Total phase     2.552909384E-11
    Remapping in [-1,1]     2.552909384E-11

           Polarization     2.758333182E-13 (a.u. of charge)/bohr^2
           Polarization     1.578173751E-11 C/m^2


 Computing the polarization (Berry phase) for reciprocal vector:
  0.00000  0.00000  0.25000 (in reduced coordinates)
  0.00000  0.00000  0.02036 (in cartesian coordinates - atomic units)
 Number of strings:    16
 Number of k points in string:    4

 Summary of the results
 Electronic Berry phase    -1.722040493E-02
            Ionic phase    -2.391411627E-01
            Total phase    -2.563615676E-01
    Remapping in [-1,1]    -2.563615676E-01

           Polarization    -5.208334326E-03 (a.u. of charge)/bohr^2
           Polarization    -2.979936062E-01 C/m^2


 Polarization in cartesian coordinates (a.u.):
 (the sum of the electronic and ionic Berry phase has been folded into [-1, 1])
     Electronic berry phase:       -0.551671825E-12   0.136260098E-16  -0.349855975E-03
     Ionic:                         0.479823534E-17  -0.138513123E-16  -0.485847835E-02  
     Total:                        -0.551667027E-12  -0.225302533E-18  -0.520833433E-02

 Polarization in cartesian coordinates (C/m^2):
 (the sum of the electronic and ionic Berry phase has been folded into [-1, 1])
     Electronic berry phase:       -0.315637719E-10   0.779608901E-15  -0.200169261E-01
     Ionic:                         0.274529891E-15  -0.792499531E-15  -0.277976680E+00  
     Total:                        -0.315634973E-10  -0.128906307E-16  -0.297993606E+00

 Cartesian components of stress tensor (hartree/bohr^3)
  sigma(1 1)= -7.20297130E-08  sigma(3 2)=  0.00000000E+00
  sigma(2 2)= -7.20297130E-08  sigma(3 1)=  0.00000000E+00
  sigma(3 3)= -6.19938047E-07  sigma(2 1)=  0.00000000E+00

================================================================================

 ----iterations are completed or convergence reached----

 Mean square residual over all n,k,spin=   5.4382E-28; max=  1.6486E-26
   0.0000  0.0000  0.1250    1  4.83019E-28 kpt; spin; max resid(k); each band:
  9.29E-30 3.67E-30 2.21E-30 1.91E-30 1.88E-30 4.83E-28 2.79E-28 2.96E-28
   0.2500  0.0000  0.1250    1  3.41823E-28 kpt; spin; max resid(k); each band:
  2.80E-29 7.18E-30 3.37E-30 2.14E-30 3.55E-30 3.15E-30 3.42E-28 1.07E-30
   0.5000  0.0000  0.1250    1  1.55225E-29 kpt; spin; max resid(k); each band:
  1.55E-29 1.32E-30 1.36E-30 3.48E-30 3.16E-30 1.32E-29 9.93E-30 5.84E-31
  -0.2500  0.0000  0.1250    1  1.64841E-26 kpt; spin; max resid(k); each band:
  7.47E-28 7.84E-28 7.63E-29 1.47E-28 1.60E-28 4.91E-28 2.06E-27 1.65E-26
   0.0000  0.2500  0.1250    1  2.11344E-27 kpt; spin; max resid(k); each band:
  1.92E-27 2.01E-27 5.31E-29 1.41E-28 4.97E-28 9.46E-29 2.11E-27 1.83E-27
   0.2500  0.2500  0.1250    1  5.19896E-29 kpt; spin; max resid(k); each band:
  9.80E-30 5.20E-29 2.76E-30 9.79E-31 2.06E-30 9.83E-31 3.17E-30 3.29E-30
   0.5000  0.2500  0.1250    1  1.11123E-26 kpt; spin; max resid(k); each band:
  4.83E-27 2.38E-27 1.11E-26 2.66E-27 3.78E-28 3.19E-29 6.35E-29 3.74E-28
  -0.2500  0.2500  0.1250    1  9.81275E-28 kpt; spin; max resid(k); each band:
  1.42E-28 8.28E-29 1.25E-29 2.86E-29 2.51E-29 9.71E-29 9.81E-28 3.27E-28
   0.0000  0.5000  0.1250    1  4.47333E-28 kpt; spin; max resid(k); each band:
  2.93E-28 1.29E-28 6.29E-29 3.60E-29 4.19E-29 2.10E-29 2.89E-28 4.47E-28
   0.2500  0.5000  0.1250    1  1.15725E-26 kpt; spin; max resid(k); each band:
  1.16E-26 7.07E-27 1.65E-28 3.66E-29 4.22E-28 2.34E-29 7.82E-29 4.91E-28
   0.5000  0.5000  0.1250    1  1.63252E-27 kpt; spin; max resid(k); each band:
  1.84E-28 5.70E-29 6.54E-29 4.33E-29 4.91E-29 1.85E-28 2.35E-28 1.63E-27
  -0.2500  0.5000  0.1250    1  1.59220E-28 kpt; spin; max resid(k); each band:
  1.59E-28 8.89E-29 1.49E-29 3.84E-30 1.15E-29 9.99E-30 1.32E-29 2.41E-29
   0.0000 -0.2500  0.1250    1  1.79190E-27 kpt; spin; max resid(k); each band:
  1.34E-27 8.10E-28 3.93E-29 2.10E-29 8.51E-29 9.05E-29 1.18E-27 1.79E-27
   0.2500 -0.2500  0.1250    1  9.59554E-27 kpt; spin; max resid(k); each band:
  4.95E-28 3.93E-28 5.78E-29 3.54E-29 1.32E-28 3.57E-28 7.87E-27 9.60E-27
   0.5000 -0.2500  0.1250    1  5.37749E-27 kpt; spin; max resid(k); each band:
  5.38E-27 2.21E-27 9.61E-29 2.72E-27 3.43E-28 2.94E-29 6.28E-29 4.18E-28
  -0.2500 -0.2500  0.1250    1  2.40357E-28 kpt; spin; max resid(k); each band:
  2.40E-28 8.42E-29 2.93E-29 1.24E-29 1.08E-29 2.38E-29 1.62E-29 2.72E-29
   0.0000  0.0000  0.3750    1  6.68607E-30 kpt; spin; max resid(k); each band:
  6.69E-30 4.41E-30 2.54E-30 6.61E-30 4.15E-31 4.30E-31 3.98E-30 4.05E-30
   0.2500  0.0000  0.3750    1  4.41849E-29 kpt; spin; max resid(k); each band:
  1.53E-29 1.32E-29 2.55E-30 2.46E-30 3.99E-30 3.34E-30 4.42E-29 2.37E-31
   0.5000  0.0000  0.3750    1  6.83145E-29 kpt; spin; max resid(k); each band:
  7.55E-30 2.68E-30 2.61E-30 3.81E-30 4.81E-30 1.94E-29 3.76E-30 6.83E-29
  -0.2500  0.0000  0.3750    1  1.43446E-27 kpt; spin; max resid(k); each band:
  3.23E-28 3.34E-28 5.05E-29 5.18E-29 1.10E-28 6.57E-28 5.91E-28 1.43E-27
   0.0000  0.2500  0.3750    1  8.99320E-28 kpt; spin; max resid(k); each band:
  8.99E-28 8.25E-28 2.15E-29 4.46E-29 1.31E-28 1.99E-28 5.94E-28 3.83E-28
   0.2500  0.2500  0.3750    1  2.17757E-29 kpt; spin; max resid(k); each band:
  3.76E-30 4.36E-30 2.68E-30 1.75E-30 3.69E-30 4.11E-30 3.20E-30 2.18E-29
   0.5000  0.2500  0.3750    1  5.66250E-28 kpt; spin; max resid(k); each band:
  3.20E-28 1.62E-28 4.75E-29 3.55E-29 6.11E-29 5.95E-29 8.97E-29 5.66E-28
  -0.2500  0.2500  0.3750    1  2.60114E-28 kpt; spin; max resid(k); each band:
  8.32E-29 1.12E-28 9.71E-30 1.38E-29 2.95E-29 1.63E-28 2.60E-28 1.75E-28
   0.0000  0.5000  0.3750    1  9.46729E-28 kpt; spin; max resid(k); each band:
  6.65E-28 7.45E-28 7.86E-29 5.61E-29 1.27E-28 7.16E-29 3.81E-28 9.47E-28
   0.2500  0.5000  0.3750    1  7.85851E-28 kpt; spin; max resid(k); each band:
  7.86E-28 2.50E-28 1.42E-29 1.06E-29 2.76E-29 2.93E-29 3.45E-29 1.49E-28
   0.5000  0.5000  0.3750    1  1.72042E-27 kpt; spin; max resid(k); each band:
  2.11E-28 1.95E-28 9.13E-29 7.16E-29 1.46E-28 2.68E-28 1.72E-27 1.07E-27
  -0.2500  0.5000  0.3750    1  7.36970E-29 kpt; spin; max resid(k); each band:
  6.31E-29 6.60E-29 1.34E-29 6.42E-30 1.78E-29 1.78E-29 2.23E-29 7.37E-29
   0.0000 -0.2500  0.3750    1  5.98873E-28 kpt; spin; max resid(k); each band:
  5.99E-28 4.34E-28 9.93E-30 6.07E-30 4.93E-29 1.74E-28 2.37E-28 3.55E-28
   0.2500 -0.2500  0.3750    1  1.40831E-27 kpt; spin; max resid(k); each band:
  2.81E-28 1.98E-28 4.26E-29 5.28E-29 1.28E-28 5.57E-28 6.15E-28 1.41E-27
   0.5000 -0.2500  0.3750    1  6.35563E-28 kpt; spin; max resid(k); each band:
  3.92E-28 1.20E-28 5.64E-29 4.95E-29 5.33E-29 5.53E-29 9.65E-29 6.36E-28
  -0.2500 -0.2500  0.3750    1  1.20242E-28 kpt; spin; max resid(k); each band:
  1.20E-28 9.14E-29 2.75E-29 1.86E-29 1.75E-29 2.23E-29 4.47E-29 8.51E-29
   0.0000  0.0000 -0.3750    1  6.87882E-30 kpt; spin; max resid(k); each band:
  6.88E-30 5.52E-30 2.66E-30 6.59E-30 4.10E-31 4.11E-31 4.02E-30 3.97E-30
   0.2500  0.0000 -0.3750    1  1.43465E-27 kpt; spin; max resid(k); each band:
  3.21E-28 3.29E-28 5.04E-29 5.18E-29 1.10E-28 6.57E-28 5.91E-28 1.43E-27
   0.5000  0.0000 -0.3750    1  6.82956E-29 kpt; spin; max resid(k); each band:
  7.27E-30 3.14E-30 2.88E-30 3.74E-30 4.77E-30 1.94E-29 3.75E-30 6.83E-29
  -0.2500  0.0000 -0.3750    1  4.43110E-29 kpt; spin; max resid(k); each band:
  1.68E-29 1.40E-29 2.50E-30 2.34E-30 4.00E-30 3.35E-30 4.43E-29 2.28E-31
   0.0000  0.2500 -0.3750    1  6.00248E-28 kpt; spin; max resid(k); each band:
  6.00E-28 4.38E-28 9.91E-30 6.04E-30 4.94E-29 1.74E-28 2.39E-28 3.55E-28
   0.2500  0.2500 -0.3750    1  1.20145E-28 kpt; spin; max resid(k); each band:
  1.20E-28 9.31E-29 2.76E-29 1.84E-29 1.75E-29 2.22E-29 4.47E-29 8.50E-29
   0.5000  0.2500 -0.3750    1  6.35452E-28 kpt; spin; max resid(k); each band:
  3.89E-28 1.20E-28 5.65E-29 4.98E-29 5.33E-29 5.53E-29 9.64E-29 6.35E-28
  -0.2500  0.2500 -0.3750    1  1.40827E-27 kpt; spin; max resid(k); each band:
  2.81E-28 1.95E-28 4.27E-29 5.29E-29 1.27E-28 5.57E-28 6.14E-28 1.41E-27
   0.0000  0.5000 -0.3750    1  9.47138E-28 kpt; spin; max resid(k); each band:
  6.67E-28 7.47E-28 7.88E-29 5.59E-29 1.27E-28 7.16E-29 3.82E-28 9.47E-28
   0.2500  0.5000 -0.3750    1  7.36705E-29 kpt; spin; max resid(k); each band:
  6.32E-29 6.68E-29 1.35E-29 6.44E-30 1.79E-29 1.78E-29 2.24E-29 7.37E-29
   0.5000  0.5000 -0.3750    1  1.72061E-27 kpt; spin; max resid(k); each band:
  2.19E-28 1.94E-28 9.14E-29 7.16E-29 1.46E-28 2.68E-28 1.72E-27 1.07E-27
  -0.2500  0.5000 -0.3750    1  7.83196E-28 kpt; spin; max resid(k); each band:
  7.83E-28 2.51E-28 1.42E-29 1.06E-29 2.76E-29 2.93E-29 3.46E-29 1.49E-28
   0.0000 -0.2500 -0.3750    1  8.96394E-28 kpt; spin; max resid(k); each band:
  8.96E-28 8.26E-28 2.16E-29 4.47E-29 1.31E-28 1.99E-28 5.92E-28 3.83E-28
   0.2500 -0.2500 -0.3750    1  2.59768E-28 kpt; spin; max resid(k); each band:
  8.38E-29 1.13E-28 9.74E-30 1.38E-29 2.95E-29 1.63E-28 2.60E-28 1.75E-28
   0.5000 -0.2500 -0.3750    1  5.66233E-28 kpt; spin; max resid(k); each band:
  3.20E-28 1.64E-28 4.76E-29 3.55E-29 6.12E-29 5.94E-29 8.97E-29 5.66E-28
  -0.2500 -0.2500 -0.3750    1  2.17233E-29 kpt; spin; max resid(k); each band:
  4.21E-30 5.25E-30 2.75E-30 1.60E-30 3.65E-30 4.09E-30 3.27E-30 2.17E-29
   0.0000  0.0000 -0.1250    1  4.83082E-28 kpt; spin; max resid(k); each band:
  9.55E-30 4.69E-30 2.07E-30 1.93E-30 1.91E-30 4.83E-28 2.79E-28 2.97E-28
   0.2500  0.0000 -0.1250    1  1.64861E-26 kpt; spin; max resid(k); each band:
  7.48E-28 7.81E-28 7.61E-29 1.47E-28 1.60E-28 4.91E-28 2.06E-27 1.65E-26
 outwf : prtvol=0 or 1, do not print more k-points.

 reduced coordinates (array xred) for    4 atoms
       0.333333333333      0.666666666667      0.000000000000
       0.666666666667      0.333333333333      0.500000000000
       0.333333333333      0.666666666667      0.376085883730
       0.666666666667      0.333333333333      0.876085883730
 rms dE/dt=  1.2955E-04; max dE/dt=  2.2441E-04; dE/dt below (all hartree)
    1       0.000000000000      0.000000000000      0.000224408041
    2       0.000000000000      0.000000000000      0.000224408041
    3       0.000000000000      0.000000000000     -0.000224358434
    4       0.000000000000      0.000000000000     -0.000224358434

 cartesian coordinates (angstrom) at end:
    1     -1.15165454116847     1.99472417807121     0.00000000000000
    2      1.15165454116847     1.99472417807121     3.24823988535208
    3     -1.15165454116847     1.99472417807121     2.44323433569935
    4      1.15165454116847     1.99472417807121     5.69147422105143

 cartesian forces (hartree/bohr) at end:
    1     -0.00000000000000    -0.00000000000000    -0.00001827735933
    2     -0.00000000000000    -0.00000000000000    -0.00001827735933
    3     -0.00000000000000    -0.00000000000000     0.00001827735933
    4     -0.00000000000000    -0.00000000000000     0.00001827735933
 frms,max,avg= 1.0552438E-05 1.8277359E-05   0.000E+00  0.000E+00 -2.020E-09 h/b

 cartesian forces (eV/Angstrom) at end:
    1     -0.00000000000000    -0.00000000000000    -0.00093985952654
    2     -0.00000000000000    -0.00000000000000    -0.00093985952654
    3     -0.00000000000000    -0.00000000000000     0.00093985952654
    4     -0.00000000000000    -0.00000000000000     0.00093985952654
 frms,max,avg= 5.4262815E-04 9.3985953E-04   0.000E+00  0.000E+00 -1.039E-07 e/A
 length scales=  7.538964814400  7.538964814400 12.277795374000 bohr
              =  3.989448356142  3.989448356142  6.497129483653 angstroms
 prteigrs : about to open file telast_4o_DS2_EIG
 Fermi (or HOMO) energy (hartree) =   0.08618   Average Vxc (hartree)=  -0.34270
 Eigenvalues (hartree) for nkpt=  64  k points:
 kpt#   1, nband=  8, wtk=  0.01563, kpt=  0.0000  0.0000  0.1250 (reduced coord)
  -0.35500  -0.30560  -0.11713   0.05114   0.05114   0.06673   0.08618   0.08618
 kpt#   2, nband=  8, wtk=  0.01563, kpt=  0.2500  0.0000  0.1250 (reduced coord)
  -0.33586  -0.29255  -0.10545  -0.03923  -0.02010   0.02275   0.05955   0.06707
 kpt#   3, nband=  8, wtk=  0.01563, kpt=  0.5000  0.0000  0.1250 (reduced coord)
  -0.30399  -0.28358  -0.11998  -0.09155  -0.03885   0.00386   0.01548   0.05103
 kpt#   4, nband=  8, wtk=  0.01563, kpt= -0.2500  0.0000  0.1250 (reduced coord)
  -0.33586  -0.29255  -0.10545  -0.03923  -0.02010   0.02275   0.05955   0.06707
 kpt#   5, nband=  8, wtk=  0.01563, kpt=  0.0000  0.2500  0.1250 (reduced coord)
  -0.33586  -0.29255  -0.10545  -0.03923  -0.02010   0.02275   0.05955   0.06707
 kpt#   6, nband=  8, wtk=  0.01563, kpt=  0.2500  0.2500  0.1250 (reduced coord)
  -0.30597  -0.28218  -0.10696  -0.07991  -0.04119  -0.03241   0.00999   0.02545
 kpt#   7, nband=  8, wtk=  0.01563, kpt=  0.5000  0.2500  0.1250 (reduced coord)
  -0.30597  -0.28218  -0.10696  -0.07991  -0.04119  -0.03241   0.00999   0.02545
 kpt#   8, nband=  8, wtk=  0.01563, kpt= -0.2500  0.2500  0.1250 (reduced coord)
  -0.33586  -0.29255  -0.10545  -0.03923  -0.02010   0.02275   0.05955   0.06707
 kpt#   9, nband=  8, wtk=  0.01563, kpt=  0.0000  0.5000  0.1250 (reduced coord)
  -0.30399  -0.28358  -0.11998  -0.09155  -0.03885   0.00386   0.01548   0.05103
 kpt#  10, nband=  8, wtk=  0.01563, kpt=  0.2500  0.5000  0.1250 (reduced coord)
  -0.30597  -0.28218  -0.10696  -0.07991  -0.04119  -0.03241   0.00999   0.02545
 kpt#  11, nband=  8, wtk=  0.01563, kpt=  0.5000  0.5000  0.1250 (reduced coord)
  -0.30399  -0.28358  -0.11998  -0.09155  -0.03885   0.00386   0.01548   0.05103
 kpt#  12, nband=  8, wtk=  0.01563, kpt= -0.2500  0.5000  0.1250 (reduced coord)
  -0.30597  -0.28218  -0.10696  -0.07991  -0.04119  -0.03241   0.00999   0.02545
 kpt#  13, nband=  8, wtk=  0.01563, kpt=  0.0000 -0.2500  0.1250 (reduced coord)
  -0.33586  -0.29255  -0.10545  -0.03923  -0.02010   0.02275   0.05955   0.06707
 kpt#  14, nband=  8, wtk=  0.01563, kpt=  0.2500 -0.2500  0.1250 (reduced coord)
  -0.33586  -0.29255  -0.10545  -0.03923  -0.02010   0.02275   0.05955   0.06707
 kpt#  15, nband=  8, wtk=  0.01563, kpt=  0.5000 -0.2500  0.1250 (reduced coord)
  -0.30597  -0.28218  -0.10696  -0.07991  -0.04119  -0.03241   0.00999   0.02545
 kpt#  16, nband=  8, wtk=  0.01563, kpt= -0.2500 -0.2500  0.1250 (reduced coord)
  -0.30597  -0.28218  -0.10696  -0.07991  -0.04119  -0.03241   0.00999   0.02545
 kpt#  17, nband=  8, wtk=  0.01563, kpt=  0.0000  0.0000  0.3750 (reduced coord)
  -0.34369  -0.32402  -0.07355  -0.00612   0.05994   0.05994   0.07424   0.07424
 kpt#  18, nband=  8, wtk=  0.01563, kpt=  0.2500  0.0000  0.3750 (reduced coord)
  -0.32558  -0.30818  -0.08219  -0.05100  -0.00949   0.03312   0.03649   0.05088
 kpt#  19, nband=  8, wtk=  0.01563, kpt=  0.5000  0.0000  0.3750 (reduced coord)
  -0.29788  -0.28932  -0.12393  -0.11246   0.00172   0.01475   0.03357   0.03503
 kpt#  20, nband=  8, wtk=  0.01563, kpt= -0.2500  0.0000  0.3750 (reduced coord)
  -0.32558  -0.30818  -0.08219  -0.05100  -0.00949   0.03312   0.03649   0.05088
 kpt#  21, nband=  8, wtk=  0.01563, kpt=  0.0000  0.2500  0.3750 (reduced coord)
  -0.32558  -0.30818  -0.08219  -0.05100  -0.00949   0.03312   0.03649   0.05088
 kpt#  22, nband=  8, wtk=  0.01563, kpt=  0.2500  0.2500  0.3750 (reduced coord)
  -0.29923  -0.28932  -0.11043  -0.09874  -0.03197  -0.01161   0.01062   0.04349
 kpt#  23, nband=  8, wtk=  0.01563, kpt=  0.5000  0.2500  0.3750 (reduced coord)
  -0.29923  -0.28932  -0.11043  -0.09874  -0.03197  -0.01161   0.01062   0.04349
 kpt#  24, nband=  8, wtk=  0.01563, kpt= -0.2500  0.2500  0.3750 (reduced coord)
  -0.32558  -0.30818  -0.08219  -0.05100  -0.00949   0.03312   0.03649   0.05088
 kpt#  25, nband=  8, wtk=  0.01563, kpt=  0.0000  0.5000  0.3750 (reduced coord)
  -0.29788  -0.28932  -0.12393  -0.11246   0.00172   0.01475   0.03357   0.03503
 kpt#  26, nband=  8, wtk=  0.01563, kpt=  0.2500  0.5000  0.3750 (reduced coord)
  -0.29923  -0.28932  -0.11043  -0.09874  -0.03197  -0.01161   0.01062   0.04349
 kpt#  27, nband=  8, wtk=  0.01563, kpt=  0.5000  0.5000  0.3750 (reduced coord)
  -0.29788  -0.28932  -0.12393  -0.11246   0.00172   0.01475   0.03357   0.03503
 kpt#  28, nband=  8, wtk=  0.01563, kpt= -0.2500  0.5000  0.3750 (reduced coord)
  -0.29923  -0.28932  -0.11043  -0.09874  -0.03197  -0.01161   0.01062   0.04349
 kpt#  29, nband=  8, wtk=  0.01563, kpt=  0.0000 -0.2500  0.3750 (reduced coord)
  -0.32558  -0.30818  -0.08219  -0.05100  -0.00949   0.03312   0.03649   0.05088
 kpt#  30, nband=  8, wtk=  0.01563, kpt=  0.2500 -0.2500  0.3750 (reduced coord)
  -0.32558  -0.30818  -0.08219  -0.05100  -0.00949   0.03312   0.03649   0.05088
 kpt#  31, nband=  8, wtk=  0.01563, kpt=  0.5000 -0.2500  0.3750 (reduced coord)
  -0.29923  -0.28932  -0.11043  -0.09874  -0.03197  -0.01161   0.01062   0.04349
 kpt#  32, nband=  8, wtk=  0.01563, kpt= -0.2500 -0.2500  0.3750 (reduced coord)
  -0.29923  -0.28932  -0.11043  -0.09874  -0.03197  -0.01161   0.01062   0.04349
 kpt#  33, nband=  8, wtk=  0.01563, kpt=  0.0000  0.0000 -0.3750 (reduced coord)
  -0.34369  -0.32402  -0.07355  -0.00612   0.05994   0.05994   0.07424   0.07424
 kpt#  34, nband=  8, wtk=  0.01563, kpt=  0.2500  0.0000 -0.3750 (reduced coord)
  -0.32558  -0.30818  -0.08219  -0.05100  -0.00949   0.03312   0.03649   0.05088
 kpt#  35, nband=  8, wtk=  0.01563, kpt=  0.5000  0.0000 -0.3750 (reduced coord)
  -0.29788  -0.28932  -0.12393  -0.11246   0.00172   0.01475   0.03357   0.03503
 kpt#  36, nband=  8, wtk=  0.01563, kpt= -0.2500  0.0000 -0.3750 (reduced coord)
  -0.32558  -0.30818  -0.08219  -0.05100  -0.00949   0.03312   0.03649   0.05088
 kpt#  37, nband=  8, wtk=  0.01563, kpt=  0.0000  0.2500 -0.3750 (reduced coord)
  -0.32558  -0.30818  -0.08219  -0.05100  -0.00949   0.03312   0.03649   0.05088
 kpt#  38, nband=  8, wtk=  0.01563, kpt=  0.2500  0.2500 -0.3750 (reduced coord)
  -0.29923  -0.28932  -0.11043  -0.09874  -0.03197  -0.01161   0.01062   0.04349
 kpt#  39, nband=  8, wtk=  0.01563, kpt=  0.5000  0.2500 -0.3750 (reduced coord)
  -0.29923  -0.28932  -0.11043  -0.09874  -0.03197  -0.01161   0.01062   0.04349
 kpt#  40, nband=  8, wtk=  0.01563, kpt= -0.2500  0.2500 -0.3750 (reduced coord)
  -0.32558  -0.30818  -0.08219  -0.05100  -0.00949   0.03312   0.03649   0.05088
 kpt#  41, nband=  8, wtk=  0.01563, kpt=  0.0000  0.5000 -0.3750 (reduced coord)
  -0.29788  -0.28932  -0.12393  -0.11246   0.00172   0.01475   0.03357   0.03503
 kpt#  42, nband=  8, wtk=  0.01563, kpt=  0.2500  0.5000 -0.3750 (reduced coord)
  -0.29923  -0.28932  -0.11043  -0.09874  -0.03197  -0.01161   0.01062   0.04349
 kpt#  43, nband=  8, wtk=  0.01563, kpt=  0.5000  0.5000 -0.3750 (reduced coord)
  -0.29788  -0.28932  -0.12393  -0.11246   0.00172   0.01475   0.03357   0.03503
 kpt#  44, nband=  8, wtk=  0.01563, kpt= -0.2500  0.5000 -0.3750 (reduced coord)
  -0.29923  -0.28932  -0.11043  -0.09874  -0.03197  -0.01161   0.01062   0.04349
 kpt#  45, nband=  8, wtk=  0.01563, kpt=  0.0000 -0.2500 -0.3750 (reduced coord)
  -0.32558  -0.30818  -0.08219  -0.05100  -0.00949   0.03312   0.03649   0.05088
 kpt#  46, nband=  8, wtk=  0.01563, kpt=  0.2500 -0.2500 -0.3750 (reduced coord)
  -0.32558  -0.30818  -0.08219  -0.05100  -0.00949   0.03312   0.03649   0.05088
 kpt#  47, nband=  8, wtk=  0.01563, kpt=  0.5000 -0.2500 -0.3750 (reduced coord)
  -0.29923  -0.28932  -0.11043  -0.09874  -0.03197  -0.01161   0.01062   0.04349
 kpt#  48, nband=  8, wtk=  0.01563, kpt= -0.2500 -0.2500 -0.3750 (reduced coord)
  -0.29923  -0.28932  -0.11043  -0.09874  -0.03197  -0.01161   0.01062   0.04349
 kpt#  49, nband=  8, wtk=  0.01563, kpt=  0.0000  0.0000 -0.1250 (reduced coord)
  -0.35500  -0.30560  -0.11713   0.05114   0.05114   0.06673   0.08618   0.08618
 kpt#  50, nband=  8, wtk=  0.01563, kpt=  0.2500  0.0000 -0.1250 (reduced coord)
  -0.33586  -0.29255  -0.10545  -0.03923  -0.02010   0.02275   0.05955   0.06707
 prteigrs : prtvol=0 or 1, do not print more k-points.

 Total charge density [el/Bohr^3]
,     Maximum=    9.5490E-02  at reduced coord.    0.8889    0.4444    0.9000
,Next maximum=    9.5490E-02  at reduced coord.    0.5556    0.4444    0.9000
,     Minimum=    1.9880E-03  at reduced coord.    0.0000    0.0000    0.1667
,Next minimum=    1.9880E-03  at reduced coord.    0.0000    0.0000    0.6667
,  Integrated=    1.6000E+01

--------------------------------------------------------------------------------
 Components of total free energy (in Hartree) :

    Kinetic energy  =  5.91968852100663E+00
    Hartree energy  =  1.65273631664532E+00
    XC energy       = -8.68526752214580E+00
    Ewald energy    = -1.68703089910137E+01
    PspCore energy  =  1.45245548202912E+00
    Loc. psp. energy= -4.92365808717512E+00
    NL   psp  energy=  1.18341052678848E+00
    >>>>>>>>> Etotal= -2.02709437538651E+01

 Other information on the energy :
    Total energy(eV)= -5.51600431690893E+02 ; Band energy (Ha)=  -1.4271558574E+00
--------------------------------------------------------------------------------

 Cartesian components of stress tensor (hartree/bohr^3)
  sigma(1 1)= -7.20297130E-08  sigma(3 2)=  0.00000000E+00
  sigma(2 2)= -7.20297130E-08  sigma(3 1)=  0.00000000E+00
  sigma(3 3)= -6.19938047E-07  sigma(2 1)=  0.00000000E+00

-Cartesian components of stress tensor (GPa)         [Pressure=  7.4925E-03 GPa]
- sigma(1 1)= -2.11918696E-03  sigma(3 2)=  0.00000000E+00
- sigma(2 2)= -2.11918696E-03  sigma(3 1)=  0.00000000E+00
- sigma(3 3)= -1.82392040E-02  sigma(2 1)=  0.00000000E+00

================================================================================
== DATASET  3 ==================================================================
-   nproc =    1

 mkfilename : getwfk/=0, take file _WFK from output of DATASET   2.

 Exchange-correlation functional for the present dataset will be:
  LDA: new Teter (4/93) with spin-polarized option - ixc=1
 Citation for XC functional:
  S. Goedecker, M. Teter, J. Huetter, PRB 54, 1703 (1996)

 Real(R)+Recip(G) space primitive vectors, cartesian coordinates (Bohr,Bohr^-1):
 R(1)=  6.5289350  3.7694824  0.0000000  G(1)=  0.0765822  0.1326442  0.0000000
 R(2)= -6.5289350  3.7694824  0.0000000  G(2)= -0.0765822  0.1326442  0.0000000
 R(3)=  0.0000000  0.0000000 12.2790232  G(3)=  0.0000000  0.0000000  0.0814397
 Unit cell volume ucvol=  6.0439085E+02 bohr^3
 Angles (23,13,12)=  9.00000000E+01  9.00000000E+01  1.20000000E+02 degrees

 getcut: wavevector=  0.0000  0.0000  0.0000  ngfft=  18  18  30
         ecut(hartree)=      6.000   => boxcut(ratio)=   2.16976
--------------------------------------------------------------------------------

-inwffil : will read wavefunctions from disk file telast_4o_DS2_WFK
- newkpt: read input wf with ikpt,npw=   1     397, make ikpt,npw=   1     397
- newkpt: read input wf with ikpt,npw=   2     427, make ikpt,npw=   2     427
- newkpt: read input wf with ikpt,npw=   3     428, make ikpt,npw=   3     428
- newkpt: read input wf with ikpt,npw=   6     424, make ikpt,npw=   4     424
- newkpt: read input wf with ikpt,npw=  17     416, make ikpt,npw=   5     416
- newkpt: read input wf with ikpt,npw=  18     425, make ikpt,npw=   6     425
- newkpt: read input wf with ikpt,npw=  19     424, make ikpt,npw=   7     424
- newkpt: read input wf with ikpt,npw=  22     425, make ikpt,npw=   8     425

_setup2: Arith. and geom. avg. npw (full set) are     424.219     424.184

================================================================================

     iter   Etot(hartree)      deltaE(h)  residm     vres2    diffor    maxfor
 ETOT  1  -20.270943689550    -2.027E+01 1.114E-11 4.253E-05 9.750E-06 9.750E-06
 ETOT  2  -20.270943750363    -6.081E-08 2.752E-14 1.964E-06 2.971E-05 1.996E-05
 ETOT  3  -20.270943751766    -1.402E-09 1.833E-11 1.610E-06 3.878E-06 1.609E-05
 ETOT  4  -20.270943753659    -1.893E-09 1.947E-11 9.294E-08 2.198E-06 1.828E-05
 ETOT  5  -20.270943753767    -1.081E-10 9.560E-13 7.803E-09 1.446E-07 1.843E-05
 ETOT  6  -20.270943753771    -3.894E-12 1.957E-14 7.730E-09 8.748E-09 1.842E-05
 ETOT  7  -20.270943753777    -5.969E-12 3.016E-14 9.199E-10 6.448E-09 1.841E-05
 ETOT  8  -20.270943753777    -6.821E-13 5.193E-15 2.594E-12 7.112E-09 1.841E-05
 ETOT  9  -20.270943753777    -1.066E-14 1.703E-18 3.468E-13 3.705E-09 1.840E-05
 ETOT 10  -20.270943753777    -3.553E-14 3.752E-18 2.589E-14 1.899E-09 1.841E-05
 ETOT 11  -20.270943753777    -3.908E-14 9.739E-20 1.917E-15 2.826E-10 1.840E-05
 ETOT 12  -20.270943753777     4.619E-14 5.868E-21 1.819E-16 7.248E-12 1.840E-05
 ETOT 13  -20.270943753777     4.263E-14 4.083E-22 2.107E-17 7.398E-12 1.840E-05
 ETOT 14  -20.270943753777    -3.553E-14 5.902E-23 2.132E-18 1.789E-12 1.840E-05
 ETOT 15  -20.270943753777    -1.421E-14 4.228E-24 2.636E-19 8.073E-13 1.840E-05

 At SCF step   15       vres2   =  2.64E-19 < tolvrs=  1.00E-18 =>converged.

 Cartesian components of stress tensor (hartree/bohr^3)
  sigma(1 1)=  7.13389333E-08  sigma(3 2)=  0.00000000E+00
  sigma(2 2)=  7.13389333E-08  sigma(3 1)=  0.00000000E+00
  sigma(3 3)=  6.21252153E-07  sigma(2 1)=  0.00000000E+00

================================================================================

 ----iterations are completed or convergence reached----

 Mean square residual over all n,k,spin=   1.4748E-24; max=  4.2278E-24
   0.0000  0.0000  0.1250    1  2.42360E-24 kpt; spin; max resid(k); each band:
  2.05E-24 2.03E-24 1.99E-24 1.52E-26 1.52E-26 2.42E-24 1.51E-25 1.51E-25
   0.2500  0.0000  0.1250    1  4.22777E-24 kpt; spin; max resid(k); each band:
  3.23E-24 2.85E-24 4.23E-24 2.37E-24 2.85E-24 1.77E-25 1.64E-24 5.95E-26
   0.5000  0.0000  0.1250    1  1.43602E-24 kpt; spin; max resid(k); each band:
  1.23E-24 8.73E-25 3.76E-25 1.44E-24 9.94E-25 1.56E-25 1.43E-24 4.13E-26
   0.2500  0.2500  0.1250    1  2.10815E-24 kpt; spin; max resid(k); each band:
  2.11E-24 8.43E-25 1.59E-24 1.88E-24 7.14E-25 1.54E-24 3.37E-25 1.10E-24
   0.0000  0.0000  0.3750    1  2.10749E-24 kpt; spin; max resid(k); each band:
  2.11E-24 2.06E-24 2.01E-24 2.08E-24 3.18E-26 3.18E-26 8.15E-26 8.15E-26
   0.2500  0.0000  0.3750    1  4.18544E-24 kpt; spin; max resid(k); each band:
  3.17E-24 3.03E-24 4.19E-24 3.86E-24 2.73E-24 2.10E-25 2.80E-24 2.79E-26
   0.5000  0.0000  0.3750    1  2.67117E-24 kpt; spin; max resid(k); each band:
  1.13E-24 9.70E-25 1.08E-24 2.22E-24 1.77E-24 1.81E-25 2.32E-25 2.67E-24
   0.2500  0.2500  0.3750    1  2.47006E-24 kpt; spin; max resid(k); each band:
  1.82E-24 1.26E-24 2.43E-24 2.47E-24 1.23E-25 2.05E-25 2.30E-24 2.17E-24
 reduced coordinates (array xred) for    4 atoms
       0.333333333333      0.666666666667      0.000000000000
       0.666666666667      0.333333333333      0.500000000000
       0.333333333333      0.666666666667      0.376085883730
       0.666666666667      0.333333333333      0.876085883730
 rms dE/dt=  1.3048E-04; max dE/dt=  2.2602E-04; dE/dt below (all hartree)
    1       0.000000000000      0.000000000000     -0.000225968230
    2       0.000000000000      0.000000000000     -0.000225968230
    3       0.000000000000      0.000000000000      0.000226017301
    4       0.000000000000      0.000000000000      0.000226017301

 cartesian coordinates (angstrom) at end:
    1     -1.15165454116847     1.99472417807121     0.00000000000000
    2      1.15165454116847     1.99472417807121     3.24888959830045
    3     -1.15165454116847     1.99472417807121     2.44372303143606
    4      1.15165454116847     1.99472417807121     5.69261262973651

 cartesian forces (hartree/bohr) at end:
    1     -0.00000000000000    -0.00000000000000     0.00001840478373
    2     -0.00000000000000    -0.00000000000000     0.00001840478373
    3     -0.00000000000000    -0.00000000000000    -0.00001840478373
    4     -0.00000000000000    -0.00000000000000    -0.00001840478373
 frms,max,avg= 1.0626007E-05 1.8404784E-05   0.000E+00  0.000E+00 -1.998E-09 h/b

 cartesian forces (eV/Angstrom) at end:
    1     -0.00000000000000    -0.00000000000000     0.00094641195222
    2     -0.00000000000000    -0.00000000000000     0.00094641195222
    3     -0.00000000000000    -0.00000000000000    -0.00094641195222
    4     -0.00000000000000    -0.00000000000000    -0.00094641195222
 frms,max,avg= 5.4641120E-04 9.4641195E-04   0.000E+00  0.000E+00 -1.027E-07 e/A
 length scales=  7.538964814400  7.538964814400 12.277795374000 bohr
              =  3.989448356142  3.989448356142  6.497129483653 angstroms
 prteigrs : about to open file telast_4o_DS3_EIG
 Fermi (or HOMO) energy (hartree) =   0.08614   Average Vxc (hartree)=  -0.34267
 Eigenvalues (hartree) for nkpt=   8  k points:
 kpt#   1, nband=  8, wtk=  0.03125, kpt=  0.0000  0.0000  0.1250 (reduced coord)
  -0.35501  -0.30565  -0.11715   0.05113   0.05113   0.06665   0.08614   0.08614
 kpt#   2, nband=  8, wtk=  0.18750, kpt=  0.2500  0.0000  0.1250 (reduced coord)
  -0.33587  -0.29260  -0.10548  -0.03925  -0.02015   0.02274   0.05950   0.06702
 kpt#   3, nband=  8, wtk=  0.09375, kpt=  0.5000  0.0000  0.1250 (reduced coord)
  -0.30401  -0.28362  -0.12001  -0.09160  -0.03887   0.00385   0.01545   0.05098
 kpt#   4, nband=  8, wtk=  0.18750, kpt=  0.2500  0.2500  0.1250 (reduced coord)
  -0.30599  -0.28221  -0.10699  -0.07996  -0.04121  -0.03243   0.00994   0.02542
 kpt#   5, nband=  8, wtk=  0.03125, kpt=  0.0000  0.0000  0.3750 (reduced coord)
  -0.34371  -0.32405  -0.07360  -0.00619   0.05992   0.05992   0.07420   0.07420
 kpt#   6, nband=  8, wtk=  0.18750, kpt=  0.2500  0.0000  0.3750 (reduced coord)
  -0.32560  -0.30821  -0.08222  -0.05103  -0.00953   0.03310   0.03642   0.05085
 kpt#   7, nband=  8, wtk=  0.09375, kpt=  0.5000  0.0000  0.3750 (reduced coord)
  -0.29791  -0.28935  -0.12396  -0.11249   0.00167   0.01473   0.03353   0.03497
 kpt#   8, nband=  8, wtk=  0.18750, kpt=  0.2500  0.2500  0.3750 (reduced coord)
  -0.29925  -0.28935  -0.11045  -0.09877  -0.03199  -0.01164   0.01056   0.04342
 Total charge density [el/Bohr^3]
,     Maximum=    9.5488E-02  at reduced coord.    0.8889    0.4444    0.9000
,Next maximum=    9.5488E-02  at reduced coord.    0.5556    0.4444    0.9000
,     Minimum=    1.9874E-03  at reduced coord.    0.0000    0.0000    0.1667
,Next minimum=    1.9874E-03  at reduced coord.    0.0000    0.0000    0.6667
,  Integrated=    1.6000E+01

--------------------------------------------------------------------------------
 Components of total free energy (in Hartree) :

    Kinetic energy  =  5.91926810755559E+00
    Hartree energy  =  1.65296606365093E+00
    XC energy       = -8.68503964046455E+00
    Ewald energy    = -1.68692134754787E+01
    PspCore energy  =  1.45216501997892E+00
    Loc. psp. energy= -4.92443934452990E+00
    NL   psp  energy=  1.18334951551040E+00
    >>>>>>>>> Etotal= -2.02709437537773E+01

 Other information on the energy :
    Total energy(eV)= -5.51600431688503E+02 ; Band energy (Ha)=  -1.4276931027E+00
--------------------------------------------------------------------------------

 Cartesian components of stress tensor (hartree/bohr^3)
  sigma(1 1)=  7.13389333E-08  sigma(3 2)=  0.00000000E+00
  sigma(2 2)=  7.13389333E-08  sigma(3 1)=  0.00000000E+00
  sigma(3 3)=  6.21252153E-07  sigma(2 1)=  0.00000000E+00

-Cartesian components of stress tensor (GPa)         [Pressure= -7.4919E-03 GPa]
- sigma(1 1)=  2.09886353E-03  sigma(3 2)=  0.00000000E+00
- sigma(2 2)=  2.09886353E-03  sigma(3 1)=  0.00000000E+00
- sigma(3 3)=  1.82778663E-02  sigma(2 1)=  0.00000000E+00

================================================================================
== DATASET  4 ==================================================================
-   nproc =    1

 mkfilename : getwfk/=0, take file _WFK from output of DATASET   3.

 Exchange-correlation functional for the present dataset will be:
  LDA: new Teter (4/93) with spin-polarized option - ixc=1
 Citation for XC functional:
  S. Goedecker, M. Teter, J. Huetter, PRB 54, 1703 (1996)

 Real(R)+Recip(G) space primitive vectors, cartesian coordinates (Bohr,Bohr^-1):
 R(1)=  6.5289350  3.7694824  0.0000000  G(1)=  0.0765822  0.1326442  0.0000000
 R(2)= -6.5289350  3.7694824  0.0000000  G(2)= -0.0765822  0.1326442  0.0000000
 R(3)=  0.0000000  0.0000000 12.2790232  G(3)=  0.0000000  0.0000000  0.0814397
 Unit cell volume ucvol=  6.0439085E+02 bohr^3
 Angles (23,13,12)=  9.00000000E+01  9.00000000E+01  1.20000000E+02 degrees

 getcut: wavevector=  0.0000  0.0000  0.0000  ngfft=  18  18  30
         ecut(hartree)=      6.000   => boxcut(ratio)=   2.16976
--------------------------------------------------------------------------------

-inwffil : will read wavefunctions from disk file telast_4o_DS3_WFK
- newkpt: read input wf with ikpt,npw=   1     397, make ikpt,npw=   1     397
- newkpt: read input wf with ikpt,npw=   2     427, make ikpt,npw=   2     427
- newkpt: read input wf with ikpt,npw=   3     428, make ikpt,npw=   3     428
- newkpt: read input wf with ikpt,npw=   2     427, make ikpt,npw=   4     427
- newkpt: read input wf with ikpt,npw=   2     427, make ikpt,npw=   5     427
- newkpt: read input wf with ikpt,npw=   4     424, make ikpt,npw=   6     424
- newkpt: read input wf with ikpt,npw=   4     424, make ikpt,npw=   7     424
- newkpt: read input wf with ikpt,npw=   2     427, make ikpt,npw=   8     427
- newkpt: read input wf with ikpt,npw=   3     428, make ikpt,npw=   9     428
- newkpt: read input wf with ikpt,npw=   4     424, make ikpt,npw=  10     424
- newkpt: read input wf with ikpt,npw=   3     428, make ikpt,npw=  11     428
- newkpt: read input wf with ikpt,npw=   4     424, make ikpt,npw=  12     424
- newkpt: read input wf with ikpt,npw=   2     427, make ikpt,npw=  13     427
- newkpt: read input wf with ikpt,npw=   2     427, make ikpt,npw=  14     427
- newkpt: read input wf with ikpt,npw=   4     424, make ikpt,npw=  15     424
- newkpt: read input wf with ikpt,npw=   4     424, make ikpt,npw=  16     424
- newkpt: read input wf with ikpt,npw=   5     416, make ikpt,npw=  17     416
- newkpt: read input wf with ikpt,npw=   6     425, make ikpt,npw=  18     425
- newkpt: read input wf with ikpt,npw=   7     424, make ikpt,npw=  19     424
- newkpt: read input wf with ikpt,npw=   6     425, make ikpt,npw=  20     425
- newkpt: read input wf with ikpt,npw=   6     425, make ikpt,npw=  21     425
- newkpt: read input wf with ikpt,npw=   8     425, make ikpt,npw=  22     425
- newkpt: read input wf with ikpt,npw=   8     425, make ikpt,npw=  23     425
- newkpt: read input wf with ikpt,npw=   6     425, make ikpt,npw=  24     425
- newkpt: read input wf with ikpt,npw=   7     424, make ikpt,npw=  25     424
- newkpt: read input wf with ikpt,npw=   8     425, make ikpt,npw=  26     425
- newkpt: read input wf with ikpt,npw=   7     424, make ikpt,npw=  27     424
- newkpt: read input wf with ikpt,npw=   8     425, make ikpt,npw=  28     425
- newkpt: read input wf with ikpt,npw=   6     425, make ikpt,npw=  29     425
- newkpt: read input wf with ikpt,npw=   6     425, make ikpt,npw=  30     425
- newkpt: read input wf with ikpt,npw=   8     425, make ikpt,npw=  31     425
- newkpt: read input wf with ikpt,npw=   8     425, make ikpt,npw=  32     425
- newkpt: read input wf with ikpt,npw=   5     416, make ikpt,npw=  33     416
- newkpt: read input wf with ikpt,npw=   6     425, make ikpt,npw=  34     425
- newkpt: read input wf with ikpt,npw=   7     424, make ikpt,npw=  35     424
- newkpt: read input wf with ikpt,npw=   6     425, make ikpt,npw=  36     425
- newkpt: read input wf with ikpt,npw=   6     425, make ikpt,npw=  37     425
- newkpt: read input wf with ikpt,npw=   8     425, make ikpt,npw=  38     425
- newkpt: read input wf with ikpt,npw=   8     425, make ikpt,npw=  39     425
- newkpt: read input wf with ikpt,npw=   6     425, make ikpt,npw=  40     425
- newkpt: read input wf with ikpt,npw=   7     424, make ikpt,npw=  41     424
- newkpt: read input wf with ikpt,npw=   8     425, make ikpt,npw=  42     425
- newkpt: read input wf with ikpt,npw=   7     424, make ikpt,npw=  43     424
- newkpt: read input wf with ikpt,npw=   8     425, make ikpt,npw=  44     425
- newkpt: read input wf with ikpt,npw=   6     425, make ikpt,npw=  45     425
- newkpt: read input wf with ikpt,npw=   6     425, make ikpt,npw=  46     425
- newkpt: read input wf with ikpt,npw=   8     425, make ikpt,npw=  47     425
- newkpt: read input wf with ikpt,npw=   8     425, make ikpt,npw=  48     425
- newkpt: read input wf with ikpt,npw=   1     397, make ikpt,npw=  49     397
- newkpt: read input wf with ikpt,npw=   2     427, make ikpt,npw=  50     427
- newkpt : prtvol=0 or 1, do not print more k-points.

_setup2: Arith. and geom. avg. npw (full set) are     424.219     424.184
  initberry: for direction 1, nkstr =   4, nstr =     16
  initberry: for direction 2, nkstr =   4, nstr =     16
  initberry: for direction 3, nkstr =   4, nstr =     16

================================================================================

     iter   Etot(hartree)      deltaE(h)  residm     vres2    diffor    maxfor
 ETOT  1  -20.270943753776    -2.027E+01 1.603E-26 3.138E-20 1.840E-05 1.840E-05

 At SCF step    1       vres2   =  3.14E-20 < tolvrs=  1.00E-18 =>converged.

 Computing the polarization (Berry phase) for reciprocal vector:
  0.25000  0.00000  0.00000 (in reduced coordinates)
[...]
                       0.00000000E+00  5.00000000E-01  1.25000000E-01
                       2.50000000E-01  5.00000000E-01  1.25000000E-01
                       5.00000000E-01  5.00000000E-01  1.25000000E-01
                      -2.50000000E-01  5.00000000E-01  1.25000000E-01
                       0.00000000E+00 -2.50000000E-01  1.25000000E-01
                       2.50000000E-01 -2.50000000E-01  1.25000000E-01
                       5.00000000E-01 -2.50000000E-01  1.25000000E-01
                      -2.50000000E-01 -2.50000000E-01  1.25000000E-01
                       0.00000000E+00  0.00000000E+00  3.75000000E-01
                       2.50000000E-01  0.00000000E+00  3.75000000E-01
                       5.00000000E-01  0.00000000E+00  3.75000000E-01
                      -2.50000000E-01  0.00000000E+00  3.75000000E-01
                       0.00000000E+00  2.50000000E-01  3.75000000E-01
                       2.50000000E-01  2.50000000E-01  3.75000000E-01
                       5.00000000E-01  2.50000000E-01  3.75000000E-01
                      -2.50000000E-01  2.50000000E-01  3.75000000E-01
                       0.00000000E+00  5.00000000E-01  3.75000000E-01
                       2.50000000E-01  5.00000000E-01  3.75000000E-01
                       5.00000000E-01  5.00000000E-01  3.75000000E-01
                      -2.50000000E-01  5.00000000E-01  3.75000000E-01
                       0.00000000E+00 -2.50000000E-01  3.75000000E-01
                       2.50000000E-01 -2.50000000E-01  3.75000000E-01
                       5.00000000E-01 -2.50000000E-01  3.75000000E-01
                      -2.50000000E-01 -2.50000000E-01  3.75000000E-01
                       0.00000000E+00  0.00000000E+00 -3.75000000E-01
                       2.50000000E-01  0.00000000E+00 -3.75000000E-01
                       5.00000000E-01  0.00000000E+00 -3.75000000E-01
                      -2.50000000E-01  0.00000000E+00 -3.75000000E-01
                       0.00000000E+00  2.50000000E-01 -3.75000000E-01
                       2.50000000E-01  2.50000000E-01 -3.75000000E-01
                       5.00000000E-01  2.50000000E-01 -3.75000000E-01
                      -2.50000000E-01  2.50000000E-01 -3.75000000E-01
                       0.00000000E+00  5.00000000E-01 -3.75000000E-01
                       2.50000000E-01  5.00000000E-01 -3.75000000E-01
                       5.00000000E-01  5.00000000E-01 -3.75000000E-01
                      -2.50000000E-01  5.00000000E-01 -3.75000000E-01
                       0.00000000E+00 -2.50000000E-01 -3.75000000E-01
                       2.50000000E-01 -2.50000000E-01 -3.75000000E-01
                       5.00000000E-01 -2.50000000E-01 -3.75000000E-01
                      -2.50000000E-01 -2.50000000E-01 -3.75000000E-01
                       0.00000000E+00  0.00000000E+00 -1.25000000E-01
                       2.50000000E-01  0.00000000E+00 -1.25000000E-01
              kpt3     0.00000000E+00  0.00000000E+00  1.25000000E-01
                       2.50000000E-01  0.00000000E+00  1.25000000E-01
                       5.00000000E-01  0.00000000E+00  1.25000000E-01
                       2.50000000E-01  2.50000000E-01  1.25000000E-01
                       0.00000000E+00  0.00000000E+00  3.75000000E-01
                       2.50000000E-01  0.00000000E+00  3.75000000E-01
                       5.00000000E-01  0.00000000E+00  3.75000000E-01
                       2.50000000E-01  2.50000000E-01  3.75000000E-01
              kpt4     0.00000000E+00  0.00000000E+00  1.25000000E-01
                       2.50000000E-01  0.00000000E+00  1.25000000E-01
                       5.00000000E-01  0.00000000E+00  1.25000000E-01
                      -2.50000000E-01  0.00000000E+00  1.25000000E-01
                       0.00000000E+00  2.50000000E-01  1.25000000E-01
                       2.50000000E-01  2.50000000E-01  1.25000000E-01
                       5.00000000E-01  2.50000000E-01  1.25000000E-01
                      -2.50000000E-01  2.50000000E-01  1.25000000E-01
                       0.00000000E+00  5.00000000E-01  1.25000000E-01
                       2.50000000E-01  5.00000000E-01  1.25000000E-01
                       5.00000000E-01  5.00000000E-01  1.25000000E-01
                      -2.50000000E-01  5.00000000E-01  1.25000000E-01
                       0.00000000E+00 -2.50000000E-01  1.25000000E-01
                       2.50000000E-01 -2.50000000E-01  1.25000000E-01
                       5.00000000E-01 -2.50000000E-01  1.25000000E-01
                      -2.50000000E-01 -2.50000000E-01  1.25000000E-01
                       0.00000000E+00  0.00000000E+00  3.75000000E-01
                       2.50000000E-01  0.00000000E+00  3.75000000E-01
                       5.00000000E-01  0.00000000E+00  3.75000000E-01
                      -2.50000000E-01  0.00000000E+00  3.75000000E-01
                       0.00000000E+00  2.50000000E-01  3.75000000E-01
                       2.50000000E-01  2.50000000E-01  3.75000000E-01
                       5.00000000E-01  2.50000000E-01  3.75000000E-01
                      -2.50000000E-01  2.50000000E-01  3.75000000E-01
                       0.00000000E+00  5.00000000E-01  3.75000000E-01
                       2.50000000E-01  5.00000000E-01  3.75000000E-01
                       5.00000000E-01  5.00000000E-01  3.75000000E-01
                      -2.50000000E-01  5.00000000E-01  3.75000000E-01
                       0.00000000E+00 -2.50000000E-01  3.75000000E-01
                       2.50000000E-01 -2.50000000E-01  3.75000000E-01
                       5.00000000E-01 -2.50000000E-01  3.75000000E-01
                      -2.50000000E-01 -2.50000000E-01  3.75000000E-01
                       0.00000000E+00  0.00000000E+00 -3.75000000E-01
                       2.50000000E-01  0.00000000E+00 -3.75000000E-01
                       5.00000000E-01  0.00000000E+00 -3.75000000E-01
                      -2.50000000E-01  0.00000000E+00 -3.75000000E-01
                       0.00000000E+00  2.50000000E-01 -3.75000000E-01
                       2.50000000E-01  2.50000000E-01 -3.75000000E-01
                       5.00000000E-01  2.50000000E-01 -3.75000000E-01
                      -2.50000000E-01  2.50000000E-01 -3.75000000E-01
                       0.00000000E+00  5.00000000E-01 -3.75000000E-01
                       2.50000000E-01  5.00000000E-01 -3.75000000E-01
                       5.00000000E-01  5.00000000E-01 -3.75000000E-01
                      -2.50000000E-01  5.00000000E-01 -3.75000000E-01
                       0.00000000E+00 -2.50000000E-01 -3.75000000E-01
                       2.50000000E-01 -2.50000000E-01 -3.75000000E-01
                       5.00000000E-01 -2.50000000E-01 -3.75000000E-01
                      -2.50000000E-01 -2.50000000E-01 -3.75000000E-01
                       0.00000000E+00  0.00000000E+00 -1.25000000E-01
                       2.50000000E-01  0.00000000E+00 -1.25000000E-01
                       outvar_i_n : Printing only first  50 k-points.
           kptopt1          1
           kptopt2          3
           kptopt3          1
           kptopt4          3
         kptrlatt        4    0    0      0    4    0      0    0    4
          kptrlen      3.01558593E+01
P           mkmem1          8
P           mkmem2         64
P           mkmem3          8
P           mkmem4         64
            natom           4
            nband1          8
            nband2          8
            nband3          8
            nband4          8
           ndtset           4
            ngfft          18      18      30
             nkpt1          8
             nkpt2         64
             nkpt3          8
             nkpt4         64
            nstep          40
             nsym          12
           ntypat           2
              occ1     2.000000  2.000000  2.000000  2.000000  2.000000  2.000000
                       2.000000  2.000000
              occ2     2.000000  2.000000  2.000000  2.000000  2.000000  2.000000
                       2.000000  2.000000
              occ3     2.000000  2.000000  2.000000  2.000000  2.000000  2.000000
                       2.000000  2.000000
              occ4     2.000000  2.000000  2.000000  2.000000  2.000000  2.000000
                       2.000000  2.000000
        optforces           1
            rfdir1          0       0       0
            rfdir2          1       1       1
            rfdir3          0       0       0
            rfdir4          1       1       1
            rprim1     8.6602540378E-01  5.0000000000E-01  0.0000000000E+00
                      -8.6602540378E-01  5.0000000000E-01  0.0000000000E+00
                       0.0000000000E+00  0.0000000000E+00  9.9990000000E-01
            rprim2     8.6602540378E-01  5.0000000000E-01  0.0000000000E+00
                      -8.6602540378E-01  5.0000000000E-01  0.0000000000E+00
                       0.0000000000E+00  0.0000000000E+00  9.9990000000E-01
            rprim3     8.6602540378E-01  5.0000000000E-01  0.0000000000E+00
                      -8.6602540378E-01  5.0000000000E-01  0.0000000000E+00
                       0.0000000000E+00  0.0000000000E+00  1.0001000000E+00
            rprim4     8.6602540378E-01  5.0000000000E-01  0.0000000000E+00
                      -8.6602540378E-01  5.0000000000E-01  0.0000000000E+00
                       0.0000000000E+00  0.0000000000E+00  1.0001000000E+00
           shiftk      0.00000000E+00  0.00000000E+00  5.00000000E-01
          spgroup         186
           strten1    -7.2029810424E-08 -7.2029810423E-08 -6.1993808370E-07
                       0.0000000000E+00  0.0000000000E+00  0.0000000000E+00
           strten2    -7.2029712995E-08 -7.2029712994E-08 -6.1993804688E-07
                       0.0000000000E+00  0.0000000000E+00  0.0000000000E+00
           strten3     7.1338933264E-08  7.1338933267E-08  6.2125215313E-07
                       0.0000000000E+00  0.0000000000E+00  0.0000000000E+00
           strten4     7.1338962153E-08  7.1338962155E-08  6.2125223335E-07
                       0.0000000000E+00  0.0000000000E+00  0.0000000000E+00
           symrel      1  0  0   0  1  0   0  0  1       0  1  0   1  0  0   0  0  1
                       1  1  0  -1  0  0   0  0  1      -1  0  0   1  1  0   0  0  1
                       0  1  0  -1 -1  0   0  0  1      -1 -1  0   0  1  0   0  0  1
                      -1  0  0   0 -1  0   0  0  1       0 -1  0  -1  0  0   0  0  1
                      -1 -1  0   1  0  0   0  0  1       1  0  0  -1 -1  0   0  0  1
                       0 -1  0   1  1  0   0  0  1       1  1  0   0 -1  0   0  0  1
            tnons      0.0000000  0.0000000  0.0000000     0.0000000  0.0000000  0.5000000
                       0.0000000  0.0000000  0.5000000    -0.0000000  0.0000000  0.0000000
                      -0.0000000  0.0000000  0.0000000    -0.0000000 -0.0000000  0.5000000
                      -0.0000000 -0.0000000  0.5000000    -0.0000000 -0.0000000  0.0000000
                      -0.0000000 -0.0000000  0.0000000     0.0000000 -0.0000000  0.5000000
                       0.0000000 -0.0000000  0.5000000     0.0000000  0.0000000  0.0000000
           tolvrs      1.00000000E-18
            typat      1  1  2  2
              wtk1       0.03125    0.18750    0.09375    0.18750    0.03125    0.18750
                         0.09375    0.18750
              wtk2       0.01563    0.01563    0.01563    0.01563    0.01563    0.01563
                         0.01563    0.01563    0.01563    0.01563    0.01563    0.01563
                         0.01563    0.01563    0.01563    0.01563    0.01563    0.01563
                         0.01563    0.01563    0.01563    0.01563    0.01563    0.01563
                         0.01563    0.01563    0.01563    0.01563    0.01563    0.01563
                         0.01563    0.01563    0.01563    0.01563    0.01563    0.01563
                         0.01563    0.01563    0.01563    0.01563    0.01563    0.01563
                         0.01563    0.01563    0.01563    0.01563    0.01563    0.01563
                         0.01563    0.01563
              wtk3       0.03125    0.18750    0.09375    0.18750    0.03125    0.18750
                         0.09375    0.18750
              wtk4       0.01563    0.01563    0.01563    0.01563    0.01563    0.01563
                         0.01563    0.01563    0.01563    0.01563    0.01563    0.01563
                         0.01563    0.01563    0.01563    0.01563    0.01563    0.01563
                         0.01563    0.01563    0.01563    0.01563    0.01563    0.01563
                         0.01563    0.01563    0.01563    0.01563    0.01563    0.01563
                         0.01563    0.01563    0.01563    0.01563    0.01563    0.01563
                         0.01563    0.01563    0.01563    0.01563    0.01563    0.01563
                         0.01563    0.01563    0.01563    0.01563    0.01563    0.01563
                         0.01563    0.01563
                       outvars : Printing only first  50 k-points.
           xangst1    -1.1516545412E+00  1.9947241781E+00  0.0000000000E+00
                       1.1516545412E+00  1.9947241781E+00  3.2482398854E+00
                      -1.1516545412E+00  1.9947241781E+00  2.4432343357E+00
                       1.1516545412E+00  1.9947241781E+00  5.6914742211E+00
           xangst2    -1.1516545412E+00  1.9947241781E+00  0.0000000000E+00
                       1.1516545412E+00  1.9947241781E+00  3.2482398854E+00
                      -1.1516545412E+00  1.9947241781E+00  2.4432343357E+00
                       1.1516545412E+00  1.9947241781E+00  5.6914742211E+00
           xangst3    -1.1516545412E+00  1.9947241781E+00  0.0000000000E+00
                       1.1516545412E+00  1.9947241781E+00  3.2488895983E+00
                      -1.1516545412E+00  1.9947241781E+00  2.4437230314E+00
                       1.1516545412E+00  1.9947241781E+00  5.6926126297E+00
           xangst4    -1.1516545412E+00  1.9947241781E+00  0.0000000000E+00
                       1.1516545412E+00  1.9947241781E+00  3.2488895983E+00
                      -1.1516545412E+00  1.9947241781E+00  2.4437230314E+00
                       1.1516545412E+00  1.9947241781E+00  5.6926126297E+00
            xcart1    -2.1763116825E+00  3.7694824072E+00  0.0000000000E+00
                       2.1763116825E+00  3.7694824072E+00  6.1382837972E+00
                      -2.1763116825E+00  3.7694824072E+00  4.6170437729E+00
                       2.1763116825E+00  3.7694824072E+00  1.0755327570E+01
            xcart2    -2.1763116825E+00  3.7694824072E+00  0.0000000000E+00
                       2.1763116825E+00  3.7694824072E+00  6.1382837972E+00
                      -2.1763116825E+00  3.7694824072E+00  4.6170437729E+00
                       2.1763116825E+00  3.7694824072E+00  1.0755327570E+01
            xcart3    -2.1763116825E+00  3.7694824072E+00  0.0000000000E+00
                       2.1763116825E+00  3.7694824072E+00  6.1395115768E+00
                      -2.1763116825E+00  3.7694824072E+00  4.6179672740E+00
                       2.1763116825E+00  3.7694824072E+00  1.0757478851E+01
            xcart4    -2.1763116825E+00  3.7694824072E+00  0.0000000000E+00
                       2.1763116825E+00  3.7694824072E+00  6.1395115768E+00
                      -2.1763116825E+00  3.7694824072E+00  4.6179672740E+00
                       2.1763116825E+00  3.7694824072E+00  1.0757478851E+01
             xred      3.3333333333E-01  6.6666666667E-01  0.0000000000E+00
                       6.6666666667E-01  3.3333333333E-01  5.0000000000E-01
                       3.3333333333E-01  6.6666666667E-01  3.7608588373E-01
                       6.6666666667E-01  3.3333333333E-01  8.7608588373E-01
            znucl       13.00000   33.00000

================================================================================


- Timing analysis has been suppressed with timopt=0



================================================================================

 Suggested references for the acknowledgment of ABINIT usage.

 The users of ABINIT have little formal obligations with respect to the ABINIT group
 (those specified in the GNU General Public License, http://www.gnu.org/copyleft/gpl.txt).
 However, it is common practice in the scientific literature,
 to acknowledge the efforts of people that have made the research possible.
 In this spirit, please find below suggested citations of work written by ABINIT developers,
 corresponding to implementations inside of ABINIT that you have used in the present run.
 Note also that it will be of great value to readers of publications presenting these results,
 to read papers enabling them to understand the theoretical formalism and details
 of the ABINIT implementation.
 For information on why they are suggested, see also http://www.abinit.org/about/?text=acknowledgments.

 [1] ABINIT : First-principles approach of materials and nanosystem properties.
 X. Gonze, B. Amadon, P.-M. Anglade, J.-M. Beuken, F. Bottin, P. Boulanger, F. Bruneval,
 D. Caliste, R. Caracas, M. Cote, T. Deutsch, L. Genovese, Ph. Ghosez, M. Giantomassi
 S. Goedecker, D.R. Hamann, P. Hermet, F. Jollet, G. Jomard, S. Leroux, M. Mancini, S. Mazevet,
 M.J.T. Oliveira, G. Onida, Y. Pouillon, T. Rangel, G.-M. Rignanese, D. Sangalli, R. Shaltaf,
 M. Torrent, M.J. Verstraete, G. Zerah, J.W. Zwanziger
 Computer Phys. Comm. 180, 2582-2615 (2009).
 Comment : the third generic paper describing the ABINIT project.
 Note that a version of this paper, that is not formatted for Computer Phys. Comm. 
 is available at http://www.abinit.org/about/ABINIT_CPC_v10.pdf .
 The licence allows the authors to put it on the Web.

 [2] A brief introduction to the ABINIT software package.
 X. Gonze, G.-M. Rignanese, M. Verstraete, J.-M. Beuken, Y. Pouillon, R. Caracas, F. Jollet,
 M. Torrent, G. Zerah, M. Mikami, Ph. Ghosez, M. Veithen, J.-Y. Raty, V. Olevano, F. Bruneval,
 L. Reining, R. Godby, G. Onida, D.R. Hamann, and D.C. Allan.
 Z. Kristallogr. 220, 558-562 (2005).
 Comment : the second generic paper describing the ABINIT project. Note that this paper
 should be cited especially if you are using the GW part of ABINIT, as several authors
 of this part are not in the list of authors of the first or third paper.
 The .pdf of the latter paper is available at http://www.abinit.org/about/zfk_0505-06_558-562.pdf.
 Note that it should not redistributed (Copyright by Oldenburg Wissenshaftverlag,
 the licence allows the authors to put it on the Web).


 And optionally :

 [3] First-principles computation of material properties : the ABINIT software project. 
 X. Gonze, J.-M. Beuken, R. Caracas, F. Detraux, M. Fuchs, G.-M. Rignanese, L. Sindic,
 M. Verstraete, G. Zerah, F. Jollet, M. Torrent, A. Roy, M. Mikami, Ph. Ghosez, J.-Y. Raty, D.C. Allan.
 Computational Materials Science 25, 478-492 (2002). http://dx.doi.org/10.1016/S0927-0256(02)00325-7
 Comment : the original paper describing the ABINIT project.

 [4] Fast radix 2, 3, 4 and 5 kernels for Fast Fourier Transformations
 on computers with overlapping multiply-add instructions.
 S. Goedecker, SIAM J. on Scientific Computing 18, 1605 (1997).

 [5] Towards a potential-based conjugate gradient algorithm for order-N self-consistent
 total energy calculations.
 X. Gonze, Phys. Rev. B 54, 4383 (1996).
 Comment : The potential-based conjugate-gradient algorithm, used when iscf=5, is not published.
 However, many elements of this algorithm have been explained in the paper above.
-
- Proc.   0 individual time (sec): cpu=          9.9  wall=          9.9

================================================================================

 Calculation completed.
.Delivered   16 WARNINGs and   0 COMMENTs to log file.
+Overall time at end (sec) : cpu=          9.9  wall=          9.9
