
.Version 7.10.4 of ABINIT 
.(MPI version, prepared for a x86_64_linux_gnu4.7 computer) 

.Copyright (C) 1998-2014 ABINIT group . 
 ABINIT comes with ABSOLUTELY NO WARRANTY.
 It is free software, and you are welcome to redistribute it
 under certain conditions (GNU General Public License,
 see ~abinit/COPYING or http://www.gnu.org/copyleft/gpl.txt).

 ABINIT is a project of the Universite Catholique de Louvain,
 Corning Inc. and other collaborators, see ~abinit/doc/developers/contributors.txt .
 Please read ~abinit/doc/users/acknowledgments.html for suggested
 acknowledgments of the ABINIT effort.
 For more information, see http://www.abinit.org .

.Starting date : Sun  1 Feb 2015.
- ( at 15h02 )
  
- input  file    -> tffield_4.in
- output file    -> tffield_4.out
- root for input  files -> tffield_4i
- root for output files -> tffield_4o


 DATASET    1 : space group F-4 3 m (#216); Bravais cF (face-center cubic)
================================================================================
 Values of the parameters that define the memory need for DATASET  1.
   intxc =         0  ionmov =         0    iscf =         5 xclevel =         1
  lmnmax =         2   lnmax =         2   mband =         5  mffmem =         1
P  mgfft =        12   mkmem =        28 mpssoang=         3     mpw =        80
  mqgrid =      3001   natom =         2    nfft =      1728    nkpt =        28
  nloalg =         4  nspden =         1 nspinor =         1  nsppol =         1
    nsym =        24  n1xccc =      2501  ntypat =         2  occopt =         1
================================================================================
P This job should need less than                       1.447 Mbytes of memory.
  Rough estimation (10% accuracy) of disk space for files :
_ WF disk file :      0.173 Mbytes ; DEN or POT disk file :      0.015 Mbytes.
================================================================================


 DATASET    2 : space group Cm (#  8); Bravais mC (1-face-center monocl.)
================================================================================
 Values of the parameters that define the memory need for DATASET  2.
   intxc =         0  ionmov =         0    iscf =         5 xclevel =         1
  lmnmax =         2   lnmax =         2   mband =         5  mffmem =         1
P  mgfft =        12   mkmem =       234 mpssoang=         3     mpw =        80
  mqgrid =      3001   natom =         2    nfft =      1728    nkpt =       234
  nloalg =         4  nspden =         1 nspinor =         1  nsppol =         1
    nsym =         2  n1xccc =      2501  ntypat =         2  occopt =         1
================================================================================
P This job should need less than                       3.049 Mbytes of memory.
  Rough estimation (10% accuracy) of disk space for files :
_ WF disk file :      1.430 Mbytes ; DEN or POT disk file :      0.015 Mbytes.
================================================================================


 DATASET    3 : space group Cm (#  8); Bravais mC (1-face-center monocl.)
================================================================================
 Values of the parameters that define the memory need for DATASET  3.
   intxc =         0  ionmov =         0    iscf =         5 xclevel =         1
  lmnmax =         2   lnmax =         2   mband =         5  mffmem =         1
P  mgfft =        12   mkmem =       234 mpssoang=         3     mpw =        80
  mqgrid =      3001   natom =         2    nfft =      1728    nkpt =       234
  nloalg =         4  nspden =         1 nspinor =         1  nsppol =         1
    nsym =         2  n1xccc =      2501  ntypat =         2  occopt =         1
================================================================================
P This job should need less than                       3.049 Mbytes of memory.
  Rough estimation (10% accuracy) of disk space for files :
_ WF disk file :      1.430 Mbytes ; DEN or POT disk file :      0.015 Mbytes.
================================================================================

--------------------------------------------------------------------------------
------------- Echo of variables that govern the present computation ------------
--------------------------------------------------------------------------------
-
- outvars: echo of selected default values                                      
-   accesswff0 =  0 , fftalg0 =112 , wfoptalg0 =  0
-
- outvars: echo of global parameters not present in the input file              
-  max_nthreads =    0
-
 -outvars: echo values of preprocessed input variables --------
            acell1     7.4485600000E+00  7.4485600000E+00  7.4485600000E+00 Bohr
            acell2     7.4858028000E+00  7.4485600000E+00  7.4485600000E+00 Bohr
            acell3     7.4113172000E+00  7.4485600000E+00  7.4485600000E+00 Bohr
              amu      2.69815390E+01  7.49215900E+01
         berryopt          -1
          dilatmx      1.05000000E+00
             ecut      2.80000000E+00 Hartree
           ecutsm      5.00000000E-01 Hartree
-          fftalg         112
             iscf           5
              ixc           3
           jdtset        1    2    3
              kpt1    -8.33333333E-02 -1.66666667E-01  0.00000000E+00
                      -8.33333333E-02 -3.33333333E-01  0.00000000E+00
                      -1.66666667E-01 -2.50000000E-01  0.00000000E+00
                      -8.33333333E-02 -2.50000000E-01  8.33333333E-02
                      -8.33333333E-02  5.00000000E-01  0.00000000E+00
                      -1.66666667E-01 -4.16666667E-01  0.00000000E+00
                      -8.33333333E-02 -4.16666667E-01  8.33333333E-02
                      -2.50000000E-01 -3.33333333E-01  0.00000000E+00
                      -1.66666667E-01 -3.33333333E-01  8.33333333E-02
                      -8.33333333E-02 -3.33333333E-01  1.66666667E-01
                      -8.33333333E-02  3.33333333E-01  0.00000000E+00
                      -1.66666667E-01  4.16666667E-01  0.00000000E+00
                      -2.50000000E-01  5.00000000E-01  0.00000000E+00
                      -1.66666667E-01  5.00000000E-01  8.33333333E-02
                      -3.33333333E-01 -4.16666667E-01  0.00000000E+00
                      -2.50000000E-01 -4.16666667E-01  8.33333333E-02
                      -1.66666667E-01 -4.16666667E-01  1.66666667E-01
                      -8.33333333E-02 -4.16666667E-01  2.50000000E-01
                      -8.33333333E-02  1.66666667E-01  0.00000000E+00
                      -1.66666667E-01  2.50000000E-01  0.00000000E+00
                      -2.50000000E-01  3.33333333E-01  0.00000000E+00
                      -3.33333333E-01  4.16666667E-01  0.00000000E+00
                      -4.16666667E-01  5.00000000E-01  0.00000000E+00
                      -3.33333333E-01  5.00000000E-01  8.33333333E-02
                      -2.50000000E-01  5.00000000E-01  1.66666667E-01
                      -8.33333333E-02  0.00000000E+00  0.00000000E+00
                      -2.50000000E-01  0.00000000E+00  0.00000000E+00
                      -4.16666667E-01  0.00000000E+00  0.00000000E+00
              kpt2    -8.33333333E-02  0.00000000E+00  0.00000000E+00
                      -2.50000000E-01  0.00000000E+00  0.00000000E+00
                      -1.66666667E-01  0.00000000E+00  8.33333333E-02
                      -8.33333333E-02  0.00000000E+00  1.66666667E-01
                      -8.33333333E-02  8.33333333E-02  8.33333333E-02
                      -4.16666667E-01  0.00000000E+00  0.00000000E+00
                      -3.33333333E-01  0.00000000E+00  8.33333333E-02
                      -2.50000000E-01  0.00000000E+00  1.66666667E-01
                      -1.66666667E-01  0.00000000E+00  2.50000000E-01
                      -8.33333333E-02  0.00000000E+00  3.33333333E-01
                      -2.50000000E-01  8.33333333E-02  8.33333333E-02
                      -1.66666667E-01  8.33333333E-02  1.66666667E-01
                      -8.33333333E-02  8.33333333E-02  2.50000000E-01
                      -8.33333333E-02  1.66666667E-01  1.66666667E-01
                       5.00000000E-01  0.00000000E+00  8.33333333E-02
                      -4.16666667E-01  0.00000000E+00  1.66666667E-01
                      -3.33333333E-01  0.00000000E+00  2.50000000E-01
                      -2.50000000E-01  0.00000000E+00  3.33333333E-01
                      -1.66666667E-01  0.00000000E+00  4.16666667E-01
                      -8.33333333E-02  0.00000000E+00  5.00000000E-01
                      -4.16666667E-01  8.33333333E-02  8.33333333E-02
                      -3.33333333E-01  8.33333333E-02  1.66666667E-01
                      -2.50000000E-01  8.33333333E-02  2.50000000E-01
                      -1.66666667E-01  8.33333333E-02  3.33333333E-01
                      -8.33333333E-02  8.33333333E-02  4.16666667E-01
                      -2.50000000E-01  1.66666667E-01  1.66666667E-01
                      -1.66666667E-01  1.66666667E-01  2.50000000E-01
                      -8.33333333E-02  1.66666667E-01  3.33333333E-01
                      -8.33333333E-02  2.50000000E-01  2.50000000E-01
                       3.33333333E-01  0.00000000E+00  8.33333333E-02
                       4.16666667E-01  0.00000000E+00  1.66666667E-01
                       5.00000000E-01  0.00000000E+00  2.50000000E-01
                      -4.16666667E-01  0.00000000E+00  3.33333333E-01
                      -3.33333333E-01  0.00000000E+00  4.16666667E-01
                      -2.50000000E-01  0.00000000E+00  5.00000000E-01
                      -1.66666667E-01  0.00000000E+00 -4.16666667E-01
                      -8.33333333E-02  0.00000000E+00 -3.33333333E-01
                       4.16666667E-01  8.33333333E-02  8.33333333E-02
                       5.00000000E-01  8.33333333E-02  1.66666667E-01
                      -4.16666667E-01  8.33333333E-02  2.50000000E-01
                      -3.33333333E-01  8.33333333E-02  3.33333333E-01
                      -2.50000000E-01  8.33333333E-02  4.16666667E-01
                      -1.66666667E-01  8.33333333E-02  5.00000000E-01
                      -8.33333333E-02  8.33333333E-02 -4.16666667E-01
                      -4.16666667E-01  1.66666667E-01  1.66666667E-01
                      -3.33333333E-01  1.66666667E-01  2.50000000E-01
                      -2.50000000E-01  1.66666667E-01  3.33333333E-01
                      -1.66666667E-01  1.66666667E-01  4.16666667E-01
                      -8.33333333E-02  1.66666667E-01  5.00000000E-01
                      -2.50000000E-01  2.50000000E-01  2.50000000E-01
              kpt3    -8.33333333E-02  0.00000000E+00  0.00000000E+00
                      -2.50000000E-01  0.00000000E+00  0.00000000E+00
                      -1.66666667E-01  0.00000000E+00  8.33333333E-02
                      -8.33333333E-02  0.00000000E+00  1.66666667E-01
                      -8.33333333E-02  8.33333333E-02  8.33333333E-02
                      -4.16666667E-01  0.00000000E+00  0.00000000E+00
                      -3.33333333E-01  0.00000000E+00  8.33333333E-02
                      -2.50000000E-01  0.00000000E+00  1.66666667E-01
                      -1.66666667E-01  0.00000000E+00  2.50000000E-01
                      -8.33333333E-02  0.00000000E+00  3.33333333E-01
                      -2.50000000E-01  8.33333333E-02  8.33333333E-02
                      -1.66666667E-01  8.33333333E-02  1.66666667E-01
                      -8.33333333E-02  8.33333333E-02  2.50000000E-01
                      -8.33333333E-02  1.66666667E-01  1.66666667E-01
                       5.00000000E-01  0.00000000E+00  8.33333333E-02
                      -4.16666667E-01  0.00000000E+00  1.66666667E-01
                      -3.33333333E-01  0.00000000E+00  2.50000000E-01
                      -2.50000000E-01  0.00000000E+00  3.33333333E-01
                      -1.66666667E-01  0.00000000E+00  4.16666667E-01
                      -8.33333333E-02  0.00000000E+00  5.00000000E-01
                      -4.16666667E-01  8.33333333E-02  8.33333333E-02
                      -3.33333333E-01  8.33333333E-02  1.66666667E-01
                      -2.50000000E-01  8.33333333E-02  2.50000000E-01
                      -1.66666667E-01  8.33333333E-02  3.33333333E-01
                      -8.33333333E-02  8.33333333E-02  4.16666667E-01
                      -2.50000000E-01  1.66666667E-01  1.66666667E-01
                      -1.66666667E-01  1.66666667E-01  2.50000000E-01
                      -8.33333333E-02  1.66666667E-01  3.33333333E-01
                      -8.33333333E-02  2.50000000E-01  2.50000000E-01
                       3.33333333E-01  0.00000000E+00  8.33333333E-02
                       4.16666667E-01  0.00000000E+00  1.66666667E-01
                       5.00000000E-01  0.00000000E+00  2.50000000E-01
                      -4.16666667E-01  0.00000000E+00  3.33333333E-01
                      -3.33333333E-01  0.00000000E+00  4.16666667E-01
                      -2.50000000E-01  0.00000000E+00  5.00000000E-01
                      -1.66666667E-01  0.00000000E+00 -4.16666667E-01
                      -8.33333333E-02  0.00000000E+00 -3.33333333E-01
                       4.16666667E-01  8.33333333E-02  8.33333333E-02
                       5.00000000E-01  8.33333333E-02  1.66666667E-01
                      -4.16666667E-01  8.33333333E-02  2.50000000E-01
                      -3.33333333E-01  8.33333333E-02  3.33333333E-01
                      -2.50000000E-01  8.33333333E-02  4.16666667E-01
                      -1.66666667E-01  8.33333333E-02  5.00000000E-01
                      -8.33333333E-02  8.33333333E-02 -4.16666667E-01
                      -4.16666667E-01  1.66666667E-01  1.66666667E-01
                      -3.33333333E-01  1.66666667E-01  2.50000000E-01
                      -2.50000000E-01  1.66666667E-01  3.33333333E-01
                      -1.66666667E-01  1.66666667E-01  4.16666667E-01
                      -8.33333333E-02  1.66666667E-01  5.00000000E-01
                      -2.50000000E-01  2.50000000E-01  2.50000000E-01
                       outvar_i_n : Printing only first  50 k-points.
         kptrlatt1       6   -6    6     -6    6    6     -6   -6    6
         kptrlatt2       6   -6    6      6    6   -6     -6    6    6
         kptrlatt3       6   -6    6      6    6   -6     -6    6    6
          kptrlen1     6.32031274E+01
          kptrlen2     6.32027324E+01
          kptrlen3     6.32027324E+01
P           mkmem1         28
P           mkmem2        234
P           mkmem3        234
            natom           2
            nband1          5
            nband2          5
            nband3          5
           ndtset           3
            ngfft          12      12      12
             nkpt1         28
             nkpt2        234
             nkpt3        234
            nstep         100
             nsym1         24
             nsym2          2
             nsym3          2
           ntypat           2
              occ1     2.000000  2.000000  2.000000  2.000000  0.000000
              occ2     2.000000  2.000000  2.000000  2.000000  0.000000
              occ3     2.000000  2.000000  2.000000  2.000000  0.000000
        optforces           1
            rfdir           1       1       1
            rprim1     0.0000000000E+00  7.0710678119E-01  7.0710678119E-01
                       7.0710678119E-01  0.0000000000E+00  7.0710678119E-01
                       7.0710678119E-01  7.0710678119E-01  0.0000000000E+00
            rprim2     0.0000000000E+00  7.0710678119E-01  7.0710678119E-01
                       7.0710236181E-01  3.5355118091E-03  7.0710236181E-01
                       7.0710236181E-01  7.0710236181E-01  3.5355118091E-03
            rprim3     0.0000000000E+00  7.0710678119E-01  7.0710678119E-01
                       7.0710236181E-01 -3.5355118091E-03  7.0710236181E-01
                       7.0710236181E-01  7.0710236181E-01 -3.5355118091E-03
           shiftk1     5.00000000E-01  5.00000000E-01  5.00000000E-01
           shiftk2     5.00000000E-01 -5.00000000E-01  5.00000000E-01
           shiftk3     5.00000000E-01 -5.00000000E-01  5.00000000E-01
          spgroup1        216
          spgroup2          8
          spgroup3          8
           symafm1       1    1    1    1    1    1    1    1    1    1
                         1    1    1    1    1    1    1    1    1    1
                         1    1    1    1
           symafm2       1    1
           symafm3       1    1
           symrel1     1  0  0   0  1  0   0  0  1       0 -1  1   0 -1  0   1 -1  0
                      -1  0  0  -1  0  1  -1  1  0       0  1 -1   1  0 -1   0  0 -1
                      -1  0  0  -1  1  0  -1  0  1       0 -1  1   1 -1  0   0 -1  0
                       1  0  0   0  0  1   0  1  0       0  1 -1   0  0 -1   1  0 -1
                      -1  0  1  -1  1  0  -1  0  0       0 -1  0   1 -1  0   0 -1  1
                       1  0 -1   0  0 -1   0  1 -1       0  1  0   0  0  1   1  0  0
                       1  0 -1   0  1 -1   0  0 -1       0 -1  0   0 -1  1   1 -1  0
                      -1  0  1  -1  0  0  -1  1  0       0  1  0   1  0  0   0  0  1
                       0  0 -1   0  1 -1   1  0 -1       1 -1  0   0 -1  1   0 -1  0
                       0  0  1   1  0  0   0  1  0      -1  1  0  -1  0  0  -1  0  1
                       0  0  1   0  1  0   1  0  0       1 -1  0   0 -1  0   0 -1  1
                       0  0 -1   1  0 -1   0  1 -1      -1  1  0  -1  0  1  -1  0  0
           symrel2     1  0  0   0  1  0   0  0  1       1  0  0   0  0  1   0  1  0
           symrel3     1  0  0   0  1  0   0  0  1       1  0  0   0  0  1   0  1  0
            tnons1     0.0000000  0.0000000  0.0000000     0.0000000  0.0000000  0.0000000
                       0.0000000  0.0000000  0.0000000     0.0000000  0.0000000  0.0000000
                       0.0000000  0.0000000  0.0000000     0.0000000  0.0000000  0.0000000
                       0.0000000  0.0000000  0.0000000     0.0000000  0.0000000  0.0000000
                       0.0000000  0.0000000  0.0000000     0.0000000  0.0000000  0.0000000
                       0.0000000  0.0000000  0.0000000     0.0000000  0.0000000  0.0000000
                       0.0000000  0.0000000  0.0000000     0.0000000  0.0000000  0.0000000
                       0.0000000  0.0000000  0.0000000     0.0000000  0.0000000  0.0000000
                       0.0000000  0.0000000  0.0000000     0.0000000  0.0000000  0.0000000
                       0.0000000  0.0000000  0.0000000     0.0000000  0.0000000  0.0000000
                       0.0000000  0.0000000  0.0000000     0.0000000  0.0000000  0.0000000
                       0.0000000  0.0000000  0.0000000     0.0000000  0.0000000  0.0000000
            tnons2     0.0000000  0.0000000  0.0000000     0.0000000  0.0000000  0.0000000
            tnons3     0.0000000  0.0000000  0.0000000     0.0000000  0.0000000  0.0000000
           toldfe      1.00000000E-12 Hartree
            typat      1  2
              wtk1       0.02778    0.02778    0.02778    0.05556    0.02778    0.02778
                         0.05556    0.02778    0.05556    0.05556    0.02778    0.02778
                         0.02778    0.05556    0.02778    0.05556    0.05556    0.05556
                         0.02778    0.02778    0.02778    0.02778    0.02778    0.05556
                         0.05556    0.00926    0.00926    0.00926
              wtk2       0.00231    0.00231    0.00463    0.00463    0.00231    0.00231
                         0.00463    0.00463    0.00463    0.00463    0.00231    0.00463
                         0.00463    0.00231    0.00463    0.00463    0.00463    0.00463
                         0.00463    0.00463    0.00231    0.00463    0.00463    0.00463
                         0.00463    0.00231    0.00463    0.00463    0.00231    0.00463
                         0.00463    0.00463    0.00463    0.00463    0.00463    0.00463
                         0.00463    0.00231    0.00463    0.00463    0.00463    0.00463
                         0.00463    0.00463    0.00231    0.00463    0.00463    0.00463
                         0.00463    0.00231
              wtk3       0.00231    0.00231    0.00463    0.00463    0.00231    0.00231
                         0.00463    0.00463    0.00463    0.00463    0.00231    0.00463
                         0.00463    0.00231    0.00463    0.00463    0.00463    0.00463
                         0.00463    0.00463    0.00231    0.00463    0.00463    0.00463
                         0.00463    0.00231    0.00463    0.00463    0.00231    0.00463
                         0.00463    0.00463    0.00463    0.00463    0.00463    0.00463
                         0.00463    0.00231    0.00463    0.00463    0.00463    0.00463
                         0.00463    0.00463    0.00231    0.00463    0.00463    0.00463
                         0.00463    0.00231
                       outvars : Printing only first  50 k-points.
           xangst1     0.0000000000E+00  0.0000000000E+00  0.0000000000E+00
                       1.3935689396E+00  1.3935689396E+00  1.3935689396E+00
           xangst2     0.0000000000E+00  0.0000000000E+00  0.0000000000E+00
                       1.3935602298E+00  1.4005324076E+00  1.4005324076E+00
           xangst3     0.0000000000E+00  0.0000000000E+00  0.0000000000E+00
                       1.3935602298E+00  1.3865967618E+00  1.3865967618E+00
            xcart1     0.0000000000E+00  0.0000000000E+00  0.0000000000E+00
                       2.6334636431E+00  2.6334636431E+00  2.6334636431E+00
            xcart2     0.0000000000E+00  0.0000000000E+00  0.0000000000E+00
                       2.6334471840E+00  2.6466226906E+00  2.6466226906E+00
            xcart3     0.0000000000E+00  0.0000000000E+00  0.0000000000E+00
                       2.6334471840E+00  2.6202881365E+00  2.6202881365E+00
             xred      0.0000000000E+00  0.0000000000E+00  0.0000000000E+00
                       2.5000000000E-01  2.5000000000E-01  2.5000000000E-01
            znucl       13.00000   33.00000

================================================================================

 chkinp: Checking input parameters for consistency, jdtset=   1.

 chkinp: Checking input parameters for consistency, jdtset=   2.

 chkinp: Checking input parameters for consistency, jdtset=   3.

================================================================================
== DATASET  1 ==================================================================
-   nproc =    1

 Exchange-correlation functional for the present dataset will be:
  LDA: old Teter (4/91) fit to Ceperley-Alder data - ixc=3

 Real(R)+Recip(G) space primitive vectors, cartesian coordinates (Bohr,Bohr^-1):
 R(1)=  0.0000000  5.2669273  5.2669273  G(1)= -0.0949320  0.0949320  0.0949320
 R(2)=  5.2669273  0.0000000  5.2669273  G(2)=  0.0949320 -0.0949320  0.0949320
 R(3)=  5.2669273  5.2669273  0.0000000  G(3)=  0.0949320  0.0949320 -0.0949320
 Unit cell volume ucvol=  2.9221464E+02 bohr^3
 Angles (23,13,12)=  6.00000000E+01  6.00000000E+01  6.00000000E+01 degrees

 getcut: wavevector=  0.0000  0.0000  0.0000  ngfft=  12  12  12
         ecut(hartree)=      3.087   => boxcut(ratio)=   2.03693

--- Pseudopotential description ------------------------------------------------
- pspini: atom type   1  psp file is /data/ABINIT/testf_gcc47/trunk_7.10.4-training/tests/Psps_for_tests/13al.pspnc
- pspatm: opening atomic psp file    /data/ABINIT/testf_gcc47/trunk_7.10.4-training/tests/Psps_for_tests/13al.pspnc
-  Troullier-Martins psp for element  Al        Thu Oct 27 17:31:05 EDT 1994
- 13.00000   3.00000    940714                znucl, zion, pspdat
    1    1    2    2      2001   0.00000      pspcod,pspxc,lmax,lloc,mmax,r2well
    0   4.657  11.889    1   2.2761078        l,e99.0,e99.9,nproj,rcpsp
   0.00000000   0.00000000   0.00000000   0.00000000     rms, ekb1, ekb2, epsatm
    1   1.829   2.761    1   2.2761078        l,e99.0,e99.9,nproj,rcpsp
   0.00000000   0.00000000   0.00000000   0.00000000     rms, ekb1, ekb2, epsatm
    2   0.000   0.000    0   2.2761078        l,e99.0,e99.9,nproj,rcpsp
   0.00000000   0.00000000   0.00000000   0.00000000     rms, ekb1, ekb2, epsatm
    2.09673076353074    0.12648111154518    1.01742091001718   rchrg,fchrg,qchrg
 pspatm: epsatm=    0.22155260
         --- l  ekb(1:nproj) -->
             0    2.540658
             1    1.353815
 pspatm: atomic psp has been read  and splines computed

- pspini: atom type   2  psp file is /data/ABINIT/testf_gcc47/trunk_7.10.4-training/tests/Psps_for_tests/33as.pspnc
- pspatm: opening atomic psp file    /data/ABINIT/testf_gcc47/trunk_7.10.4-training/tests/Psps_for_tests/33as.pspnc
-  Troullier-Martins psp for element  As        Thu Oct 27 17:37:14 EDT 1994
- 33.00000   5.00000    940714                znucl, zion, pspdat
    1    1    1    1      2001   0.00000      pspcod,pspxc,lmax,lloc,mmax,r2well
    0   4.772  10.829    1   2.5306160        l,e99.0,e99.9,nproj,rcpsp
   0.00000000   0.00000000   0.00000000   0.00000000     rms, ekb1, ekb2, epsatm
    1   2.745   5.580    0   2.5306160        l,e99.0,e99.9,nproj,rcpsp
   0.00000000   0.00000000   0.00000000   0.00000000     rms, ekb1, ekb2, epsatm
    2.05731715564010    0.36322996461007    2.76014815959125   rchrg,fchrg,qchrg
 pspatm: epsatm=   27.20579911
         --- l  ekb(1:nproj) -->
             0    0.838751
 pspatm: atomic psp has been read  and splines computed

   2.19418814E+02                                ecore*ucvol(ha*bohr**3)
--------------------------------------------------------------------------------

P newkpt: treating      5 bands with npw=      68 for ikpt=   1 by node    0
P newkpt: treating      5 bands with npw=      74 for ikpt=   2 by node    0
P newkpt: treating      5 bands with npw=      74 for ikpt=   3 by node    0
P newkpt: treating      5 bands with npw=      73 for ikpt=   4 by node    0
P newkpt: treating      5 bands with npw=      74 for ikpt=   5 by node    0
P newkpt: treating      5 bands with npw=      75 for ikpt=   6 by node    0
P newkpt: treating      5 bands with npw=      76 for ikpt=   7 by node    0
P newkpt: treating      5 bands with npw=      77 for ikpt=   8 by node    0
P newkpt: treating      5 bands with npw=      77 for ikpt=   9 by node    0
P newkpt: treating      5 bands with npw=      75 for ikpt=  10 by node    0
P newkpt: treating      5 bands with npw=      74 for ikpt=  11 by node    0
P newkpt: treating      5 bands with npw=      79 for ikpt=  12 by node    0
P newkpt: treating      5 bands with npw=      77 for ikpt=  13 by node    0
P newkpt: treating      5 bands with npw=      78 for ikpt=  14 by node    0
P newkpt: treating      5 bands with npw=      79 for ikpt=  15 by node    0
P newkpt: treating      5 bands with npw=      80 for ikpt=  16 by node    0
P newkpt: treating      5 bands with npw=      77 for ikpt=  17 by node    0
P newkpt: treating      5 bands with npw=      77 for ikpt=  18 by node    0
P newkpt: treating      5 bands with npw=      69 for ikpt=  19 by node    0
P newkpt: treating      5 bands with npw=      75 for ikpt=  20 by node    0
P newkpt: treating      5 bands with npw=      75 for ikpt=  21 by node    0
P newkpt: treating      5 bands with npw=      74 for ikpt=  22 by node    0
P newkpt: treating      5 bands with npw=      75 for ikpt=  23 by node    0
P newkpt: treating      5 bands with npw=      77 for ikpt=  24 by node    0
P newkpt: treating      5 bands with npw=      76 for ikpt=  25 by node    0
P newkpt: treating      5 bands with npw=      65 for ikpt=  26 by node    0
P newkpt: treating      5 bands with npw=      74 for ikpt=  27 by node    0
P newkpt: treating      5 bands with npw=      73 for ikpt=  28 by node    0

_setup2: Arith. and geom. avg. npw (full set) are      75.602      75.552
  initberry: for direction 1, nkstr =   6, nstr =    144
  initberry: for direction 2, nkstr =   6, nstr =    144
  initberry: for direction 3, nkstr =   6, nstr =    144

================================================================================

     iter   Etot(hartree)      deltaE(h)  residm     vres2    diffor    maxfor
 ETOT  1  -10.081665077715    -1.008E+01 8.646E-03 9.285E-01 1.997E-31 1.997E-31
 ETOT  2  -10.085672415162    -4.007E-03 2.792E-05 2.460E-02 1.997E-31 0.000E+00
 ETOT  3  -10.085763952230    -9.154E-05 7.835E-06 1.965E-03 1.001E-29 1.001E-29
 ETOT  4  -10.085769493831    -5.542E-06 3.835E-07 1.248E-04 1.001E-29 0.000E+00
 ETOT  5  -10.085768956073     5.378E-07 5.276E-08 3.152E-04 1.488E-28 1.488E-28
 ETOT  6  -10.085769655964    -6.999E-07 9.445E-08 4.460E-05 1.504E-28 7.988E-30
 ETOT  7  -10.085769739511    -8.355E-08 4.487E-09 2.740E-06 1.118E-29 9.586E-30
 ETOT  8  -10.085769744894    -5.383E-09 6.843E-10 2.217E-07 9.286E-30 4.993E-31
 ETOT  9  -10.085769745273    -3.795E-10 1.936E-10 3.315E-09 4.993E-31 7.988E-31
 ETOT 10  -10.085769745279    -5.173E-12 1.562E-11 4.855E-10 7.988E-31 0.000E+00
 ETOT 11  -10.085769745279    -3.553E-14 3.457E-12 3.914E-10 0.000E+00 0.000E+00
 ETOT 12  -10.085769745279    -7.372E-13 2.813E-13 4.108E-11 0.000E+00 0.000E+00

 At SCF step   12, etot is converged : 
  for the second time, diff in etot=  7.372E-13 < toldfe=  1.000E-12

 Computing the polarization (Berry phase) for reciprocal vector:
  0.16667  0.00000  0.00000 (in reduced coordinates)
 -0.01582  0.01582  0.01582 (in cartesian coordinates - atomic units)
 Number of strings:   144
 Number of k points in string:    6

 Summary of the results
 Electronic Berry phase     2.032004170E-03
            Ionic phase    -7.500000000E-01
            Total phase    -7.479679958E-01
    Remapping in [-1,1]    -7.479679958E-01

           Polarization    -1.556710099E-02 (a.u. of charge)/bohr^2
           Polarization    -8.906679703E-01 C/m^2


 Computing the polarization (Berry phase) for reciprocal vector:
  0.00000  0.16667  0.00000 (in reduced coordinates)
  0.01582 -0.01582  0.01582 (in cartesian coordinates - atomic units)
 Number of strings:   144
 Number of k points in string:    6

 Summary of the results
 Electronic Berry phase     2.032004170E-03
            Ionic phase    -7.500000000E-01
            Total phase    -7.479679958E-01
    Remapping in [-1,1]    -7.479679958E-01

           Polarization    -1.556710099E-02 (a.u. of charge)/bohr^2
           Polarization    -8.906679703E-01 C/m^2


 Computing the polarization (Berry phase) for reciprocal vector:
  0.00000  0.00000  0.16667 (in reduced coordinates)
  0.01582  0.01582 -0.01582 (in cartesian coordinates - atomic units)
 Number of strings:   144
 Number of k points in string:    6

 Summary of the results
 Electronic Berry phase     2.032004170E-03
            Ionic phase    -7.500000000E-01
            Total phase    -7.479679958E-01
    Remapping in [-1,1]    -7.479679958E-01

           Polarization    -1.556710099E-02 (a.u. of charge)/bohr^2
           Polarization    -8.906679703E-01 C/m^2


 Polarization in cartesian coordinates (a.u.):
 (the sum of the electronic and ionic Berry phase has been folded into [-1, 1])
     Electronic berry phase:        0.732503914E-04   0.732503914E-04   0.732503914E-04
     Ionic:                        -0.270362602E-01  -0.270362602E-01  -0.270362602E-01  
     Total:                        -0.269630098E-01  -0.269630098E-01  -0.269630098E-01

 Polarization in cartesian coordinates (C/m^2):
 (the sum of the electronic and ionic Berry phase has been folded into [-1, 1])
     Electronic berry phase:        0.419100367E-02   0.419100367E-02   0.419100367E-02
     Ionic:                        -0.154687318E+01  -0.154687318E+01  -0.154687318E+01  
     Total:                        -0.154268218E+01  -0.154268218E+01  -0.154268218E+01

 Cartesian components of stress tensor (hartree/bohr^3)
  sigma(1 1)= -7.88793319E-10  sigma(3 2)=  0.00000000E+00
  sigma(2 2)= -7.88793318E-10  sigma(3 1)=  0.00000000E+00
  sigma(3 3)= -7.88793318E-10  sigma(2 1)=  0.00000000E+00

================================================================================

 ----iterations are completed or convergence reached----

 Mean square residual over all n,k,spin=   6.8910E-15; max=  2.8133E-13
  -0.0833 -0.1667  0.0000    1  2.81328E-13 kpt; spin; max resid(k); each band:
  1.03E-14 4.50E-15 2.39E-17 7.05E-16 2.81E-13
  -0.0833 -0.3333  0.0000    1  8.97640E-15 kpt; spin; max resid(k); each band:
  8.98E-15 4.60E-15 1.41E-17 1.05E-15 8.52E-15
  -0.1667 -0.2500  0.0000    1  6.16934E-15 kpt; spin; max resid(k); each band:
  4.51E-15 5.26E-15 1.23E-15 1.11E-17 6.17E-15
  -0.0833 -0.2500  0.0833    1  1.52620E-14 kpt; spin; max resid(k); each band:
  7.06E-15 4.52E-15 7.73E-16 1.32E-15 1.53E-14
  -0.0833  0.5000  0.0000    1  8.27992E-15 kpt; spin; max resid(k); each band:
  6.60E-15 2.94E-15 9.68E-16 1.40E-17 8.28E-15
  -0.1667 -0.4167  0.0000    1  8.97142E-15 kpt; spin; max resid(k); each band:
  5.88E-15 3.70E-15 4.50E-15 1.68E-16 8.97E-15
  -0.0833 -0.4167  0.0833    1  1.70814E-14 kpt; spin; max resid(k); each band:
  6.59E-15 2.90E-15 1.29E-15 1.09E-15 1.71E-14
  -0.2500 -0.3333  0.0000    1  8.02552E-15 kpt; spin; max resid(k); each band:
  4.29E-15 4.88E-15 1.69E-15 1.40E-16 8.03E-15
  -0.1667 -0.3333  0.0833    1  9.40000E-15 kpt; spin; max resid(k); each band:
  4.80E-15 4.02E-15 2.42E-15 2.61E-15 9.40E-15
  -0.0833 -0.3333  0.1667    1  2.41990E-14 kpt; spin; max resid(k); each band:
  4.06E-15 3.35E-15 6.49E-15 1.33E-15 2.42E-14
  -0.0833  0.3333  0.0000    1  8.17358E-15 kpt; spin; max resid(k); each band:
  8.17E-15 4.04E-15 8.07E-16 1.43E-17 8.10E-15
  -0.1667  0.4167  0.0000    1  1.03164E-14 kpt; spin; max resid(k); each band:
  4.20E-15 3.11E-15 4.99E-15 1.34E-16 1.03E-14
  -0.2500  0.5000  0.0000    1  1.05962E-14 kpt; spin; max resid(k); each band:
  3.95E-15 3.29E-15 7.28E-15 1.09E-16 1.06E-14
  -0.1667  0.5000  0.0833    1  1.10494E-14 kpt; spin; max resid(k); each band:
  3.49E-15 2.80E-15 6.41E-15 1.65E-15 1.10E-14
  -0.3333 -0.4167  0.0000    1  8.23531E-15 kpt; spin; max resid(k); each band:
  4.26E-15 3.30E-15 2.12E-15 8.65E-17 8.24E-15
  -0.2500 -0.4167  0.0833    1  1.09128E-14 kpt; spin; max resid(k); each band:
  4.11E-15 3.26E-15 4.38E-15 2.37E-15 1.09E-14
  -0.1667 -0.4167  0.1667    1  1.40901E-14 kpt; spin; max resid(k); each band:
  2.50E-15 2.14E-15 5.88E-15 5.60E-15 1.41E-14
  -0.0833 -0.4167  0.2500    1  1.14914E-14 kpt; spin; max resid(k); each band:
  2.19E-15 1.71E-15 9.62E-15 1.44E-15 1.15E-14
  -0.0833  0.1667  0.0000    1  1.16032E-14 kpt; spin; max resid(k); each band:
  1.16E-14 4.47E-15 6.48E-16 2.03E-17 9.33E-15
  -0.1667  0.2500  0.0000    1  1.14205E-14 kpt; spin; max resid(k); each band:
  6.83E-15 4.11E-15 4.05E-15 1.20E-17 1.14E-14
  -0.2500  0.3333  0.0000    1  1.08219E-14 kpt; spin; max resid(k); each band:
  3.09E-15 3.00E-15 8.80E-15 1.02E-16 1.08E-14
  -0.3333  0.4167  0.0000    1  1.17239E-14 kpt; spin; max resid(k); each band:
  2.53E-15 1.97E-15 8.91E-15 6.54E-17 1.17E-14
  -0.4167  0.5000  0.0000    1  8.52172E-15 kpt; spin; max resid(k); each band:
  4.01E-15 1.26E-15 2.46E-15 4.36E-17 8.52E-15
  -0.3333  0.5000  0.0833    1  1.20065E-14 kpt; spin; max resid(k); each band:
  3.05E-15 2.16E-15 5.85E-15 1.96E-15 1.20E-14
  -0.2500  0.5000  0.1667    1  1.35346E-14 kpt; spin; max resid(k); each band:
  1.69E-15 9.36E-16 7.26E-15 5.32E-15 1.35E-14
  -0.0833  0.0000  0.0000    1  1.72177E-14 kpt; spin; max resid(k); each band:
  1.72E-14 2.90E-15 4.61E-17 4.61E-17 1.57E-14
  -0.2500  0.0000  0.0000    1  1.03345E-14 kpt; spin; max resid(k); each band:
  1.03E-14 4.51E-15 2.13E-17 2.13E-17 8.48E-15
  -0.4167  0.0000  0.0000    1  7.82840E-15 kpt; spin; max resid(k); each band:
  7.47E-15 3.57E-15 1.58E-17 1.58E-17 7.83E-15
 reduced coordinates (array xred) for    2 atoms
       0.000000000000      0.000000000000      0.000000000000
       0.250000000000      0.250000000000      0.250000000000
 rms dE/dt=  0.0000E+00; max dE/dt=  0.0000E+00; dE/dt below (all hartree)
    1       0.000000000000      0.000000000000      0.000000000000
    2       0.000000000000      0.000000000000      0.000000000000

 cartesian coordinates (angstrom) at end:
    1      0.00000000000000     0.00000000000000     0.00000000000000
    2      1.39356893955261     1.39356893955261     1.39356893955261

 cartesian forces (hartree/bohr) at end:
    1     -0.00000000000000    -0.00000000000000    -0.00000000000000
    2     -0.00000000000000    -0.00000000000000    -0.00000000000000
 frms,max,avg= 0.0000000E+00 0.0000000E+00   0.000E+00  0.000E+00  0.000E+00 h/b

 cartesian forces (eV/Angstrom) at end:
    1     -0.00000000000000    -0.00000000000000    -0.00000000000000
    2     -0.00000000000000    -0.00000000000000    -0.00000000000000
 frms,max,avg= 0.0000000E+00 0.0000000E+00   0.000E+00  0.000E+00  0.000E+00 e/A
 length scales=  7.448560000000  7.448560000000  7.448560000000 bohr
              =  3.941608188815  3.941608188815  3.941608188815 angstroms
 prteigrs : about to open file tffield_4o_DS1_EIG
 Fermi (or HOMO) energy (hartree) =   0.09055   Average Vxc (hartree)=  -0.34847
 Eigenvalues (hartree) for nkpt=  28  k points:
 kpt#   1, nband=  5, wtk=  0.02778, kpt= -0.0833 -0.1667  0.0000 (reduced coord)
  -0.34045   0.02813   0.07395   0.07828   0.22106
 kpt#   2, nband=  5, wtk=  0.02778, kpt= -0.0833 -0.3333  0.0000 (reduced coord)
  -0.31627  -0.06164   0.05874   0.05993   0.20434
 kpt#   3, nband=  5, wtk=  0.02778, kpt= -0.1667 -0.2500  0.0000 (reduced coord)
  -0.32707  -0.01117   0.05196   0.05242   0.20295
 kpt#   4, nband=  5, wtk=  0.05556, kpt= -0.0833 -0.2500  0.0833 (reduced coord)
  -0.32137  -0.03551   0.03392   0.06843   0.22599
 kpt#   5, nband=  5, wtk=  0.02778, kpt= -0.0833  0.5000  0.0000 (reduced coord)
  -0.29352  -0.11372   0.04513   0.05727   0.19454
 kpt#   6, nband=  5, wtk=  0.02778, kpt= -0.1667 -0.4167  0.0000 (reduced coord)
  -0.30065  -0.08223   0.02462   0.04308   0.20234
 kpt#   7, nband=  5, wtk=  0.05556, kpt= -0.0833 -0.4167  0.0833 (reduced coord)
  -0.29479  -0.10011   0.02001   0.05191   0.21628
 kpt#   8, nband=  5, wtk=  0.02778, kpt= -0.2500 -0.3333  0.0000 (reduced coord)
  -0.30841  -0.04767   0.02721   0.03330   0.17929
 kpt#   9, nband=  5, wtk=  0.05556, kpt= -0.1667 -0.3333  0.0833 (reduced coord)
  -0.30407  -0.06283   0.01120   0.04082   0.20716
 kpt#  10, nband=  5, wtk=  0.05556, kpt= -0.0833 -0.3333  0.1667 (reduced coord)
  -0.29601  -0.08032  -0.01071   0.04905   0.23412
 kpt#  11, nband=  5, wtk=  0.02778, kpt= -0.0833  0.3333  0.0000 (reduced coord)
  -0.30673  -0.08559   0.04275   0.06828   0.20055
 kpt#  12, nband=  5, wtk=  0.02778, kpt= -0.1667  0.4167  0.0000 (reduced coord)
  -0.28850  -0.10766   0.00578   0.05036   0.20624
 kpt#  13, nband=  5, wtk=  0.02778, kpt= -0.2500  0.5000  0.0000 (reduced coord)
  -0.28482  -0.09393  -0.01202   0.03086   0.18353
 kpt#  14, nband=  5, wtk=  0.05556, kpt= -0.1667  0.5000  0.0833 (reduced coord)
  -0.28385  -0.10246  -0.01036   0.03345   0.21218
 kpt#  15, nband=  5, wtk=  0.02778, kpt= -0.3333 -0.4167  0.0000 (reduced coord)
  -0.28847  -0.08099   0.00881   0.01915   0.15967
 kpt#  16, nband=  5, wtk=  0.05556, kpt= -0.2500 -0.4167  0.0833 (reduced coord)
  -0.28590  -0.08498  -0.00820   0.01784   0.18769
 kpt#  17, nband=  5, wtk=  0.05556, kpt= -0.1667 -0.4167  0.1667 (reduced coord)
  -0.28176  -0.09102  -0.02577   0.01816   0.23611
 kpt#  18, nband=  5, wtk=  0.05556, kpt= -0.0833 -0.4167  0.2500 (reduced coord)
  -0.27749  -0.09520  -0.03787   0.02437   0.20336
 kpt#  19, nband=  5, wtk=  0.02778, kpt= -0.0833  0.1667  0.0000 (reduced coord)
  -0.33404  -0.00371   0.05766   0.08548   0.21760
 kpt#  20, nband=  5, wtk=  0.02778, kpt= -0.1667  0.2500  0.0000 (reduced coord)
  -0.31040  -0.06091   0.01028   0.07038   0.22852
 kpt#  21, nband=  5, wtk=  0.02778, kpt= -0.2500  0.3333  0.0000 (reduced coord)
  -0.28621  -0.09193  -0.02895   0.04630   0.20249
 kpt#  22, nband=  5, wtk=  0.02778, kpt= -0.3333  0.4167  0.0000 (reduced coord)
  -0.27437  -0.09717  -0.03677   0.02437   0.17210
 kpt#  23, nband=  5, wtk=  0.02778, kpt= -0.4167  0.5000  0.0000 (reduced coord)
  -0.27410  -0.10320  -0.00107   0.01142   0.14810
 kpt#  24, nband=  5, wtk=  0.05556, kpt= -0.3333  0.5000  0.0833 (reduced coord)
  -0.27321  -0.09885  -0.02044   0.00611   0.17658
 kpt#  25, nband=  5, wtk=  0.05556, kpt= -0.2500  0.5000  0.1667 (reduced coord)
  -0.27269  -0.09411  -0.03345  -0.00423   0.22818
 kpt#  26, nband=  5, wtk=  0.00926, kpt= -0.0833  0.0000  0.0000 (reduced coord)
  -0.34717   0.06505   0.09055   0.09055   0.20066
 kpt#  27, nband=  5, wtk=  0.00926, kpt= -0.2500  0.0000  0.0000 (reduced coord)
  -0.32800  -0.03344   0.07464   0.07464   0.19452
 kpt#  28, nband=  5, wtk=  0.00926, kpt= -0.4167  0.0000  0.0000 (reduced coord)
  -0.30036  -0.10572   0.06395   0.06395   0.17951
 Total charge density [el/Bohr^3]
,     Maximum=    9.1388E-02  at reduced coord.    0.1667    0.1667    0.5000
,Next maximum=    9.1388E-02  at reduced coord.    0.1667    0.5000    0.1667
,     Minimum=    3.1485E-03  at reduced coord.    0.7500    0.7500    0.7500
,Next minimum=    3.4934E-03  at reduced coord.    0.5000    0.5000    0.5000
,  Integrated=    8.0000E+00

--------------------------------------------------------------------------------
 Components of total free energy (in Hartree) :

    Kinetic energy  =  2.91759358467112E+00
    Hartree energy  =  7.61530751659820E-01
    XC energy       = -4.34890933247990E+00
    Ewald energy    = -8.54119393747757E+00
    PspCore energy  =  7.50882355150384E-01
    Loc. psp. energy= -2.29452098270221E+00
    NL   psp  energy=  6.68847815898994E-01
    >>>>>>>>> Etotal= -1.00857697452794E+01

 Other information on the energy :
    Total energy(eV)= -2.74447752062371E+02 ; Band energy (Ha)=  -6.5056925034E-01
--------------------------------------------------------------------------------

 Cartesian components of stress tensor (hartree/bohr^3)
  sigma(1 1)= -7.88793319E-10  sigma(3 2)=  0.00000000E+00
  sigma(2 2)= -7.88793318E-10  sigma(3 1)=  0.00000000E+00
  sigma(3 3)= -7.88793318E-10  sigma(2 1)=  0.00000000E+00

-Cartesian components of stress tensor (GPa)         [Pressure=  2.3207E-05 GPa]
- sigma(1 1)= -2.32070968E-05  sigma(3 2)=  0.00000000E+00
- sigma(2 2)= -2.32070967E-05  sigma(3 1)=  0.00000000E+00
- sigma(3 3)= -2.32070967E-05  sigma(2 1)=  0.00000000E+00

================================================================================
== DATASET  2 ==================================================================
-   nproc =    1

 Exchange-correlation functional for the present dataset will be:
  LDA: old Teter (4/91) fit to Ceperley-Alder data - ixc=3

 Real(R)+Recip(G) space primitive vectors, cartesian coordinates (Bohr,Bohr^-1):
 R(1)=  0.0000000  5.2932619  5.2932619  G(1)= -0.0949320  0.0944597  0.0944597
 R(2)=  5.2668944  0.0263345  5.2668944  G(2)=  0.0949326 -0.0954097  0.0954097
 R(3)=  5.2668944  5.2668944  0.0263345  G(3)=  0.0949326  0.0954097 -0.0954097
 Unit cell volume ucvol=  2.9220368E+02 bohr^3
 Angles (23,13,12)=  5.96690667E+01  5.98346712E+01  5.98346712E+01 degrees

 getcut: wavevector=  0.0000  0.0000  0.0000  ngfft=  12  12  12
         ecut(hartree)=      3.087   => boxcut(ratio)=   2.02679
--------------------------------------------------------------------------------

P newkpt: treating      5 bands with npw=      65 for ikpt=   1 by node    0
P newkpt: treating      5 bands with npw=      74 for ikpt=   2 by node    0
P newkpt: treating      5 bands with npw=      69 for ikpt=   3 by node    0
P newkpt: treating      5 bands with npw=      69 for ikpt=   4 by node    0
P newkpt: treating      5 bands with npw=      68 for ikpt=   5 by node    0
P newkpt: treating      5 bands with npw=      73 for ikpt=   6 by node    0
P newkpt: treating      5 bands with npw=      74 for ikpt=   7 by node    0
P newkpt: treating      5 bands with npw=      76 for ikpt=   8 by node    0
P newkpt: treating      5 bands with npw=      76 for ikpt=   9 by node    0
P newkpt: treating      5 bands with npw=      74 for ikpt=  10 by node    0
P newkpt: treating      5 bands with npw=      74 for ikpt=  11 by node    0
P newkpt: treating      5 bands with npw=      73 for ikpt=  12 by node    0
P newkpt: treating      5 bands with npw=      74 for ikpt=  13 by node    0
P newkpt: treating      5 bands with npw=      77 for ikpt=  14 by node    0
P newkpt: treating      5 bands with npw=      76 for ikpt=  15 by node    0
P newkpt: treating      5 bands with npw=      79 for ikpt=  16 by node    0
P newkpt: treating      5 bands with npw=      78 for ikpt=  17 by node    0
P newkpt: treating      5 bands with npw=      75 for ikpt=  18 by node    0
P newkpt: treating      5 bands with npw=      79 for ikpt=  19 by node    0
P newkpt: treating      5 bands with npw=      74 for ikpt=  20 by node    0
P newkpt: treating      5 bands with npw=      76 for ikpt=  21 by node    0
P newkpt: treating      5 bands with npw=      76 for ikpt=  22 by node    0
P newkpt: treating      5 bands with npw=      76 for ikpt=  23 by node    0
P newkpt: treating      5 bands with npw=      75 for ikpt=  24 by node    0
P newkpt: treating      5 bands with npw=      77 for ikpt=  25 by node    0
P newkpt: treating      5 bands with npw=      77 for ikpt=  26 by node    0
P newkpt: treating      5 bands with npw=      76 for ikpt=  27 by node    0
P newkpt: treating      5 bands with npw=      77 for ikpt=  28 by node    0
P newkpt: treating      5 bands with npw=      77 for ikpt=  29 by node    0
P newkpt: treating      5 bands with npw=      74 for ikpt=  30 by node    0
P newkpt: treating      5 bands with npw=      75 for ikpt=  31 by node    0
P newkpt: treating      5 bands with npw=      77 for ikpt=  32 by node    0
P newkpt: treating      5 bands with npw=      74 for ikpt=  33 by node    0
P newkpt: treating      5 bands with npw=      74 for ikpt=  34 by node    0
P newkpt: treating      5 bands with npw=      77 for ikpt=  35 by node    0
P newkpt: treating      5 bands with npw=      75 for ikpt=  36 by node    0
P newkpt: treating      5 bands with npw=      74 for ikpt=  37 by node    0
P newkpt: treating      5 bands with npw=      74 for ikpt=  38 by node    0
P newkpt: treating      5 bands with npw=      76 for ikpt=  39 by node    0
P newkpt: treating      5 bands with npw=      76 for ikpt=  40 by node    0
P newkpt: treating      5 bands with npw=      78 for ikpt=  41 by node    0
P newkpt: treating      5 bands with npw=      77 for ikpt=  42 by node    0
P newkpt: treating      5 bands with npw=      78 for ikpt=  43 by node    0
P newkpt: treating      5 bands with npw=      76 for ikpt=  44 by node    0
P newkpt: treating      5 bands with npw=      79 for ikpt=  45 by node    0
P newkpt: treating      5 bands with npw=      78 for ikpt=  46 by node    0
P newkpt: treating      5 bands with npw=      77 for ikpt=  47 by node    0
P newkpt: treating      5 bands with npw=      78 for ikpt=  48 by node    0
P newkpt: treating      5 bands with npw=      77 for ikpt=  49 by node    0
P newkpt: treating      5 bands with npw=      77 for ikpt=  50 by node    0
 newkpt: prtvol=0 or 1, do not print more k-points.

_setup2: Arith. and geom. avg. npw (full set) are      75.810      75.758
  initberry: for direction 1, nkstr =   6, nstr =    144
  initberry: for direction 2, nkstr =   6, nstr =    144
  initberry: for direction 3, nkstr =   6, nstr =    144

================================================================================

     iter   Etot(hartree)      deltaE(h)  residm     vres2    diffor    maxfor
 ETOT  1  -10.081563200487    -1.008E+01 1.834E-02 9.316E-01 8.858E-04 8.858E-04
 ETOT  2  -10.085628410986    -4.065E-03 4.346E-03 2.472E-02 8.128E-04 1.699E-03
 ETOT  3  -10.085720486350    -9.208E-05 8.417E-04 1.974E-03 5.230E-05 1.751E-03
 ETOT  4  -10.085726083732    -5.597E-06 8.217E-06 1.251E-04 1.993E-06 1.749E-03
 ETOT  5  -10.085725541887     5.418E-07 1.933E-06 3.177E-04 2.341E-06 1.747E-03
 ETOT  6  -10.085726245678    -7.038E-07 1.936E-07 4.510E-05 4.303E-06 1.751E-03
 ETOT  7  -10.085726330021    -8.434E-08 1.575E-08 2.753E-06 7.710E-07 1.752E-03
 ETOT  8  -10.085726335467    -5.446E-09 4.380E-09 2.216E-07 5.703E-07 1.751E-03
 ETOT  9  -10.085726335847    -3.800E-10 4.526E-10 3.373E-09 1.000E-07 1.751E-03
 ETOT 10  -10.085726335852    -5.308E-12 2.233E-10 4.955E-10 1.075E-08 1.751E-03
 ETOT 11  -10.085726335852    -4.441E-14 1.379E-11 4.048E-10 7.659E-10 1.751E-03
 ETOT 12  -10.085726335853    -7.461E-13 1.059E-11 4.292E-11 3.429E-09 1.751E-03

 At SCF step   12, etot is converged : 
  for the second time, diff in etot=  7.461E-13 < toldfe=  1.000E-12

 Computing the polarization (Berry phase) for reciprocal vector:
  0.16667  0.00000  0.00000 (in reduced coordinates)
 -0.01582  0.01574  0.01574 (in cartesian coordinates - atomic units)
 Number of strings:   144
 Number of k points in string:    6

 Summary of the results
 Electronic Berry phase     5.184589481E-03
            Ionic phase    -7.500000000E-01
            Total phase    -7.448154105E-01
    Remapping in [-1,1]    -7.448154105E-01

           Polarization    -1.555361358E-02 (a.u. of charge)/bohr^2
           Polarization    -8.898962913E-01 C/m^2


 Computing the polarization (Berry phase) for reciprocal vector:
  0.00000  0.16667  0.00000 (in reduced coordinates)
  0.01582 -0.01590  0.01590 (in cartesian coordinates - atomic units)
 Number of strings:   144
 Number of k points in string:    6

 Summary of the results
 Electronic Berry phase    -1.116147445E-03
            Ionic phase    -7.500000000E-01
            Total phase    -7.511161474E-01
    Remapping in [-1,1]    -7.511161474E-01

           Polarization    -1.558086971E-02 (a.u. of charge)/bohr^2
           Polarization    -8.914557443E-01 C/m^2


 Computing the polarization (Berry phase) for reciprocal vector:
  0.00000  0.00000  0.16667 (in reduced coordinates)
  0.01582  0.01590 -0.01590 (in cartesian coordinates - atomic units)
 Number of strings:   144
 Number of k points in string:    6

 Summary of the results
 Electronic Berry phase    -1.116147445E-03
            Ionic phase    -7.500000000E-01
            Total phase    -7.511161474E-01
    Remapping in [-1,1]    -7.511161474E-01

           Polarization    -1.558086971E-02 (a.u. of charge)/bohr^2
           Polarization    -8.914557443E-01 C/m^2


 Polarization in cartesian coordinates (a.u.):
 (the sum of the electronic and ionic Berry phase has been folded into [-1, 1])
     Electronic berry phase:       -0.402365278E-04   0.736998467E-04   0.736998467E-04
     Ionic:                        -0.270371051E-01  -0.271723756E-01  -0.271723756E-01  
     Total:                        -0.270773417E-01  -0.270986757E-01  -0.270986757E-01

 Polarization in cartesian coordinates (C/m^2):
 (the sum of the electronic and ionic Berry phase has been folded into [-1, 1])
     Electronic berry phase:       -0.230212334E-02   0.421671915E-02   0.421671915E-02
     Ionic:                        -0.154692152E+01  -0.155466099E+01  -0.155466099E+01  
     Total:                        -0.154922365E+01  -0.155044427E+01  -0.155044427E+01

 Cartesian components of stress tensor (hartree/bohr^3)
  sigma(1 1)= -3.80582098E-07  sigma(3 2)=  2.97306022E-05
  sigma(2 2)= -5.18786251E-07  sigma(3 1)= -9.05863587E-09
  sigma(3 3)= -5.18786251E-07  sigma(2 1)= -9.05863587E-09

================================================================================

 ----iterations are completed or convergence reached----

 Mean square residual over all n,k,spin=   2.0794E-14; max=  1.0591E-11
  -0.0833  0.0000  0.0000    1  1.73744E-14 kpt; spin; max resid(k); each band:
  1.74E-14 2.93E-15 6.09E-17 4.64E-17 1.58E-14
  -0.2500  0.0000  0.0000    1  1.02703E-14 kpt; spin; max resid(k); each band:
  1.03E-14 4.40E-15 2.82E-17 2.16E-17 8.26E-15
  -0.1667  0.0000  0.0833    1  1.15924E-14 kpt; spin; max resid(k); each band:
  1.16E-14 4.37E-15 6.47E-16 3.24E-17 9.29E-15
  -0.0833  0.0000  0.1667    1  1.16079E-14 kpt; spin; max resid(k); each band:
  1.16E-14 4.55E-15 6.36E-16 3.16E-17 9.43E-15
  -0.0833  0.0833  0.0833    1  1.05910E-11 kpt; spin; max resid(k); each band:
  1.06E-14 4.31E-15 2.44E-17 6.57E-16 1.06E-11
  -0.4167  0.0000  0.0000    1  7.55928E-15 kpt; spin; max resid(k); each band:
  7.37E-15 3.41E-15 2.03E-17 1.58E-17 7.56E-15
  -0.3333  0.0000  0.0833    1  8.09505E-15 kpt; spin; max resid(k); each band:
  8.10E-15 3.88E-15 7.98E-16 1.98E-17 7.98E-15
  -0.2500  0.0000  0.1667    1  1.13930E-14 kpt; spin; max resid(k); each band:
  6.75E-15 4.03E-15 4.10E-15 2.25E-17 1.14E-14
  -0.1667  0.0000  0.2500    1  1.15251E-14 kpt; spin; max resid(k); each band:
  6.81E-15 4.16E-15 4.00E-15 2.19E-17 1.15E-14
  -0.0833  0.0000  0.3333    1  8.14980E-15 kpt; spin; max resid(k); each band:
  8.15E-15 4.45E-15 8.10E-16 1.89E-17 8.10E-15
  -0.2500  0.0833  0.0833    1  8.94940E-15 kpt; spin; max resid(k); each band:
  8.95E-15 4.52E-15 1.43E-17 1.01E-15 8.38E-15
  -0.1667  0.0833  0.1667    1  3.96846E-14 kpt; spin; max resid(k); each band:
  6.53E-15 4.43E-15 7.98E-16 1.35E-15 3.97E-14
  -0.0833  0.0833  0.2500    1  1.10224E-14 kpt; spin; max resid(k); each band:
  7.30E-15 4.55E-15 7.55E-16 1.32E-15 1.10E-14
  -0.0833  0.1667  0.1667    1  6.32347E-15 kpt; spin; max resid(k); each band:
  4.40E-15 5.15E-15 1.25E-15 1.12E-17 6.32E-15
   0.5000  0.0000  0.0833    1  8.19276E-15 kpt; spin; max resid(k); each band:
  6.50E-15 2.75E-15 9.75E-16 1.92E-17 8.19E-15
  -0.4167  0.0000  0.1667    1  1.03364E-14 kpt; spin; max resid(k); each band:
  4.14E-15 2.99E-15 5.11E-15 1.44E-16 1.03E-14
  -0.3333  0.0000  0.2500    1  1.09790E-14 kpt; spin; max resid(k); each band:
  3.06E-15 2.96E-15 8.96E-15 1.11E-16 1.10E-14
  -0.2500  0.0000  0.3333    1  1.10023E-14 kpt; spin; max resid(k); each band:
  3.05E-15 3.11E-15 8.90E-15 1.08E-16 1.10E-14
  -0.1667  0.0000  0.4167    1  1.05136E-14 kpt; spin; max resid(k); each band:
  4.15E-15 3.27E-15 4.96E-15 1.40E-16 1.05E-14
  -0.0833  0.0000  0.5000    1  8.25337E-15 kpt; spin; max resid(k); each band:
  6.55E-15 3.04E-15 9.55E-16 1.82E-17 8.25E-15
  -0.4167  0.0833  0.0833    1  8.15777E-15 kpt; spin; max resid(k); each band:
  6.50E-15 2.83E-15 9.40E-16 1.40E-17 8.16E-15
  -0.3333  0.0833  0.1667    1  1.84467E-14 kpt; spin; max resid(k); each band:
  6.54E-15 2.82E-15 1.27E-15 1.10E-15 1.84E-14
  -0.2500  0.0833  0.2500    1  1.64704E-14 kpt; spin; max resid(k); each band:
  3.94E-15 3.38E-15 6.77E-15 1.34E-15 1.65E-14
  -0.1667  0.0833  0.3333    1  3.27787E-14 kpt; spin; max resid(k); each band:
  4.26E-15 3.34E-15 6.29E-15 1.42E-15 3.28E-14
  -0.0833  0.0833  0.4167    1  1.58566E-14 kpt; spin; max resid(k); each band:
  6.56E-15 2.89E-15 1.30E-15 1.11E-15 1.59E-14
  -0.2500  0.1667  0.1667    1  9.21568E-15 kpt; spin; max resid(k); each band:
  5.77E-15 3.72E-15 4.59E-15 1.72E-16 9.22E-15
  -0.1667  0.1667  0.2500    1  1.00276E-14 kpt; spin; max resid(k); each band:
  4.63E-15 3.91E-15 2.51E-15 2.64E-15 1.00E-14
  -0.0833  0.1667  0.3333    1  9.23860E-15 kpt; spin; max resid(k); each band:
  4.99E-15 4.07E-15 2.39E-15 2.68E-15 9.24E-15
  -0.0833  0.2500  0.2500    1  8.34124E-15 kpt; spin; max resid(k); each band:
  4.22E-15 4.77E-15 1.70E-15 1.45E-16 8.34E-15
   0.3333  0.0000  0.0833    1  8.89107E-15 kpt; spin; max resid(k); each band:
  8.89E-15 4.45E-15 9.88E-17 1.02E-15 8.44E-15
   0.4167  0.0000  0.1667    1  9.05843E-15 kpt; spin; max resid(k); each band:
  5.88E-15 3.58E-15 4.66E-15 1.79E-16 9.06E-15
   0.5000  0.0000  0.2500    1  1.08164E-14 kpt; spin; max resid(k); each band:
  3.96E-15 3.16E-15 7.54E-15 1.05E-16 1.08E-14
  -0.4167  0.0000  0.3333    1  1.20190E-14 kpt; spin; max resid(k); each band:
  2.54E-15 1.86E-15 9.25E-15 7.45E-17 1.20E-14
  -0.3333  0.0000  0.4167    1  1.19446E-14 kpt; spin; max resid(k); each band:
  2.51E-15 2.07E-15 9.10E-15 7.41E-17 1.19E-14
  -0.2500  0.0000  0.5000    1  1.07462E-14 kpt; spin; max resid(k); each band:
  3.92E-15 3.46E-15 7.30E-15 1.01E-16 1.07E-14
  -0.1667  0.0000 -0.4167    1  9.09475E-15 kpt; spin; max resid(k); each band:
  5.87E-15 3.84E-15 4.41E-15 1.75E-16 9.09E-15
  -0.0833  0.0000 -0.3333    1  9.01550E-15 kpt; spin; max resid(k); each band:
  9.02E-15 4.69E-15 4.46E-17 9.82E-16 8.54E-15
   0.4167  0.0833  0.0833    1  8.06905E-15 kpt; spin; max resid(k); each band:
  8.07E-15 3.93E-15 8.01E-16 1.42E-17 7.95E-15
   0.5000  0.0833  0.1667    1  2.09743E-14 kpt; spin; max resid(k); each band:
  6.52E-15 2.77E-15 1.32E-15 1.13E-15 2.10E-14
  -0.4167  0.0833  0.2500    1  1.11859E-14 kpt; spin; max resid(k); each band:
  3.47E-15 2.72E-15 6.67E-15 1.70E-15 1.12E-14
  -0.3333  0.0833  0.3333    1  1.17261E-14 kpt; spin; max resid(k); each band:
  2.18E-15 1.65E-15 9.92E-15 1.50E-15 1.17E-14
  -0.2500  0.0833  0.4167    1  1.17425E-14 kpt; spin; max resid(k); each band:
  2.16E-15 1.82E-15 9.76E-15 1.51E-15 1.17E-14
  -0.1667  0.0833  0.5000    1  1.13408E-14 kpt; spin; max resid(k); each band:
  3.45E-15 2.97E-15 6.33E-15 1.70E-15 1.13E-14
  -0.0833  0.0833 -0.4167    1  1.46448E-14 kpt; spin; max resid(k); each band:
  6.57E-15 2.95E-15 1.26E-15 1.08E-15 1.46E-14
  -0.4167  0.1667  0.1667    1  1.06153E-14 kpt; spin; max resid(k); each band:
  4.09E-15 3.18E-15 5.13E-15 1.35E-16 1.06E-14
  -0.3333  0.1667  0.2500    1  1.14691E-14 kpt; spin; max resid(k); each band:
  3.41E-15 2.90E-15 6.64E-15 1.69E-15 1.15E-14
  -0.2500  0.1667  0.3333    1  1.45314E-14 kpt; spin; max resid(k); each band:
  2.39E-15 2.15E-15 6.25E-15 5.87E-15 1.45E-14
  -0.1667  0.1667  0.4167    1  1.45684E-14 kpt; spin; max resid(k); each band:
  2.62E-15 2.20E-15 5.79E-15 5.71E-15 1.46E-14
  -0.0833  0.1667  0.5000    1  1.10874E-14 kpt; spin; max resid(k); each band:
  3.52E-15 2.79E-15 6.37E-15 1.71E-15 1.11E-14
  -0.2500  0.2500  0.2500    1  1.09461E-14 kpt; spin; max resid(k); each band:
  3.88E-15 3.35E-15 7.49E-15 8.58E-17 1.09E-14
 outwf : prtvol=0 or 1, do not print more k-points.

 reduced coordinates (array xred) for    2 atoms
       0.000000000000      0.000000000000      0.000000000000
       0.250000000000      0.250000000000      0.250000000000
 rms dE/dt=  7.5277E-03; max dE/dt=  9.2195E-03; dE/dt below (all hartree)
    1       0.000005525043     -0.009219550430     -0.009219550430
    2      -0.000005525004      0.009219474194      0.009219474194

 cartesian coordinates (angstrom) at end:
    1      0.00000000000000     0.00000000000000     0.00000000000000
    2      1.39356022982158     1.40053240760711     1.40053240760711

 cartesian forces (hartree/bohr) at end:
    1      0.00175098913362    -0.00000052189212    -0.00000052189212
    2     -0.00175098913362     0.00000052189212     0.00000052189212
 frms,max,avg= 1.0109341E-03 1.7509891E-03   7.239E-09 -1.826E-12 -1.826E-12 h/b

 cartesian forces (eV/Angstrom) at end:
    1      0.09003947387800    -0.00002683676941    -0.00002683676941
    2     -0.09003947387800     0.00002683676941     0.00002683676941
 frms,max,avg= 5.1984319E-02 9.0039474E-02   3.723E-07 -9.389E-11 -9.389E-11 e/A
 length scales=  7.485802800000  7.448560000000  7.448560000000 bohr
              =  3.961316229759  3.941608188815  3.941608188815 angstroms
 prteigrs : about to open file tffield_4o_DS2_EIG
 Fermi (or HOMO) energy (hartree) =   0.09125   Average Vxc (hartree)=  -0.34847
 Eigenvalues (hartree) for nkpt= 234  k points:
 kpt#   1, nband=  5, wtk=  0.00231, kpt= -0.0833  0.0000  0.0000 (reduced coord)
  -0.34720   0.06444   0.09044   0.09125   0.20133
 kpt#   2, nband=  5, wtk=  0.00231, kpt= -0.2500  0.0000  0.0000 (reduced coord)
  -0.32824  -0.03403   0.07502   0.07545   0.19572
 kpt#   3, nband=  5, wtk=  0.00463, kpt= -0.1667  0.0000  0.0833 (reduced coord)
  -0.33412  -0.00429   0.05839   0.08570   0.21823
 kpt#   4, nband=  5, wtk=  0.00463, kpt= -0.0833  0.0000  0.1667 (reduced coord)
  -0.33396  -0.00312   0.05699   0.08527   0.21675
 kpt#   5, nband=  5, wtk=  0.00231, kpt= -0.0833  0.0833  0.0833 (reduced coord)
  -0.34049   0.02750   0.07500   0.07813   0.22267
 kpt#   6, nband=  5, wtk=  0.00231, kpt= -0.4167  0.0000  0.0000 (reduced coord)
  -0.30100  -0.10584   0.06463   0.06481   0.18088
 kpt#   7, nband=  5, wtk=  0.00463, kpt= -0.3333  0.0000  0.0833 (reduced coord)
  -0.30716  -0.08594   0.04368   0.06887   0.20171
 kpt#   8, nband=  5, wtk=  0.00463, kpt= -0.2500  0.0000  0.1667 (reduced coord)
  -0.31055  -0.06124   0.01084   0.07060   0.22905
 kpt#   9, nband=  5, wtk=  0.00463, kpt= -0.1667  0.0000  0.2500 (reduced coord)
  -0.31026  -0.06056   0.00974   0.07016   0.22786
 kpt#  10, nband=  5, wtk=  0.00463, kpt= -0.0833  0.0000  0.3333 (reduced coord)
  -0.30631  -0.08524   0.04184   0.06772   0.19936
 kpt#  11, nband=  5, wtk=  0.00231, kpt= -0.2500  0.0833  0.0833 (reduced coord)
  -0.31655  -0.06228   0.05987   0.06076   0.20570
 kpt#  12, nband=  5, wtk=  0.00463, kpt= -0.1667  0.0833  0.1667 (reduced coord)
  -0.32146  -0.03607   0.03469   0.06883   0.22769
 kpt#  13, nband=  5, wtk=  0.00463, kpt= -0.0833  0.0833  0.2500 (reduced coord)
  -0.32128  -0.03496   0.03319   0.06803   0.22432
 kpt#  14, nband=  5, wtk=  0.00231, kpt= -0.0833  0.1667  0.1667 (reduced coord)
  -0.32711  -0.01160   0.05140   0.05382   0.20317
 kpt#  15, nband=  5, wtk=  0.00463, kpt=  0.5000  0.0000  0.0833 (reduced coord)
  -0.29422  -0.11368   0.04575   0.05792   0.19586
 kpt#  16, nband=  5, wtk=  0.00463, kpt= -0.4167  0.0000  0.1667 (reduced coord)
  -0.28904  -0.10762   0.00627   0.05079   0.20696
 kpt#  17, nband=  5, wtk=  0.00463, kpt= -0.3333  0.0000  0.2500 (reduced coord)
  -0.28642  -0.09198  -0.02872   0.04647   0.20267
 kpt#  18, nband=  5, wtk=  0.00463, kpt= -0.2500  0.0000  0.3333 (reduced coord)
  -0.28599  -0.09186  -0.02916   0.04617   0.20231
 kpt#  19, nband=  5, wtk=  0.00463, kpt= -0.1667  0.0000  0.4167 (reduced coord)
  -0.28796  -0.10768   0.00533   0.04995   0.20552
 kpt#  20, nband=  5, wtk=  0.00463, kpt= -0.0833  0.0000  0.5000 (reduced coord)
  -0.29281  -0.11375   0.04454   0.05662   0.19322
 kpt#  21, nband=  5, wtk=  0.00231, kpt= -0.4167  0.0833  0.0833 (reduced coord)
  -0.29418  -0.11376   0.04586   0.05828   0.19616
 kpt#  22, nband=  5, wtk=  0.00463, kpt= -0.3333  0.0833  0.1667 (reduced coord)
  -0.29526  -0.10039   0.02096   0.05256   0.21819
 kpt#  23, nband=  5, wtk=  0.00463, kpt= -0.2500  0.0833  0.2500 (reduced coord)
  -0.29619  -0.08064  -0.01013   0.04925   0.23468
 kpt#  24, nband=  5, wtk=  0.00463, kpt= -0.1667  0.0833  0.3333 (reduced coord)
  -0.29584  -0.07999  -0.01126   0.04885   0.23351
 kpt#  25, nband=  5, wtk=  0.00463, kpt= -0.0833  0.0833  0.4167 (reduced coord)
  -0.29432  -0.09982   0.01907   0.05128   0.21443
 kpt#  26, nband=  5, wtk=  0.00231, kpt= -0.2500  0.1667  0.1667 (reduced coord)
  -0.30096  -0.08280   0.02520   0.04447   0.20384
 kpt#  27, nband=  5, wtk=  0.00463, kpt= -0.1667  0.1667  0.2500 (reduced coord)
  -0.30419  -0.06327   0.01165   0.04141   0.20830
 kpt#  28, nband=  5, wtk=  0.00463, kpt= -0.0833  0.1667  0.3333 (reduced coord)
  -0.30397  -0.06239   0.01077   0.04026   0.20595
 kpt#  29, nband=  5, wtk=  0.00231, kpt= -0.0833  0.2500  0.2500 (reduced coord)
  -0.30846  -0.04790   0.02620   0.03490   0.17958
 kpt#  30, nband=  5, wtk=  0.00463, kpt=  0.3333  0.0000  0.0833 (reduced coord)
  -0.31668  -0.06192   0.05920   0.06021   0.20559
 kpt#  31, nband=  5, wtk=  0.00463, kpt=  0.4167  0.0000  0.1667 (reduced coord)
  -0.30113  -0.08212   0.02457   0.04346   0.20294
 kpt#  32, nband=  5, wtk=  0.00463, kpt=  0.5000  0.0000  0.2500 (reduced coord)
  -0.28525  -0.09353  -0.01222   0.03109   0.18389
 kpt#  33, nband=  5, wtk=  0.00463, kpt= -0.4167  0.0000  0.3333 (reduced coord)
  -0.27454  -0.09687  -0.03691   0.02445   0.17225
 kpt#  34, nband=  5, wtk=  0.00463, kpt= -0.3333  0.0000  0.4167 (reduced coord)
  -0.27419  -0.09744  -0.03662   0.02432   0.17197
 kpt#  35, nband=  5, wtk=  0.00463, kpt= -0.2500  0.0000  0.5000 (reduced coord)
  -0.28439  -0.09432  -0.01180   0.03065   0.18320
 kpt#  36, nband=  5, wtk=  0.00463, kpt= -0.1667  0.0000 -0.4167 (reduced coord)
  -0.30016  -0.08233   0.02471   0.04269   0.20176
 kpt#  37, nband=  5, wtk=  0.00463, kpt= -0.0833  0.0000 -0.3333 (reduced coord)
  -0.31586  -0.06135   0.05820   0.05979   0.20308
 kpt#  38, nband=  5, wtk=  0.00231, kpt=  0.4167  0.0833  0.0833 (reduced coord)
  -0.30737  -0.08570   0.04282   0.06899   0.20235
 kpt#  39, nband=  5, wtk=  0.00463, kpt=  0.5000  0.0833  0.1667 (reduced coord)
  -0.29550  -0.09996   0.02029   0.05243   0.21802
 kpt#  40, nband=  5, wtk=  0.00463, kpt= -0.4167  0.0833  0.2500 (reduced coord)
  -0.28443  -0.10224  -0.00992   0.03358   0.21306
 kpt#  41, nband=  5, wtk=  0.00463, kpt= -0.3333  0.0833  0.3333 (reduced coord)
  -0.27773  -0.09511  -0.03766   0.02440   0.20365
 kpt#  42, nband=  5, wtk=  0.00463, kpt= -0.2500  0.0833  0.4167 (reduced coord)
  -0.27726  -0.09527  -0.03807   0.02437   0.20311
 kpt#  43, nband=  5, wtk=  0.00463, kpt= -0.1667  0.0833  0.5000 (reduced coord)
  -0.28327  -0.10268  -0.01077   0.03333   0.21133
 kpt#  44, nband=  5, wtk=  0.00463, kpt= -0.0833  0.0833 -0.4167 (reduced coord)
  -0.29408  -0.10026   0.01973   0.05143   0.21457
 kpt#  45, nband=  5, wtk=  0.00231, kpt= -0.4167  0.1667  0.1667 (reduced coord)
  -0.28923  -0.10756   0.00613   0.05144   0.20790
 kpt#  46, nband=  5, wtk=  0.00463, kpt= -0.3333  0.1667  0.2500 (reduced coord)
  -0.28439  -0.10257  -0.00986   0.03431   0.21413
 kpt#  47, nband=  5, wtk=  0.00463, kpt= -0.2500  0.1667  0.3333 (reduced coord)
  -0.28198  -0.09120  -0.02536   0.01838   0.23774
 kpt#  48, nband=  5, wtk=  0.00463, kpt= -0.1667  0.1667  0.4167 (reduced coord)
  -0.28156  -0.09082  -0.02614   0.01795   0.23438
 kpt#  49, nband=  5, wtk=  0.00463, kpt= -0.0833  0.1667  0.5000 (reduced coord)
  -0.28331  -0.10234  -0.01085   0.03263   0.21028
 kpt#  50, nband=  5, wtk=  0.00231, kpt= -0.2500  0.2500  0.2500 (reduced coord)
  -0.28520  -0.09431  -0.01187   0.03240   0.18517
 prteigrs : prtvol=0 or 1, do not print more k-points.

 Total charge density [el/Bohr^3]
,     Maximum=    9.1817E-02  at reduced coord.    0.1667    0.1667    0.5000
,Next maximum=    9.1817E-02  at reduced coord.    0.1667    0.5000    0.1667
,     Minimum=    3.1492E-03  at reduced coord.    0.7500    0.7500    0.7500
,Next minimum=    3.4939E-03  at reduced coord.    0.5000    0.5000    0.5000
,  Integrated=    8.0000E+00

--------------------------------------------------------------------------------
 Components of total free energy (in Hartree) :

    Kinetic energy  =  2.91769343942076E+00
    Hartree energy  =  7.61625073742063E-01
    XC energy       = -4.34895189296941E+00
    Ewald energy    = -8.54114765228972E+00
    PspCore energy  =  7.50910513953671E-01
    Loc. psp. energy= -2.29474824928848E+00
    NL   psp  energy=  6.68892431578165E-01
    >>>>>>>>> Etotal= -1.00857263358530E+01

 Other information on the energy :
    Total energy(eV)= -2.74446570831806E+02 ; Band energy (Ha)=  -6.5050813516E-01
--------------------------------------------------------------------------------

 Cartesian components of stress tensor (hartree/bohr^3)
  sigma(1 1)= -3.80582098E-07  sigma(3 2)=  2.97306022E-05
  sigma(2 2)= -5.18786251E-07  sigma(3 1)= -9.05863587E-09
  sigma(3 3)= -5.18786251E-07  sigma(2 1)= -9.05863587E-09

-Cartesian components of stress tensor (GPa)         [Pressure=  1.3908E-02 GPa]
- sigma(1 1)= -1.11971100E-02  sigma(3 2)=  8.74704369E-01
- sigma(2 2)= -1.52632159E-02  sigma(3 1)= -2.66514224E-04
- sigma(3 3)= -1.52632159E-02  sigma(2 1)= -2.66514224E-04

================================================================================
== DATASET  3 ==================================================================
-   nproc =    1

 Exchange-correlation functional for the present dataset will be:
  LDA: old Teter (4/91) fit to Ceperley-Alder data - ixc=3

 Real(R)+Recip(G) space primitive vectors, cartesian coordinates (Bohr,Bohr^-1):
 R(1)=  0.0000000  5.2405926  5.2405926  G(1)= -0.0949320  0.0954091  0.0954091
 R(2)=  5.2668944 -0.0263345  5.2668944  G(2)=  0.0949326 -0.0944603  0.0944603
 R(3)=  5.2668944  5.2668944 -0.0263345  G(3)=  0.0949326  0.0944603 -0.0944603
 Unit cell volume ucvol=  2.9220368E+02 bohr^3
 Angles (23,13,12)=  6.03306577E+01  6.01654667E+01  6.01654667E+01 degrees

 getcut: wavevector=  0.0000  0.0000  0.0000  ngfft=  12  12  12
         ecut(hartree)=      3.087   => boxcut(ratio)=   2.03698
--------------------------------------------------------------------------------

P newkpt: treating      5 bands with npw=      65 for ikpt=   1 by node    0
P newkpt: treating      5 bands with npw=      74 for ikpt=   2 by node    0
P newkpt: treating      5 bands with npw=      69 for ikpt=   3 by node    0
P newkpt: treating      5 bands with npw=      69 for ikpt=   4 by node    0
P newkpt: treating      5 bands with npw=      68 for ikpt=   5 by node    0
P newkpt: treating      5 bands with npw=      73 for ikpt=   6 by node    0
P newkpt: treating      5 bands with npw=      74 for ikpt=   7 by node    0
P newkpt: treating      5 bands with npw=      76 for ikpt=   8 by node    0
P newkpt: treating      5 bands with npw=      76 for ikpt=   9 by node    0
P newkpt: treating      5 bands with npw=      74 for ikpt=  10 by node    0
P newkpt: treating      5 bands with npw=      72 for ikpt=  11 by node    0
P newkpt: treating      5 bands with npw=      74 for ikpt=  12 by node    0
P newkpt: treating      5 bands with npw=      73 for ikpt=  13 by node    0
P newkpt: treating      5 bands with npw=      74 for ikpt=  14 by node    0
P newkpt: treating      5 bands with npw=      74 for ikpt=  15 by node    0
P newkpt: treating      5 bands with npw=      79 for ikpt=  16 by node    0
P newkpt: treating      5 bands with npw=      75 for ikpt=  17 by node    0
P newkpt: treating      5 bands with npw=      78 for ikpt=  18 by node    0
P newkpt: treating      5 bands with npw=      79 for ikpt=  19 by node    0
P newkpt: treating      5 bands with npw=      76 for ikpt=  20 by node    0
P newkpt: treating      5 bands with npw=      74 for ikpt=  21 by node    0
P newkpt: treating      5 bands with npw=      77 for ikpt=  22 by node    0
P newkpt: treating      5 bands with npw=      75 for ikpt=  23 by node    0
P newkpt: treating      5 bands with npw=      76 for ikpt=  24 by node    0
P newkpt: treating      5 bands with npw=      76 for ikpt=  25 by node    0
P newkpt: treating      5 bands with npw=      75 for ikpt=  26 by node    0
P newkpt: treating      5 bands with npw=      77 for ikpt=  27 by node    0
P newkpt: treating      5 bands with npw=      76 for ikpt=  28 by node    0
P newkpt: treating      5 bands with npw=      78 for ikpt=  29 by node    0
P newkpt: treating      5 bands with npw=      74 for ikpt=  30 by node    0
P newkpt: treating      5 bands with npw=      75 for ikpt=  31 by node    0
P newkpt: treating      5 bands with npw=      77 for ikpt=  32 by node    0
P newkpt: treating      5 bands with npw=      74 for ikpt=  33 by node    0
P newkpt: treating      5 bands with npw=      74 for ikpt=  34 by node    0
P newkpt: treating      5 bands with npw=      77 for ikpt=  35 by node    0
P newkpt: treating      5 bands with npw=      75 for ikpt=  36 by node    0
P newkpt: treating      5 bands with npw=      74 for ikpt=  37 by node    0
P newkpt: treating      5 bands with npw=      74 for ikpt=  38 by node    0
P newkpt: treating      5 bands with npw=      76 for ikpt=  39 by node    0
P newkpt: treating      5 bands with npw=      78 for ikpt=  40 by node    0
P newkpt: treating      5 bands with npw=      77 for ikpt=  41 by node    0
P newkpt: treating      5 bands with npw=      78 for ikpt=  42 by node    0
P newkpt: treating      5 bands with npw=      76 for ikpt=  43 by node    0
P newkpt: treating      5 bands with npw=      76 for ikpt=  44 by node    0
P newkpt: treating      5 bands with npw=      79 for ikpt=  45 by node    0
P newkpt: treating      5 bands with npw=      77 for ikpt=  46 by node    0
P newkpt: treating      5 bands with npw=      78 for ikpt=  47 by node    0
P newkpt: treating      5 bands with npw=      77 for ikpt=  48 by node    0
P newkpt: treating      5 bands with npw=      78 for ikpt=  49 by node    0
P newkpt: treating      5 bands with npw=      77 for ikpt=  50 by node    0
 newkpt: prtvol=0 or 1, do not print more k-points.

_setup2: Arith. and geom. avg. npw (full set) are      75.810      75.758
  initberry: for direction 1, nkstr =   6, nstr =    144
  initberry: for direction 2, nkstr =   6, nstr =    144
  initberry: for direction 3, nkstr =   6, nstr =    144

================================================================================

     iter   Etot(hartree)      deltaE(h)  residm     vres2    diffor    maxfor
 ETOT  1  -10.081579796358    -1.008E+01 6.759E-03 9.315E-01 8.778E-04 8.778E-04
 ETOT  2  -10.085628906884    -4.049E-03 2.474E-04 2.464E-02 8.102E-04 1.688E-03
 ETOT  3  -10.085720630870    -9.172E-05 1.786E-05 1.968E-03 6.238E-05 1.750E-03
 ETOT  4  -10.085726193082    -5.562E-06 4.521E-07 1.246E-04 3.975E-06 1.746E-03
 ETOT  5  -10.085725655604     5.375E-07 5.784E-08 3.162E-04 2.619E-06 1.744E-03
 ETOT  6  -10.085726354552    -6.989E-07 1.804E-07 4.499E-05 4.891E-06 1.749E-03
 ETOT  7  -10.085726438488    -8.394E-08 1.276E-08 2.795E-06 7.641E-07 1.749E-03
 ETOT  8  -10.085726443981    -5.493E-09 2.219E-09 2.267E-07 5.732E-07 1.749E-03
 ETOT  9  -10.085726444370    -3.893E-10 4.336E-10 3.296E-09 9.022E-08 1.749E-03
 ETOT 10  -10.085726444376    -5.137E-12 1.176E-10 4.810E-10 8.769E-09 1.749E-03
 ETOT 11  -10.085726444376    -5.151E-14 3.163E-11 3.840E-10 7.469E-10 1.749E-03
 ETOT 12  -10.085726444376    -7.319E-13 7.908E-12 4.013E-11 3.258E-09 1.749E-03

 At SCF step   12, etot is converged : 
  for the second time, diff in etot=  7.319E-13 < toldfe=  1.000E-12

 Computing the polarization (Berry phase) for reciprocal vector:
  0.16667  0.00000  0.00000 (in reduced coordinates)
 -0.01582  0.01590  0.01590 (in cartesian coordinates - atomic units)
 Number of strings:   144
 Number of k points in string:    6

 Summary of the results
 Electronic Berry phase    -1.110274883E-03
            Ionic phase    -7.500000000E-01
            Total phase    -7.511102749E-01
    Remapping in [-1,1]    -7.511102749E-01

           Polarization    -1.558084528E-02 (a.u. of charge)/bohr^2
           Polarization    -8.914543461E-01 C/m^2


 Computing the polarization (Berry phase) for reciprocal vector:
  0.00000  0.16667  0.00000 (in reduced coordinates)
  0.01582 -0.01574  0.01574 (in cartesian coordinates - atomic units)
 Number of strings:   144
 Number of k points in string:    6

 Summary of the results
 Electronic Berry phase     5.178655984E-03
            Ionic phase    -7.500000000E-01
            Total phase    -7.448213440E-01
    Remapping in [-1,1]    -7.448213440E-01

           Polarization    -1.555364028E-02 (a.u. of charge)/bohr^2
           Polarization    -8.898978188E-01 C/m^2


 Computing the polarization (Berry phase) for reciprocal vector:
  0.00000  0.00000  0.16667 (in reduced coordinates)
  0.01582  0.01574 -0.01574 (in cartesian coordinates - atomic units)
 Number of strings:   144
 Number of k points in string:    6

 Summary of the results
 Electronic Berry phase     5.178655984E-03
            Ionic phase    -7.500000000E-01
            Total phase    -7.448213440E-01
    Remapping in [-1,1]    -7.448213440E-01

           Polarization    -1.555364028E-02 (a.u. of charge)/bohr^2
           Polarization    -8.898978188E-01 C/m^2


 Polarization in cartesian coordinates (a.u.):
 (the sum of the electronic and ionic Berry phase has been folded into [-1, 1])
     Electronic berry phase:        0.186687822E-03   0.729647165E-04   0.729647165E-04
     Ionic:                        -0.270371051E-01  -0.269020037E-01  -0.269020037E-01  
     Total:                        -0.268504173E-01  -0.268290390E-01  -0.268290390E-01

 Polarization in cartesian coordinates (C/m^2):
 (the sum of the electronic and ionic Berry phase has been folded into [-1, 1])
     Electronic berry phase:        0.106812992E-01   0.417465885E-02   0.417465885E-02
     Ionic:                        -0.154692152E+01  -0.153919172E+01  -0.153919172E+01  
     Total:                        -0.153624022E+01  -0.153501707E+01  -0.153501707E+01

 Cartesian components of stress tensor (hartree/bohr^3)
  sigma(1 1)= -3.79852119E-07  sigma(3 2)= -2.96933815E-05
  sigma(2 2)= -5.17909249E-07  sigma(3 1)= -9.47318699E-09
  sigma(3 3)= -5.17909249E-07  sigma(2 1)= -9.47318699E-09

================================================================================

 ----iterations are completed or convergence reached----

 Mean square residual over all n,k,spin=   1.1877E-14; max=  7.9085E-12
  -0.0833  0.0000  0.0000    1  1.69720E-14 kpt; spin; max resid(k); each band:
  1.70E-14 2.89E-15 4.62E-17 5.67E-17 1.55E-14
  -0.2500  0.0000  0.0000    1  1.03806E-14 kpt; spin; max resid(k); each band:
  1.04E-14 4.62E-15 2.12E-17 2.47E-17 8.68E-15
  -0.1667  0.0000  0.0833    1  1.14143E-14 kpt; spin; max resid(k); each band:
  1.14E-14 4.56E-15 6.47E-16 3.06E-17 9.41E-15
  -0.0833  0.0000  0.1667    1  1.15795E-14 kpt; spin; max resid(k); each band:
  1.16E-14 4.39E-15 6.59E-16 3.14E-17 9.30E-15
  -0.0833  0.0833  0.0833    1  1.26693E-14 kpt; spin; max resid(k); each band:
  1.02E-14 4.65E-15 2.37E-17 7.32E-16 1.27E-14
  -0.4167  0.0000  0.0000    1  8.50705E-15 kpt; spin; max resid(k); each band:
  7.54E-15 3.73E-15 1.59E-17 1.86E-17 8.51E-15
  -0.3333  0.0000  0.0833    1  8.22670E-15 kpt; spin; max resid(k); each band:
  8.23E-15 4.20E-15 8.17E-16 1.86E-17 8.22E-15
  -0.2500  0.0000  0.1667    1  1.14039E-14 kpt; spin; max resid(k); each band:
  6.89E-15 4.19E-15 4.00E-15 2.16E-17 1.14E-14
  -0.1667  0.0000  0.2500    1  1.12822E-14 kpt; spin; max resid(k); each band:
  6.83E-15 4.06E-15 4.10E-15 2.22E-17 1.13E-14
  -0.0833  0.0000  0.3333    1  8.17435E-15 kpt; spin; max resid(k); each band:
  8.17E-15 3.98E-15 8.08E-16 1.95E-17 8.12E-15
  -0.2500  0.0833  0.0833    1  8.99479E-15 kpt; spin; max resid(k); each band:
  8.99E-15 4.68E-15 1.42E-17 1.10E-15 8.67E-15
  -0.1667  0.0833  0.1667    1  1.08276E-14 kpt; spin; max resid(k); each band:
  7.28E-15 4.61E-15 7.56E-16 1.32E-15 1.08E-14
  -0.0833  0.0833  0.2500    1  3.27198E-14 kpt; spin; max resid(k); each band:
  6.52E-15 4.50E-15 8.00E-16 1.34E-15 3.27E-14
  -0.0833  0.1667  0.1667    1  6.11010E-15 kpt; spin; max resid(k); each band:
  4.63E-15 5.36E-15 1.10E-17 1.22E-15 6.11E-15
   0.5000  0.0000  0.0833    1  8.36725E-15 kpt; spin; max resid(k); each band:
  6.66E-15 3.13E-15 9.65E-16 1.78E-17 8.37E-15
  -0.4167  0.0000  0.1667    1  1.03395E-14 kpt; spin; max resid(k); each band:
  4.24E-15 3.25E-15 4.90E-15 1.38E-16 1.03E-14
  -0.3333  0.0000  0.2500    1  1.07346E-14 kpt; spin; max resid(k); each band:
  3.11E-15 3.04E-15 8.70E-15 1.06E-16 1.07E-14
  -0.2500  0.0000  0.3333    1  1.07114E-14 kpt; spin; max resid(k); each band:
  3.12E-15 2.90E-15 8.75E-15 1.08E-16 1.07E-14
  -0.1667  0.0000  0.4167    1  1.01696E-14 kpt; spin; max resid(k); each band:
  4.22E-15 2.99E-15 5.04E-15 1.41E-16 1.02E-14
  -0.0833  0.0000  0.5000    1  8.31305E-15 kpt; spin; max resid(k); each band:
  6.61E-15 2.86E-15 9.85E-16 1.88E-17 8.31E-15
[...]
                      -4.16666667E-01  5.00000000E-01  0.00000000E+00
                      -3.33333333E-01  5.00000000E-01  8.33333333E-02
                      -2.50000000E-01  5.00000000E-01  1.66666667E-01
                      -8.33333333E-02  0.00000000E+00  0.00000000E+00
                      -2.50000000E-01  0.00000000E+00  0.00000000E+00
                      -4.16666667E-01  0.00000000E+00  0.00000000E+00
              kpt2    -8.33333333E-02  0.00000000E+00  0.00000000E+00
                      -2.50000000E-01  0.00000000E+00  0.00000000E+00
                      -1.66666667E-01  0.00000000E+00  8.33333333E-02
                      -8.33333333E-02  0.00000000E+00  1.66666667E-01
                      -8.33333333E-02  8.33333333E-02  8.33333333E-02
                      -4.16666667E-01  0.00000000E+00  0.00000000E+00
                      -3.33333333E-01  0.00000000E+00  8.33333333E-02
                      -2.50000000E-01  0.00000000E+00  1.66666667E-01
                      -1.66666667E-01  0.00000000E+00  2.50000000E-01
                      -8.33333333E-02  0.00000000E+00  3.33333333E-01
                      -2.50000000E-01  8.33333333E-02  8.33333333E-02
                      -1.66666667E-01  8.33333333E-02  1.66666667E-01
                      -8.33333333E-02  8.33333333E-02  2.50000000E-01
                      -8.33333333E-02  1.66666667E-01  1.66666667E-01
                       5.00000000E-01  0.00000000E+00  8.33333333E-02
                      -4.16666667E-01  0.00000000E+00  1.66666667E-01
                      -3.33333333E-01  0.00000000E+00  2.50000000E-01
                      -2.50000000E-01  0.00000000E+00  3.33333333E-01
                      -1.66666667E-01  0.00000000E+00  4.16666667E-01
                      -8.33333333E-02  0.00000000E+00  5.00000000E-01
                      -4.16666667E-01  8.33333333E-02  8.33333333E-02
                      -3.33333333E-01  8.33333333E-02  1.66666667E-01
                      -2.50000000E-01  8.33333333E-02  2.50000000E-01
                      -1.66666667E-01  8.33333333E-02  3.33333333E-01
                      -8.33333333E-02  8.33333333E-02  4.16666667E-01
                      -2.50000000E-01  1.66666667E-01  1.66666667E-01
                      -1.66666667E-01  1.66666667E-01  2.50000000E-01
                      -8.33333333E-02  1.66666667E-01  3.33333333E-01
                      -8.33333333E-02  2.50000000E-01  2.50000000E-01
                       3.33333333E-01  0.00000000E+00  8.33333333E-02
                       4.16666667E-01  0.00000000E+00  1.66666667E-01
                       5.00000000E-01  0.00000000E+00  2.50000000E-01
                      -4.16666667E-01  0.00000000E+00  3.33333333E-01
                      -3.33333333E-01  0.00000000E+00  4.16666667E-01
                      -2.50000000E-01  0.00000000E+00  5.00000000E-01
                      -1.66666667E-01  0.00000000E+00 -4.16666667E-01
                      -8.33333333E-02  0.00000000E+00 -3.33333333E-01
                       4.16666667E-01  8.33333333E-02  8.33333333E-02
                       5.00000000E-01  8.33333333E-02  1.66666667E-01
                      -4.16666667E-01  8.33333333E-02  2.50000000E-01
                      -3.33333333E-01  8.33333333E-02  3.33333333E-01
                      -2.50000000E-01  8.33333333E-02  4.16666667E-01
                      -1.66666667E-01  8.33333333E-02  5.00000000E-01
                      -8.33333333E-02  8.33333333E-02 -4.16666667E-01
                      -4.16666667E-01  1.66666667E-01  1.66666667E-01
                      -3.33333333E-01  1.66666667E-01  2.50000000E-01
                      -2.50000000E-01  1.66666667E-01  3.33333333E-01
                      -1.66666667E-01  1.66666667E-01  4.16666667E-01
                      -8.33333333E-02  1.66666667E-01  5.00000000E-01
                      -2.50000000E-01  2.50000000E-01  2.50000000E-01
              kpt3    -8.33333333E-02  0.00000000E+00  0.00000000E+00
                      -2.50000000E-01  0.00000000E+00  0.00000000E+00
                      -1.66666667E-01  0.00000000E+00  8.33333333E-02
                      -8.33333333E-02  0.00000000E+00  1.66666667E-01
                      -8.33333333E-02  8.33333333E-02  8.33333333E-02
                      -4.16666667E-01  0.00000000E+00  0.00000000E+00
                      -3.33333333E-01  0.00000000E+00  8.33333333E-02
                      -2.50000000E-01  0.00000000E+00  1.66666667E-01
                      -1.66666667E-01  0.00000000E+00  2.50000000E-01
                      -8.33333333E-02  0.00000000E+00  3.33333333E-01
                      -2.50000000E-01  8.33333333E-02  8.33333333E-02
                      -1.66666667E-01  8.33333333E-02  1.66666667E-01
                      -8.33333333E-02  8.33333333E-02  2.50000000E-01
                      -8.33333333E-02  1.66666667E-01  1.66666667E-01
                       5.00000000E-01  0.00000000E+00  8.33333333E-02
                      -4.16666667E-01  0.00000000E+00  1.66666667E-01
                      -3.33333333E-01  0.00000000E+00  2.50000000E-01
                      -2.50000000E-01  0.00000000E+00  3.33333333E-01
                      -1.66666667E-01  0.00000000E+00  4.16666667E-01
                      -8.33333333E-02  0.00000000E+00  5.00000000E-01
                      -4.16666667E-01  8.33333333E-02  8.33333333E-02
                      -3.33333333E-01  8.33333333E-02  1.66666667E-01
                      -2.50000000E-01  8.33333333E-02  2.50000000E-01
                      -1.66666667E-01  8.33333333E-02  3.33333333E-01
                      -8.33333333E-02  8.33333333E-02  4.16666667E-01
                      -2.50000000E-01  1.66666667E-01  1.66666667E-01
                      -1.66666667E-01  1.66666667E-01  2.50000000E-01
                      -8.33333333E-02  1.66666667E-01  3.33333333E-01
                      -8.33333333E-02  2.50000000E-01  2.50000000E-01
                       3.33333333E-01  0.00000000E+00  8.33333333E-02
                       4.16666667E-01  0.00000000E+00  1.66666667E-01
                       5.00000000E-01  0.00000000E+00  2.50000000E-01
                      -4.16666667E-01  0.00000000E+00  3.33333333E-01
                      -3.33333333E-01  0.00000000E+00  4.16666667E-01
                      -2.50000000E-01  0.00000000E+00  5.00000000E-01
                      -1.66666667E-01  0.00000000E+00 -4.16666667E-01
                      -8.33333333E-02  0.00000000E+00 -3.33333333E-01
                       4.16666667E-01  8.33333333E-02  8.33333333E-02
                       5.00000000E-01  8.33333333E-02  1.66666667E-01
                      -4.16666667E-01  8.33333333E-02  2.50000000E-01
                      -3.33333333E-01  8.33333333E-02  3.33333333E-01
                      -2.50000000E-01  8.33333333E-02  4.16666667E-01
                      -1.66666667E-01  8.33333333E-02  5.00000000E-01
                      -8.33333333E-02  8.33333333E-02 -4.16666667E-01
                      -4.16666667E-01  1.66666667E-01  1.66666667E-01
                      -3.33333333E-01  1.66666667E-01  2.50000000E-01
                      -2.50000000E-01  1.66666667E-01  3.33333333E-01
                      -1.66666667E-01  1.66666667E-01  4.16666667E-01
                      -8.33333333E-02  1.66666667E-01  5.00000000E-01
                      -2.50000000E-01  2.50000000E-01  2.50000000E-01
                       outvar_i_n : Printing only first  50 k-points.
         kptrlatt1       6   -6    6     -6    6    6     -6   -6    6
         kptrlatt2       6   -6    6      6    6   -6     -6    6    6
         kptrlatt3       6   -6    6      6    6   -6     -6    6    6
          kptrlen1     6.32031274E+01
          kptrlen2     6.32027324E+01
          kptrlen3     6.32027324E+01
P           mkmem1         28
P           mkmem2        234
P           mkmem3        234
            natom           2
            nband1          5
            nband2          5
            nband3          5
           ndtset           3
            ngfft          12      12      12
             nkpt1         28
             nkpt2        234
             nkpt3        234
            nstep         100
             nsym1         24
             nsym2          2
             nsym3          2
           ntypat           2
              occ1     2.000000  2.000000  2.000000  2.000000  0.000000
              occ2     2.000000  2.000000  2.000000  2.000000  0.000000
              occ3     2.000000  2.000000  2.000000  2.000000  0.000000
        optforces           1
            rfdir           1       1       1
            rprim1     0.0000000000E+00  7.0710678119E-01  7.0710678119E-01
                       7.0710678119E-01  0.0000000000E+00  7.0710678119E-01
                       7.0710678119E-01  7.0710678119E-01  0.0000000000E+00
            rprim2     0.0000000000E+00  7.0710678119E-01  7.0710678119E-01
                       7.0710236181E-01  3.5355118091E-03  7.0710236181E-01
                       7.0710236181E-01  7.0710236181E-01  3.5355118091E-03
            rprim3     0.0000000000E+00  7.0710678119E-01  7.0710678119E-01
                       7.0710236181E-01 -3.5355118091E-03  7.0710236181E-01
                       7.0710236181E-01  7.0710236181E-01 -3.5355118091E-03
           shiftk1     5.00000000E-01  5.00000000E-01  5.00000000E-01
           shiftk2     5.00000000E-01 -5.00000000E-01  5.00000000E-01
           shiftk3     5.00000000E-01 -5.00000000E-01  5.00000000E-01
          spgroup1        216
          spgroup2          8
          spgroup3          8
           strten1    -7.8879331886E-10 -7.8879331799E-10 -7.8879331842E-10
                       0.0000000000E+00  0.0000000000E+00  0.0000000000E+00
           strten2    -3.8058209796E-07 -5.1878625111E-07 -5.1878625111E-07
                       2.9730602226E-05 -9.0586358715E-09 -9.0586358718E-09
           strten3    -3.7985211929E-07 -5.1790924882E-07 -5.1790924882E-07
                      -2.9693381480E-05 -9.4731869911E-09 -9.4731869911E-09
           symafm1       1    1    1    1    1    1    1    1    1    1
                         1    1    1    1    1    1    1    1    1    1
                         1    1    1    1
           symafm2       1    1
           symafm3       1    1
           symrel1     1  0  0   0  1  0   0  0  1       0 -1  1   0 -1  0   1 -1  0
                      -1  0  0  -1  0  1  -1  1  0       0  1 -1   1  0 -1   0  0 -1
                      -1  0  0  -1  1  0  -1  0  1       0 -1  1   1 -1  0   0 -1  0
                       1  0  0   0  0  1   0  1  0       0  1 -1   0  0 -1   1  0 -1
                      -1  0  1  -1  1  0  -1  0  0       0 -1  0   1 -1  0   0 -1  1
                       1  0 -1   0  0 -1   0  1 -1       0  1  0   0  0  1   1  0  0
                       1  0 -1   0  1 -1   0  0 -1       0 -1  0   0 -1  1   1 -1  0
                      -1  0  1  -1  0  0  -1  1  0       0  1  0   1  0  0   0  0  1
                       0  0 -1   0  1 -1   1  0 -1       1 -1  0   0 -1  1   0 -1  0
                       0  0  1   1  0  0   0  1  0      -1  1  0  -1  0  0  -1  0  1
                       0  0  1   0  1  0   1  0  0       1 -1  0   0 -1  0   0 -1  1
                       0  0 -1   1  0 -1   0  1 -1      -1  1  0  -1  0  1  -1  0  0
           symrel2     1  0  0   0  1  0   0  0  1       1  0  0   0  0  1   0  1  0
           symrel3     1  0  0   0  1  0   0  0  1       1  0  0   0  0  1   0  1  0
            tnons1     0.0000000  0.0000000  0.0000000     0.0000000  0.0000000  0.0000000
                       0.0000000  0.0000000  0.0000000     0.0000000  0.0000000  0.0000000
                       0.0000000  0.0000000  0.0000000     0.0000000  0.0000000  0.0000000
                       0.0000000  0.0000000  0.0000000     0.0000000  0.0000000  0.0000000
                       0.0000000  0.0000000  0.0000000     0.0000000  0.0000000  0.0000000
                       0.0000000  0.0000000  0.0000000     0.0000000  0.0000000  0.0000000
                       0.0000000  0.0000000  0.0000000     0.0000000  0.0000000  0.0000000
                       0.0000000  0.0000000  0.0000000     0.0000000  0.0000000  0.0000000
                       0.0000000  0.0000000  0.0000000     0.0000000  0.0000000  0.0000000
                       0.0000000  0.0000000  0.0000000     0.0000000  0.0000000  0.0000000
                       0.0000000  0.0000000  0.0000000     0.0000000  0.0000000  0.0000000
                       0.0000000  0.0000000  0.0000000     0.0000000  0.0000000  0.0000000
            tnons2     0.0000000  0.0000000  0.0000000     0.0000000  0.0000000  0.0000000
            tnons3     0.0000000  0.0000000  0.0000000     0.0000000  0.0000000  0.0000000
           toldfe      1.00000000E-12 Hartree
            typat      1  2
              wtk1       0.02778    0.02778    0.02778    0.05556    0.02778    0.02778
                         0.05556    0.02778    0.05556    0.05556    0.02778    0.02778
                         0.02778    0.05556    0.02778    0.05556    0.05556    0.05556
                         0.02778    0.02778    0.02778    0.02778    0.02778    0.05556
                         0.05556    0.00926    0.00926    0.00926
              wtk2       0.00231    0.00231    0.00463    0.00463    0.00231    0.00231
                         0.00463    0.00463    0.00463    0.00463    0.00231    0.00463
                         0.00463    0.00231    0.00463    0.00463    0.00463    0.00463
                         0.00463    0.00463    0.00231    0.00463    0.00463    0.00463
                         0.00463    0.00231    0.00463    0.00463    0.00231    0.00463
                         0.00463    0.00463    0.00463    0.00463    0.00463    0.00463
                         0.00463    0.00231    0.00463    0.00463    0.00463    0.00463
                         0.00463    0.00463    0.00231    0.00463    0.00463    0.00463
                         0.00463    0.00231
              wtk3       0.00231    0.00231    0.00463    0.00463    0.00231    0.00231
                         0.00463    0.00463    0.00463    0.00463    0.00231    0.00463
                         0.00463    0.00231    0.00463    0.00463    0.00463    0.00463
                         0.00463    0.00463    0.00231    0.00463    0.00463    0.00463
                         0.00463    0.00231    0.00463    0.00463    0.00231    0.00463
                         0.00463    0.00463    0.00463    0.00463    0.00463    0.00463
                         0.00463    0.00231    0.00463    0.00463    0.00463    0.00463
                         0.00463    0.00463    0.00231    0.00463    0.00463    0.00463
                         0.00463    0.00231
                       outvars : Printing only first  50 k-points.
           xangst1     0.0000000000E+00  0.0000000000E+00  0.0000000000E+00
                       1.3935689396E+00  1.3935689396E+00  1.3935689396E+00
           xangst2     0.0000000000E+00  0.0000000000E+00  0.0000000000E+00
                       1.3935602298E+00  1.4005324076E+00  1.4005324076E+00
           xangst3     0.0000000000E+00  0.0000000000E+00  0.0000000000E+00
                       1.3935602298E+00  1.3865967618E+00  1.3865967618E+00
            xcart1     0.0000000000E+00  0.0000000000E+00  0.0000000000E+00
                       2.6334636431E+00  2.6334636431E+00  2.6334636431E+00
            xcart2     0.0000000000E+00  0.0000000000E+00  0.0000000000E+00
                       2.6334471840E+00  2.6466226906E+00  2.6466226906E+00
            xcart3     0.0000000000E+00  0.0000000000E+00  0.0000000000E+00
                       2.6334471840E+00  2.6202881365E+00  2.6202881365E+00
             xred      0.0000000000E+00  0.0000000000E+00  0.0000000000E+00
                       2.5000000000E-01  2.5000000000E-01  2.5000000000E-01
            znucl       13.00000   33.00000

================================================================================


- Timing analysis has been suppressed with timopt=0



================================================================================

 Suggested references for the acknowledgment of ABINIT usage.

 The users of ABINIT have little formal obligations with respect to the ABINIT group
 (those specified in the GNU General Public License, http://www.gnu.org/copyleft/gpl.txt).
 However, it is common practice in the scientific literature,
 to acknowledge the efforts of people that have made the research possible.
 In this spirit, please find below suggested citations of work written by ABINIT developers,
 corresponding to implementations inside of ABINIT that you have used in the present run.
 Note also that it will be of great value to readers of publications presenting these results,
 to read papers enabling them to understand the theoretical formalism and details
 of the ABINIT implementation.
 For information on why they are suggested, see also http://www.abinit.org/about/?text=acknowledgments.

 [1] ABINIT : First-principles approach of materials and nanosystem properties.
 X. Gonze, B. Amadon, P.-M. Anglade, J.-M. Beuken, F. Bottin, P. Boulanger, F. Bruneval,
 D. Caliste, R. Caracas, M. Cote, T. Deutsch, L. Genovese, Ph. Ghosez, M. Giantomassi
 S. Goedecker, D.R. Hamann, P. Hermet, F. Jollet, G. Jomard, S. Leroux, M. Mancini, S. Mazevet,
 M.J.T. Oliveira, G. Onida, Y. Pouillon, T. Rangel, G.-M. Rignanese, D. Sangalli, R. Shaltaf,
 M. Torrent, M.J. Verstraete, G. Zerah, J.W. Zwanziger
 Computer Phys. Comm. 180, 2582-2615 (2009).
 Comment : the third generic paper describing the ABINIT project.
 Note that a version of this paper, that is not formatted for Computer Phys. Comm. 
 is available at http://www.abinit.org/about/ABINIT_CPC_v10.pdf .
 The licence allows the authors to put it on the Web.

 [2] A brief introduction to the ABINIT software package.
 X. Gonze, G.-M. Rignanese, M. Verstraete, J.-M. Beuken, Y. Pouillon, R. Caracas, F. Jollet,
 M. Torrent, G. Zerah, M. Mikami, Ph. Ghosez, M. Veithen, J.-Y. Raty, V. Olevano, F. Bruneval,
 L. Reining, R. Godby, G. Onida, D.R. Hamann, and D.C. Allan.
 Z. Kristallogr. 220, 558-562 (2005).
 Comment : the second generic paper describing the ABINIT project. Note that this paper
 should be cited especially if you are using the GW part of ABINIT, as several authors
 of this part are not in the list of authors of the first or third paper.
 The .pdf of the latter paper is available at http://www.abinit.org/about/zfk_0505-06_558-562.pdf.
 Note that it should not redistributed (Copyright by Oldenburg Wissenshaftverlag,
 the licence allows the authors to put it on the Web).


 And optionally :

 [3] First-principles computation of material properties : the ABINIT software project. 
 X. Gonze, J.-M. Beuken, R. Caracas, F. Detraux, M. Fuchs, G.-M. Rignanese, L. Sindic,
 M. Verstraete, G. Zerah, F. Jollet, M. Torrent, A. Roy, M. Mikami, Ph. Ghosez, J.-Y. Raty, D.C. Allan.
 Computational Materials Science 25, 478-492 (2002). http://dx.doi.org/10.1016/S0927-0256(02)00325-7
 Comment : the original paper describing the ABINIT project.

 [4] Fast radix 2, 3, 4 and 5 kernels for Fast Fourier Transformations
 on computers with overlapping multiply-add instructions.
 S. Goedecker, SIAM J. on Scientific Computing 18, 1605 (1997).

 [5] Towards a potential-based conjugate gradient algorithm for order-N self-consistent
 total energy calculations.
 X. Gonze, Phys. Rev. B 54, 4383 (1996).
 Comment : The potential-based conjugate-gradient algorithm, used when iscf=5, is not published.
 However, many elements of this algorithm have been explained in the paper above.
-
- Proc.   0 individual time (sec): cpu=         11.1  wall=         11.2

================================================================================

 Calculation completed.
.Delivered    2 WARNINGs and   0 COMMENTs to log file.
+Overall time at end (sec) : cpu=         11.1  wall=         11.2
