
.Version 7.10.4 of ABINIT 
.(MPI version, prepared for a x86_64_linux_gnu4.7 computer) 

.Copyright (C) 1998-2014 ABINIT group . 
 ABINIT comes with ABSOLUTELY NO WARRANTY.
 It is free software, and you are welcome to redistribute it
 under certain conditions (GNU General Public License,
 see ~abinit/COPYING or http://www.gnu.org/copyleft/gpl.txt).

 ABINIT is a project of the Universite Catholique de Louvain,
 Corning Inc. and other collaborators, see ~abinit/doc/developers/contributors.txt .
 Please read ~abinit/doc/users/acknowledgments.html for suggested
 acknowledgments of the ABINIT effort.
 For more information, see http://www.abinit.org .

.Starting date : Sun  1 Feb 2015.
- ( at 15h02 )
  
- input  file    -> tnlo_7.in
- output file    -> tnlo_7.out
- root for input  files -> tnlo_7i
- root for output files -> tnlo_7o


 Symmetries : space group F-4 3 m (#216); Bravais cF (face-center cubic)
================================================================================
 Values of the parameters that define the memory need of the present run
   intxc =         0  ionmov =         0    iscf =         5 xclevel =         1
  lmnmax =         2   lnmax =         2   mband =         5  mffmem =         1
P  mgfft =        12   mkmem =        28 mpssoang=         3     mpw =        80
  mqgrid =      3001   natom =         2    nfft =      1728    nkpt =        28
  nloalg =         4  nspden =         1 nspinor =         1  nsppol =         1
    nsym =        24  n1xccc =      2501  ntypat =         2  occopt =         1
================================================================================
P This job should need less than                       1.445 Mbytes of memory.
  Rough estimation (10% accuracy) of disk space for files :
_ WF disk file :      0.173 Mbytes ; DEN or POT disk file :      0.015 Mbytes.
================================================================================

--------------------------------------------------------------------------------
------------- Echo of variables that govern the present computation ------------
--------------------------------------------------------------------------------
-
- outvars: echo of selected default values                                      
-   accesswff0 =  0 , fftalg0 =112 , wfoptalg0 =  0
-
- outvars: echo of global parameters not present in the input file              
-  max_nthreads =    0
-
 -outvars: echo values of preprocessed input variables --------
            acell      1.0530000000E+01  1.0530000000E+01  1.0530000000E+01 Bohr
              amu      2.69815390E+01  7.49215900E+01
          dilatmx      1.05000000E+00
             ecut      2.80000000E+00 Hartree
           ecutsm      5.00000000E-01 Hartree
-          fftalg         112
             iscf           5
              ixc           3
              kpt     -8.33333333E-02 -1.66666667E-01  0.00000000E+00
                      -8.33333333E-02 -3.33333333E-01  0.00000000E+00
                      -1.66666667E-01 -2.50000000E-01  0.00000000E+00
                      -8.33333333E-02 -2.50000000E-01  8.33333333E-02
                      -8.33333333E-02  5.00000000E-01  0.00000000E+00
                      -1.66666667E-01 -4.16666667E-01  0.00000000E+00
                      -8.33333333E-02 -4.16666667E-01  8.33333333E-02
                      -2.50000000E-01 -3.33333333E-01  0.00000000E+00
                      -1.66666667E-01 -3.33333333E-01  8.33333333E-02
                      -8.33333333E-02 -3.33333333E-01  1.66666667E-01
                      -8.33333333E-02  3.33333333E-01  0.00000000E+00
                      -1.66666667E-01  4.16666667E-01  0.00000000E+00
                      -2.50000000E-01  5.00000000E-01  0.00000000E+00
                      -1.66666667E-01  5.00000000E-01  8.33333333E-02
                      -3.33333333E-01 -4.16666667E-01  0.00000000E+00
                      -2.50000000E-01 -4.16666667E-01  8.33333333E-02
                      -1.66666667E-01 -4.16666667E-01  1.66666667E-01
                      -8.33333333E-02 -4.16666667E-01  2.50000000E-01
                      -8.33333333E-02  1.66666667E-01  0.00000000E+00
                      -1.66666667E-01  2.50000000E-01  0.00000000E+00
                      -2.50000000E-01  3.33333333E-01  0.00000000E+00
                      -3.33333333E-01  4.16666667E-01  0.00000000E+00
                      -4.16666667E-01  5.00000000E-01  0.00000000E+00
                      -3.33333333E-01  5.00000000E-01  8.33333333E-02
                      -2.50000000E-01  5.00000000E-01  1.66666667E-01
                      -8.33333333E-02  0.00000000E+00  0.00000000E+00
                      -2.50000000E-01  0.00000000E+00  0.00000000E+00
                      -4.16666667E-01  0.00000000E+00  0.00000000E+00
         kptrlatt        6   -6    6     -6    6    6     -6   -6    6
          kptrlen      6.31800000E+01
P           mkmem          28
            natom           2
            nband           5
            ngfft          12      12      12
             nkpt          28
            nstep         100
             nsym          24
           ntypat           2
              occ      2.000000  2.000000  2.000000  2.000000  0.000000
            rprim      0.0000000000E+00  5.0000000000E-01  5.0000000000E-01
                       5.0000000000E-01  0.0000000000E+00  5.0000000000E-01
                       5.0000000000E-01  5.0000000000E-01  0.0000000000E+00
           shiftk      5.00000000E-01  5.00000000E-01  5.00000000E-01
          spgroup         216
           symrel      1  0  0   0  1  0   0  0  1       0 -1  1   0 -1  0   1 -1  0
                      -1  0  0  -1  0  1  -1  1  0       0  1 -1   1  0 -1   0  0 -1
                      -1  0  0  -1  1  0  -1  0  1       0 -1  1   1 -1  0   0 -1  0
                       1  0  0   0  0  1   0  1  0       0  1 -1   0  0 -1   1  0 -1
                      -1  0  1  -1  1  0  -1  0  0       0 -1  0   1 -1  0   0 -1  1
                       1  0 -1   0  0 -1   0  1 -1       0  1  0   0  0  1   1  0  0
                       1  0 -1   0  1 -1   0  0 -1       0 -1  0   0 -1  1   1 -1  0
                      -1  0  1  -1  0  0  -1  1  0       0  1  0   1  0  0   0  0  1
                       0  0 -1   0  1 -1   1  0 -1       1 -1  0   0 -1  1   0 -1  0
                       0  0  1   1  0  0   0  1  0      -1  1  0  -1  0  0  -1  0  1
                       0  0  1   0  1  0   1  0  0       1 -1  0   0 -1  0   0 -1  1
                       0  0 -1   1  0 -1   0  1 -1      -1  1  0  -1  0  1  -1  0  0
           toldfe      1.00000000E-12 Hartree
            typat      1  2
              wtk        0.02778    0.02778    0.02778    0.05556    0.02778    0.02778
                         0.05556    0.02778    0.05556    0.05556    0.02778    0.02778
                         0.02778    0.05556    0.02778    0.05556    0.05556    0.05556
                         0.02778    0.02778    0.02778    0.02778    0.02778    0.05556
                         0.05556    0.00926    0.00926    0.00926
           xangst      0.0000000000E+00  0.0000000000E+00  0.0000000000E+00
                       1.3930590016E+00  1.3930590016E+00  1.3930590016E+00
            xcart      0.0000000000E+00  0.0000000000E+00  0.0000000000E+00
                       2.6325000000E+00  2.6325000000E+00  2.6325000000E+00
             xred      0.0000000000E+00  0.0000000000E+00  0.0000000000E+00
                       2.5000000000E-01  2.5000000000E-01  2.5000000000E-01
            znucl       13.00000   33.00000

================================================================================

 chkinp: Checking input parameters for consistency.

================================================================================
== DATASET  1 ==================================================================
-   nproc =    1

 Exchange-correlation functional for the present dataset will be:
  LDA: old Teter (4/91) fit to Ceperley-Alder data - ixc=3

 Real(R)+Recip(G) space primitive vectors, cartesian coordinates (Bohr,Bohr^-1):
 R(1)=  0.0000000  5.2650000  5.2650000  G(1)= -0.0949668  0.0949668  0.0949668
 R(2)=  5.2650000  0.0000000  5.2650000  G(2)=  0.0949668 -0.0949668  0.0949668
 R(3)=  5.2650000  5.2650000  0.0000000  G(3)=  0.0949668  0.0949668 -0.0949668
 Unit cell volume ucvol=  2.9189397E+02 bohr^3
 Angles (23,13,12)=  6.00000000E+01  6.00000000E+01  6.00000000E+01 degrees

 getcut: wavevector=  0.0000  0.0000  0.0000  ngfft=  12  12  12
         ecut(hartree)=      3.087   => boxcut(ratio)=   2.03767

--- Pseudopotential description ------------------------------------------------
- pspini: atom type   1  psp file is /data/ABINIT/testf_gcc47/trunk_7.10.4-training/tests/Psps_for_tests/13al.pspnc
- pspatm: opening atomic psp file    /data/ABINIT/testf_gcc47/trunk_7.10.4-training/tests/Psps_for_tests/13al.pspnc
-  Troullier-Martins psp for element  Al        Thu Oct 27 17:31:05 EDT 1994
- 13.00000   3.00000    940714                znucl, zion, pspdat
    1    1    2    2      2001   0.00000      pspcod,pspxc,lmax,lloc,mmax,r2well
    0   4.657  11.889    1   2.2761078        l,e99.0,e99.9,nproj,rcpsp
   0.00000000   0.00000000   0.00000000   0.00000000     rms, ekb1, ekb2, epsatm
    1   1.829   2.761    1   2.2761078        l,e99.0,e99.9,nproj,rcpsp
   0.00000000   0.00000000   0.00000000   0.00000000     rms, ekb1, ekb2, epsatm
    2   0.000   0.000    0   2.2761078        l,e99.0,e99.9,nproj,rcpsp
   0.00000000   0.00000000   0.00000000   0.00000000     rms, ekb1, ekb2, epsatm
    2.09673076353074    0.12648111154518    1.01742091001718   rchrg,fchrg,qchrg
 pspatm: epsatm=    0.22155260
         --- l  ekb(1:nproj) -->
             0    2.540658
             1    1.353815
 pspatm: atomic psp has been read  and splines computed

- pspini: atom type   2  psp file is /data/ABINIT/testf_gcc47/trunk_7.10.4-training/tests/Psps_for_tests/33as.pspnc
- pspatm: opening atomic psp file    /data/ABINIT/testf_gcc47/trunk_7.10.4-training/tests/Psps_for_tests/33as.pspnc
-  Troullier-Martins psp for element  As        Thu Oct 27 17:37:14 EDT 1994
- 33.00000   5.00000    940714                znucl, zion, pspdat
    1    1    1    1      2001   0.00000      pspcod,pspxc,lmax,lloc,mmax,r2well
    0   4.772  10.829    1   2.5306160        l,e99.0,e99.9,nproj,rcpsp
   0.00000000   0.00000000   0.00000000   0.00000000     rms, ekb1, ekb2, epsatm
    1   2.745   5.580    0   2.5306160        l,e99.0,e99.9,nproj,rcpsp
   0.00000000   0.00000000   0.00000000   0.00000000     rms, ekb1, ekb2, epsatm
    2.05731715564010    0.36322996461007    2.76014815959125   rchrg,fchrg,qchrg
 pspatm: epsatm=   27.20579911
         --- l  ekb(1:nproj) -->
             0    0.838751
 pspatm: atomic psp has been read  and splines computed

   2.19418814E+02                                ecore*ucvol(ha*bohr**3)
--------------------------------------------------------------------------------

P newkpt: treating      5 bands with npw=      68 for ikpt=   1 by node    0
P newkpt: treating      5 bands with npw=      74 for ikpt=   2 by node    0
P newkpt: treating      5 bands with npw=      74 for ikpt=   3 by node    0
P newkpt: treating      5 bands with npw=      73 for ikpt=   4 by node    0
P newkpt: treating      5 bands with npw=      74 for ikpt=   5 by node    0
P newkpt: treating      5 bands with npw=      75 for ikpt=   6 by node    0
P newkpt: treating      5 bands with npw=      76 for ikpt=   7 by node    0
P newkpt: treating      5 bands with npw=      77 for ikpt=   8 by node    0
P newkpt: treating      5 bands with npw=      77 for ikpt=   9 by node    0
P newkpt: treating      5 bands with npw=      75 for ikpt=  10 by node    0
P newkpt: treating      5 bands with npw=      74 for ikpt=  11 by node    0
P newkpt: treating      5 bands with npw=      79 for ikpt=  12 by node    0
P newkpt: treating      5 bands with npw=      77 for ikpt=  13 by node    0
P newkpt: treating      5 bands with npw=      78 for ikpt=  14 by node    0
P newkpt: treating      5 bands with npw=      79 for ikpt=  15 by node    0
P newkpt: treating      5 bands with npw=      80 for ikpt=  16 by node    0
P newkpt: treating      5 bands with npw=      77 for ikpt=  17 by node    0
P newkpt: treating      5 bands with npw=      77 for ikpt=  18 by node    0
P newkpt: treating      5 bands with npw=      69 for ikpt=  19 by node    0
P newkpt: treating      5 bands with npw=      75 for ikpt=  20 by node    0
P newkpt: treating      5 bands with npw=      75 for ikpt=  21 by node    0
P newkpt: treating      5 bands with npw=      74 for ikpt=  22 by node    0
P newkpt: treating      5 bands with npw=      75 for ikpt=  23 by node    0
P newkpt: treating      5 bands with npw=      77 for ikpt=  24 by node    0
P newkpt: treating      5 bands with npw=      76 for ikpt=  25 by node    0
P newkpt: treating      5 bands with npw=      65 for ikpt=  26 by node    0
P newkpt: treating      5 bands with npw=      74 for ikpt=  27 by node    0
P newkpt: treating      5 bands with npw=      73 for ikpt=  28 by node    0

_setup2: Arith. and geom. avg. npw (full set) are      75.602      75.552

================================================================================

     iter   Etot(hartree)      deltaE(h)  residm     vres2
 ETOT  1  -10.081663941621    -1.008E+01 8.737E-03 9.294E-01
 ETOT  2  -10.085672066211    -4.008E-03 2.846E-05 2.460E-02
 ETOT  3  -10.085763473175    -9.141E-05 8.244E-06 1.961E-03
 ETOT  4  -10.085768995666    -5.522E-06 3.773E-07 1.245E-04
 ETOT  5  -10.085768460526     5.351E-07 5.432E-08 3.139E-04
 ETOT  6  -10.085769157495    -6.970E-07 9.201E-08 4.428E-05
 ETOT  7  -10.085769240437    -8.294E-08 4.486E-09 2.719E-06
 ETOT  8  -10.085769245771    -5.334E-09 6.656E-10 2.196E-07
 ETOT  9  -10.085769246147    -3.756E-10 1.914E-10 3.289E-09
 ETOT 10  -10.085769246152    -5.144E-12 1.561E-11 4.808E-10
 ETOT 11  -10.085769246152     1.954E-14 3.490E-12 3.871E-10
 ETOT 12  -10.085769246153    -7.674E-13 2.889E-13 4.050E-11

 At SCF step   12, etot is converged : 
  for the second time, diff in etot=  7.674E-13 < toldfe=  1.000E-12

 Cartesian components of stress tensor (hartree/bohr^3)
  sigma(1 1)= -3.11040952E-06  sigma(3 2)=  0.00000000E+00
  sigma(2 2)= -3.11040952E-06  sigma(3 1)=  0.00000000E+00
  sigma(3 3)= -3.11040952E-06  sigma(2 1)=  0.00000000E+00

================================================================================

 ----iterations are completed or convergence reached----

 Mean square residual over all n,k,spin=   6.9126E-15; max=  2.8891E-13
  -0.0833 -0.1667  0.0000    1  2.88907E-13 kpt; spin; max resid(k); each band:
  1.02E-14 4.46E-15 2.37E-17 7.03E-16 2.89E-13
  -0.0833 -0.3333  0.0000    1  8.92937E-15 kpt; spin; max resid(k); each band:
  8.93E-15 4.57E-15 1.40E-17 1.05E-15 8.48E-15
  -0.1667 -0.2500  0.0000    1  6.09883E-15 kpt; spin; max resid(k); each band:
  4.48E-15 5.23E-15 1.23E-15 1.10E-17 6.10E-15
  -0.0833 -0.2500  0.0833    1  1.49088E-14 kpt; spin; max resid(k); each band:
  7.01E-15 4.49E-15 7.70E-16 1.32E-15 1.49E-14
  -0.0833  0.5000  0.0000    1  8.24721E-15 kpt; spin; max resid(k); each band:
  6.57E-15 2.91E-15 9.64E-16 1.39E-17 8.25E-15
  -0.1667 -0.4167  0.0000    1  8.90578E-15 kpt; spin; max resid(k); each band:
  5.85E-15 3.67E-15 4.47E-15 1.66E-16 8.91E-15
  -0.0833 -0.4167  0.0833    1  1.71313E-14 kpt; spin; max resid(k); each band:
  6.56E-15 2.88E-15 1.28E-15 1.08E-15 1.71E-14
  -0.2500 -0.3333  0.0000    1  7.94277E-15 kpt; spin; max resid(k); each band:
  4.27E-15 4.85E-15 1.68E-15 1.39E-16 7.94E-15
  -0.1667 -0.3333  0.0833    1  9.31726E-15 kpt; spin; max resid(k); each band:
  4.78E-15 3.99E-15 2.40E-15 2.59E-15 9.32E-15
  -0.0833 -0.3333  0.1667    1  2.42511E-14 kpt; spin; max resid(k); each band:
  4.03E-15 3.34E-15 6.46E-15 1.33E-15 2.43E-14
  -0.0833  0.3333  0.0000    1  8.13639E-15 kpt; spin; max resid(k); each band:
  8.14E-15 4.01E-15 8.03E-16 1.42E-17 8.06E-15
  -0.1667  0.4167  0.0000    1  1.02494E-14 kpt; spin; max resid(k); each band:
  4.17E-15 3.09E-15 4.97E-15 1.33E-16 1.02E-14
  -0.2500  0.5000  0.0000    1  1.05148E-14 kpt; spin; max resid(k); each band:
  3.93E-15 3.26E-15 7.22E-15 1.08E-16 1.05E-14
  -0.1667  0.5000  0.0833    1  1.09670E-14 kpt; spin; max resid(k); each band:
  3.47E-15 2.78E-15 6.37E-15 1.64E-15 1.10E-14
  -0.3333 -0.4167  0.0000    1  8.15278E-15 kpt; spin; max resid(k); each band:
  4.25E-15 3.28E-15 2.10E-15 8.56E-17 8.15E-15
  -0.2500 -0.4167  0.0833    1  1.08183E-14 kpt; spin; max resid(k); each band:
  4.10E-15 3.24E-15 4.35E-15 2.36E-15 1.08E-14
  -0.1667 -0.4167  0.1667    1  1.39476E-14 kpt; spin; max resid(k); each band:
  2.49E-15 2.13E-15 5.84E-15 5.56E-15 1.39E-14
  -0.0833 -0.4167  0.2500    1  1.14058E-14 kpt; spin; max resid(k); each band:
  2.18E-15 1.70E-15 9.54E-15 1.44E-15 1.14E-14
  -0.0833  0.1667  0.0000    1  1.13594E-14 kpt; spin; max resid(k); each band:
  1.14E-14 4.44E-15 6.45E-16 2.02E-17 9.28E-15
  -0.1667  0.2500  0.0000    1  1.13738E-14 kpt; spin; max resid(k); each band:
  6.78E-15 4.09E-15 4.03E-15 1.19E-17 1.14E-14
  -0.2500  0.3333  0.0000    1  1.07451E-14 kpt; spin; max resid(k); each band:
  3.07E-15 2.98E-15 8.73E-15 1.01E-16 1.07E-14
  -0.3333  0.4167  0.0000    1  1.16326E-14 kpt; spin; max resid(k); each band:
  2.52E-15 1.96E-15 8.84E-15 6.47E-17 1.16E-14
  -0.4167  0.5000  0.0000    1  8.45497E-15 kpt; spin; max resid(k); each band:
  3.99E-15 1.25E-15 2.44E-15 4.32E-17 8.45E-15
  -0.3333  0.5000  0.0833    1  1.19041E-14 kpt; spin; max resid(k); each band:
  3.03E-15 2.14E-15 5.80E-15 1.95E-15 1.19E-14
  -0.2500  0.5000  0.1667    1  1.34237E-14 kpt; spin; max resid(k); each band:
  1.68E-15 9.29E-16 7.20E-15 5.28E-15 1.34E-14
  -0.0833  0.0000  0.0000    1  1.71256E-14 kpt; spin; max resid(k); each band:
  1.71E-14 2.87E-15 4.58E-17 4.58E-17 1.56E-14
  -0.2500  0.0000  0.0000    1  1.02793E-14 kpt; spin; max resid(k); each band:
  1.03E-14 4.48E-15 2.11E-17 2.11E-17 8.43E-15
  -0.4167  0.0000  0.0000    1  7.79038E-15 kpt; spin; max resid(k); each band:
  7.44E-15 3.54E-15 1.57E-17 1.57E-17 7.79E-15
 reduced coordinates (array xred) for    2 atoms
       0.000000000000      0.000000000000      0.000000000000
       0.250000000000      0.250000000000      0.250000000000
 rms dE/dt=  6.7094E-31; max dE/dt=  1.6435E-30; dE/dt below (all hartree)
    1       0.000000000000      0.000000000000      0.000000000000
    2       0.000000000000      0.000000000000      0.000000000000

 cartesian coordinates (angstrom) at end:
    1      0.00000000000000     0.00000000000000     0.00000000000000
    2      1.39305900161317     1.39305900161317     1.39305900161317

 cartesian forces (hartree/bohr) at end:
    1      0.00000000000000    -0.00000000000000     0.00000000000000
    2     -0.00000000000000     0.00000000000000    -0.00000000000000
 frms,max,avg= 7.8037047E-32 7.8037047E-32   0.000E+00  0.000E+00  0.000E+00 h/b

 cartesian forces (eV/Angstrom) at end:
    1      0.00000000000000    -0.00000000000000     0.00000000000000
    2     -0.00000000000000     0.00000000000000    -0.00000000000000
 frms,max,avg= 4.0128260E-30 4.0128260E-30   0.000E+00  0.000E+00  0.000E+00 e/A
 length scales= 10.530000000000 10.530000000000 10.530000000000 bohr
              =  5.572236006453  5.572236006453  5.572236006453 angstroms
 prteigrs : about to open file tnlo_7o_EIG
 Fermi (or HOMO) energy (hartree) =   0.09082   Average Vxc (hartree)=  -0.34862
 Eigenvalues (hartree) for nkpt=  28  k points:
 kpt#   1, nband=  5, wtk=  0.02778, kpt= -0.0833 -0.1667  0.0000 (reduced coord)
  -0.34039   0.02841   0.07421   0.07855   0.22149
 kpt#   2, nband=  5, wtk=  0.02778, kpt= -0.0833 -0.3333  0.0000 (reduced coord)
  -0.31616  -0.06145   0.05899   0.06020   0.20477
 kpt#   3, nband=  5, wtk=  0.02778, kpt= -0.1667 -0.2500  0.0000 (reduced coord)
  -0.32699  -0.01090   0.05221   0.05265   0.20326
 kpt#   4, nband=  5, wtk=  0.05556, kpt= -0.0833 -0.2500  0.0833 (reduced coord)
  -0.32127  -0.03528   0.03414   0.06869   0.22638
 kpt#   5, nband=  5, wtk=  0.02778, kpt= -0.0833  0.5000  0.0000 (reduced coord)
  -0.29336  -0.11361   0.04538   0.05754   0.19502
 kpt#   6, nband=  5, wtk=  0.02778, kpt= -0.1667 -0.4167  0.0000 (reduced coord)
  -0.30051  -0.08206   0.02485   0.04332   0.20268
 kpt#   7, nband=  5, wtk=  0.05556, kpt= -0.0833 -0.4167  0.0833 (reduced coord)
  -0.29464  -0.09997   0.02023   0.05216   0.21673
 kpt#   8, nband=  5, wtk=  0.02778, kpt= -0.2500 -0.3333  0.0000 (reduced coord)
  -0.30829  -0.04742   0.02742   0.03351   0.17958
 kpt#   9, nband=  5, wtk=  0.05556, kpt= -0.1667 -0.3333  0.0833 (reduced coord)
  -0.30394  -0.06262   0.01140   0.04105   0.20747
 kpt#  10, nband=  5, wtk=  0.05556, kpt= -0.0833 -0.3333  0.1667 (reduced coord)
  -0.29587  -0.08015  -0.01054   0.04929   0.23450
 kpt#  11, nband=  5, wtk=  0.02778, kpt= -0.0833  0.3333  0.0000 (reduced coord)
  -0.30661  -0.08544   0.04299   0.06855   0.20101
 kpt#  12, nband=  5, wtk=  0.02778, kpt= -0.1667  0.4167  0.0000 (reduced coord)
  -0.28834  -0.10754   0.00599   0.05061   0.20660
 kpt#  13, nband=  5, wtk=  0.02778, kpt= -0.2500  0.5000  0.0000 (reduced coord)
  -0.28465  -0.09377  -0.01185   0.03109   0.18381
 kpt#  14, nband=  5, wtk=  0.05556, kpt= -0.1667  0.5000  0.0833 (reduced coord)
  -0.28368  -0.10233  -0.01017   0.03367   0.21250
 kpt#  15, nband=  5, wtk=  0.02778, kpt= -0.3333 -0.4167  0.0000 (reduced coord)
  -0.28832  -0.08081   0.00901   0.01936   0.15992
 kpt#  16, nband=  5, wtk=  0.05556, kpt= -0.2500 -0.4167  0.0833 (reduced coord)
  -0.28574  -0.08480  -0.00803   0.01804   0.18797
 kpt#  17, nband=  5, wtk=  0.05556, kpt= -0.1667 -0.4167  0.1667 (reduced coord)
  -0.28159  -0.09086  -0.02561   0.01836   0.23643
 kpt#  18, nband=  5, wtk=  0.05556, kpt= -0.0833 -0.4167  0.2500 (reduced coord)
  -0.27731  -0.09504  -0.03773   0.02459   0.20367
 kpt#  19, nband=  5, wtk=  0.02778, kpt= -0.0833  0.1667  0.0000 (reduced coord)
  -0.33396  -0.00346   0.05791   0.08576   0.21807
 kpt#  20, nband=  5, wtk=  0.02778, kpt= -0.1667  0.2500  0.0000 (reduced coord)
  -0.31029  -0.06071   0.01047   0.07064   0.22894
 kpt#  21, nband=  5, wtk=  0.02778, kpt= -0.2500  0.3333  0.0000 (reduced coord)
  -0.28604  -0.09178  -0.02879   0.04654   0.20281
 kpt#  22, nband=  5, wtk=  0.02778, kpt= -0.3333  0.4167  0.0000 (reduced coord)
  -0.27418  -0.09701  -0.03664   0.02459   0.17237
 kpt#  23, nband=  5, wtk=  0.02778, kpt= -0.4167  0.5000  0.0000 (reduced coord)
  -0.27391  -0.10305  -0.00088   0.01164   0.14833
 kpt#  24, nband=  5, wtk=  0.05556, kpt= -0.3333  0.5000  0.0833 (reduced coord)
  -0.27301  -0.09870  -0.02029   0.00630   0.17685
 kpt#  25, nband=  5, wtk=  0.05556, kpt= -0.2500  0.5000  0.1667 (reduced coord)
  -0.27249  -0.09395  -0.03332  -0.00406   0.22850
 kpt#  26, nband=  5, wtk=  0.00926, kpt= -0.0833  0.0000  0.0000 (reduced coord)
  -0.34712   0.06533   0.09082   0.09082   0.20121
 kpt#  27, nband=  5, wtk=  0.00926, kpt= -0.2500  0.0000  0.0000 (reduced coord)
  -0.32791  -0.03323   0.07491   0.07491   0.19496
 kpt#  28, nband=  5, wtk=  0.00926, kpt= -0.4167  0.0000  0.0000 (reduced coord)
  -0.30022  -0.10559   0.06422   0.06422   0.17998
 Total charge density [el/Bohr^3]
,     Maximum=    9.1432E-02  at reduced coord.    0.1667    0.1667    0.5000
,Next maximum=    9.1432E-02  at reduced coord.    0.1667    0.5000    0.1667
,     Minimum=    3.1553E-03  at reduced coord.    0.7500    0.7500    0.7500
,Next minimum=    3.4993E-03  at reduced coord.    0.5000    0.5000    0.5000
,  Integrated=    8.0000E+00

--------------------------------------------------------------------------------
 Components of total free energy (in Hartree) :

    Kinetic energy  =  2.91883505836490E+00
    Hartree energy  =  7.60835952672853E-01
    XC energy       = -4.34955589167097E+00
    Ewald energy    = -8.54432049481056E+00
    PspCore energy  =  7.51707252549085E-01
    Loc. psp. energy= -2.29227172281483E+00
    NL   psp  energy=  6.69000599556677E-01
    >>>>>>>>> Etotal= -1.00857692461528E+01

 Other information on the energy :
    Total energy(eV)= -2.74447738480448E+02 ; Band energy (Ha)=  -6.4906330610E-01
--------------------------------------------------------------------------------

 Cartesian components of stress tensor (hartree/bohr^3)
  sigma(1 1)= -3.11040952E-06  sigma(3 2)=  0.00000000E+00
  sigma(2 2)= -3.11040952E-06  sigma(3 1)=  0.00000000E+00
  sigma(3 3)= -3.11040952E-06  sigma(2 1)=  0.00000000E+00

-Cartesian components of stress tensor (GPa)         [Pressure=  9.1511E-02 GPa]
- sigma(1 1)= -9.15113921E-02  sigma(3 2)=  0.00000000E+00
- sigma(2 2)= -9.15113921E-02  sigma(3 1)=  0.00000000E+00
- sigma(3 3)= -9.15113921E-02  sigma(2 1)=  0.00000000E+00

== END DATASET(S) ==============================================================
================================================================================
  
 -outvars: echo values of variables after computation  --------
            acell      1.0530000000E+01  1.0530000000E+01  1.0530000000E+01 Bohr
              amu      2.69815390E+01  7.49215900E+01
          dilatmx      1.05000000E+00
             ecut      2.80000000E+00 Hartree
           ecutsm      5.00000000E-01 Hartree
           etotal     -1.0085769246E+01
            fcart      7.8037047446E-32 -7.8037047446E-32  7.8037047446E-32
                      -7.8037047446E-32  7.8037047446E-32 -7.8037047446E-32
-          fftalg         112
             iscf           5
              ixc           3
              kpt     -8.33333333E-02 -1.66666667E-01  0.00000000E+00
                      -8.33333333E-02 -3.33333333E-01  0.00000000E+00
                      -1.66666667E-01 -2.50000000E-01  0.00000000E+00
                      -8.33333333E-02 -2.50000000E-01  8.33333333E-02
                      -8.33333333E-02  5.00000000E-01  0.00000000E+00
                      -1.66666667E-01 -4.16666667E-01  0.00000000E+00
                      -8.33333333E-02 -4.16666667E-01  8.33333333E-02
                      -2.50000000E-01 -3.33333333E-01  0.00000000E+00
                      -1.66666667E-01 -3.33333333E-01  8.33333333E-02
                      -8.33333333E-02 -3.33333333E-01  1.66666667E-01
                      -8.33333333E-02  3.33333333E-01  0.00000000E+00
                      -1.66666667E-01  4.16666667E-01  0.00000000E+00
                      -2.50000000E-01  5.00000000E-01  0.00000000E+00
                      -1.66666667E-01  5.00000000E-01  8.33333333E-02
                      -3.33333333E-01 -4.16666667E-01  0.00000000E+00
                      -2.50000000E-01 -4.16666667E-01  8.33333333E-02
                      -1.66666667E-01 -4.16666667E-01  1.66666667E-01
                      -8.33333333E-02 -4.16666667E-01  2.50000000E-01
                      -8.33333333E-02  1.66666667E-01  0.00000000E+00
                      -1.66666667E-01  2.50000000E-01  0.00000000E+00
                      -2.50000000E-01  3.33333333E-01  0.00000000E+00
                      -3.33333333E-01  4.16666667E-01  0.00000000E+00
                      -4.16666667E-01  5.00000000E-01  0.00000000E+00
                      -3.33333333E-01  5.00000000E-01  8.33333333E-02
                      -2.50000000E-01  5.00000000E-01  1.66666667E-01
                      -8.33333333E-02  0.00000000E+00  0.00000000E+00
                      -2.50000000E-01  0.00000000E+00  0.00000000E+00
                      -4.16666667E-01  0.00000000E+00  0.00000000E+00
         kptrlatt        6   -6    6     -6    6    6     -6   -6    6
          kptrlen      6.31800000E+01
P           mkmem          28
            natom           2
            nband           5
            ngfft          12      12      12
             nkpt          28
            nstep         100
             nsym          24
           ntypat           2
              occ      2.000000  2.000000  2.000000  2.000000  0.000000
            rprim      0.0000000000E+00  5.0000000000E-01  5.0000000000E-01
                       5.0000000000E-01  0.0000000000E+00  5.0000000000E-01
                       5.0000000000E-01  5.0000000000E-01  0.0000000000E+00
           shiftk      5.00000000E-01  5.00000000E-01  5.00000000E-01
          spgroup         216
           strten     -3.1104095191E-06 -3.1104095191E-06 -3.1104095191E-06
                       0.0000000000E+00  0.0000000000E+00  0.0000000000E+00
           symrel      1  0  0   0  1  0   0  0  1       0 -1  1   0 -1  0   1 -1  0
                      -1  0  0  -1  0  1  -1  1  0       0  1 -1   1  0 -1   0  0 -1
                      -1  0  0  -1  1  0  -1  0  1       0 -1  1   1 -1  0   0 -1  0
                       1  0  0   0  0  1   0  1  0       0  1 -1   0  0 -1   1  0 -1
                      -1  0  1  -1  1  0  -1  0  0       0 -1  0   1 -1  0   0 -1  1
                       1  0 -1   0  0 -1   0  1 -1       0  1  0   0  0  1   1  0  0
                       1  0 -1   0  1 -1   0  0 -1       0 -1  0   0 -1  1   1 -1  0
                      -1  0  1  -1  0  0  -1  1  0       0  1  0   1  0  0   0  0  1
                       0  0 -1   0  1 -1   1  0 -1       1 -1  0   0 -1  1   0 -1  0
                       0  0  1   1  0  0   0  1  0      -1  1  0  -1  0  0  -1  0  1
                       0  0  1   0  1  0   1  0  0       1 -1  0   0 -1  0   0 -1  1
                       0  0 -1   1  0 -1   0  1 -1      -1  1  0  -1  0  1  -1  0  0
           toldfe      1.00000000E-12 Hartree
            typat      1  2
              wtk        0.02778    0.02778    0.02778    0.05556    0.02778    0.02778
                         0.05556    0.02778    0.05556    0.05556    0.02778    0.02778
                         0.02778    0.05556    0.02778    0.05556    0.05556    0.05556
                         0.02778    0.02778    0.02778    0.02778    0.02778    0.05556
                         0.05556    0.00926    0.00926    0.00926
           xangst      0.0000000000E+00  0.0000000000E+00  0.0000000000E+00
                       1.3930590016E+00  1.3930590016E+00  1.3930590016E+00
            xcart      0.0000000000E+00  0.0000000000E+00  0.0000000000E+00
                       2.6325000000E+00  2.6325000000E+00  2.6325000000E+00
             xred      0.0000000000E+00  0.0000000000E+00  0.0000000000E+00
                       2.5000000000E-01  2.5000000000E-01  2.5000000000E-01
            znucl       13.00000   33.00000

================================================================================


- Timing analysis has been suppressed with timopt=0



================================================================================

 Suggested references for the acknowledgment of ABINIT usage.

 The users of ABINIT have little formal obligations with respect to the ABINIT group
 (those specified in the GNU General Public License, http://www.gnu.org/copyleft/gpl.txt).
 However, it is common practice in the scientific literature,
 to acknowledge the efforts of people that have made the research possible.
 In this spirit, please find below suggested citations of work written by ABINIT developers,
 corresponding to implementations inside of ABINIT that you have used in the present run.
 Note also that it will be of great value to readers of publications presenting these results,
 to read papers enabling them to understand the theoretical formalism and details
 of the ABINIT implementation.
 For information on why they are suggested, see also http://www.abinit.org/about/?text=acknowledgments.

 [1] ABINIT : First-principles approach of materials and nanosystem properties.
 X. Gonze, B. Amadon, P.-M. Anglade, J.-M. Beuken, F. Bottin, P. Boulanger, F. Bruneval,
 D. Caliste, R. Caracas, M. Cote, T. Deutsch, L. Genovese, Ph. Ghosez, M. Giantomassi
 S. Goedecker, D.R. Hamann, P. Hermet, F. Jollet, G. Jomard, S. Leroux, M. Mancini, S. Mazevet,
 M.J.T. Oliveira, G. Onida, Y. Pouillon, T. Rangel, G.-M. Rignanese, D. Sangalli, R. Shaltaf,
 M. Torrent, M.J. Verstraete, G. Zerah, J.W. Zwanziger
 Computer Phys. Comm. 180, 2582-2615 (2009).
 Comment : the third generic paper describing the ABINIT project.
 Note that a version of this paper, that is not formatted for Computer Phys. Comm. 
 is available at http://www.abinit.org/about/ABINIT_CPC_v10.pdf .
 The licence allows the authors to put it on the Web.

 [2] A brief introduction to the ABINIT software package.
 X. Gonze, G.-M. Rignanese, M. Verstraete, J.-M. Beuken, Y. Pouillon, R. Caracas, F. Jollet,
 M. Torrent, G. Zerah, M. Mikami, Ph. Ghosez, M. Veithen, J.-Y. Raty, V. Olevano, F. Bruneval,
 L. Reining, R. Godby, G. Onida, D.R. Hamann, and D.C. Allan.
 Z. Kristallogr. 220, 558-562 (2005).
 Comment : the second generic paper describing the ABINIT project. Note that this paper
 should be cited especially if you are using the GW part of ABINIT, as several authors
 of this part are not in the list of authors of the first or third paper.
 The .pdf of the latter paper is available at http://www.abinit.org/about/zfk_0505-06_558-562.pdf.
 Note that it should not redistributed (Copyright by Oldenburg Wissenshaftverlag,
 the licence allows the authors to put it on the Web).


 And optionally :

 [3] First-principles computation of material properties : the ABINIT software project. 
 X. Gonze, J.-M. Beuken, R. Caracas, F. Detraux, M. Fuchs, G.-M. Rignanese, L. Sindic,
 M. Verstraete, G. Zerah, F. Jollet, M. Torrent, A. Roy, M. Mikami, Ph. Ghosez, J.-Y. Raty, D.C. Allan.
 Computational Materials Science 25, 478-492 (2002). http://dx.doi.org/10.1016/S0927-0256(02)00325-7
 Comment : the original paper describing the ABINIT project.

 [4] Fast radix 2, 3, 4 and 5 kernels for Fast Fourier Transformations
 on computers with overlapping multiply-add instructions.
 S. Goedecker, SIAM J. on Scientific Computing 18, 1605 (1997).

 [5] Towards a potential-based conjugate gradient algorithm for order-N self-consistent
 total energy calculations.
 X. Gonze, Phys. Rev. B 54, 4383 (1996).
 Comment : The potential-based conjugate-gradient algorithm, used when iscf=5, is not published.
 However, many elements of this algorithm have been explained in the paper above.
-
- Proc.   0 individual time (sec): cpu=          1.0  wall=          1.0

================================================================================

 Calculation completed.
.Delivered    2 WARNINGs and   0 COMMENTs to log file.
+Overall time at end (sec) : cpu=          1.0  wall=          1.0
