
.Version 7.10.4 of ABINIT 
.(MPI version, prepared for a x86_64_linux_gnu4.7 computer) 

.Copyright (C) 1998-2014 ABINIT group . 
 ABINIT comes with ABSOLUTELY NO WARRANTY.
 It is free software, and you are welcome to redistribute it
 under certain conditions (GNU General Public License,
 see ~abinit/COPYING or http://www.gnu.org/copyleft/gpl.txt).

 ABINIT is a project of the Universite Catholique de Louvain,
 Corning Inc. and other collaborators, see ~abinit/doc/developers/contributors.txt .
 Please read ~abinit/doc/users/acknowledgments.html for suggested
 acknowledgments of the ABINIT effort.
 For more information, see http://www.abinit.org .

.Starting date : Wed 11 Mar 2015.
- ( at 10h20 )
  
- input  file    -> trf1_6.in
- output file    -> trf1_6.out
- root for input  files -> trf1_6i
- root for output files -> trf1_6o


 DATASET    1 : space group F-4 3 m (#216); Bravais cF (face-center cubic)
================================================================================
 Values of the parameters that define the memory need for DATASET  1.
   intxc =         0  ionmov =         0    iscf =         5 xclevel =         1
  lmnmax =         3   lnmax =         3   mband =         4  mffmem =         1
P  mgfft =        12   mkmem =        10 mpssoang=         3     mpw =        77
  mqgrid =      3001   natom =         2    nfft =      1728    nkpt =        10
  nloalg =         4  nspden =         1 nspinor =         1  nsppol =         1
    nsym =        24  n1xccc =      2501  ntypat =         2  occopt =         1
================================================================================
P This job should need less than                       1.383 Mbytes of memory.
  Rough estimation (10% accuracy) of disk space for files :
_ WF disk file :      0.049 Mbytes ; DEN or POT disk file :      0.015 Mbytes.
================================================================================


 DATASET    2 : space group F-4 3 m (#216); Bravais cF (face-center cubic)
================================================================================
 Values of the parameters that define the memory need for DATASET  2 (RF).
   intxc =         0    iscf =         5 xclevel =         1  lmnmax =         3
   lnmax =         3   mband =         4  mffmem =         1   mgfft =        12
P  mkmem =       256  mkqmem =       256  mk1mem =       256 mpssoang=         3
     mpw =        77  mqgrid =      3001   natom =         2    nfft =      1728
    nkpt =       256  nloalg =         4  nspden =         1 nspinor =         1
  nsppol =         1    nsym =        24  n1xccc =      2501  ntypat =         2
  occopt =         1
================================================================================
P This job should need less than                       5.796 Mbytes of memory.
  Rough estimation (10% accuracy) of disk space for files :
_ WF disk file :      1.205 Mbytes ; DEN or POT disk file :      0.015 Mbytes.
================================================================================


 DATASET    3 : space group F-4 3 m (#216); Bravais cF (face-center cubic)
================================================================================
 Values of the parameters that define the memory need for DATASET  3 (RF).
   intxc =         0    iscf =         5 xclevel =         1  lmnmax =         3
   lnmax =         3   mband =         4  mffmem =         1   mgfft =        12
P  mkmem =       256  mkqmem =       256  mk1mem =       256 mpssoang=         3
     mpw =        77  mqgrid =      3001   natom =         2    nfft =      1728
    nkpt =       256  nloalg =         4  nspden =         1 nspinor =         1
  nsppol =         1    nsym =        24  n1xccc =      2501  ntypat =         2
  occopt =         1
================================================================================
P This job should need less than                       5.796 Mbytes of memory.
  Rough estimation (10% accuracy) of disk space for files :
_ WF disk file :      1.205 Mbytes ; DEN or POT disk file :      0.015 Mbytes.
================================================================================


 DATASET    4 : space group F-4 3 m (#216); Bravais cF (face-center cubic)
================================================================================
 Values of the parameters that define the memory need for DATASET  4.
   intxc =         0  ionmov =         0    iscf =        -2 xclevel =         1
  lmnmax =         3   lnmax =         3   mband =         4  mffmem =         1
P  mgfft =        12   mkmem =       256 mpssoang=         3     mpw =        78
  mqgrid =      3001   natom =         2    nfft =      1728    nkpt =       256
  nloalg =         4  nspden =         1 nspinor =         1  nsppol =         1
    nsym =        24  n1xccc =      2501  ntypat =         2  occopt =         1
================================================================================
P This job should need less than                       2.793 Mbytes of memory.
  Rough estimation (10% accuracy) of disk space for files :
_ WF disk file :      1.221 Mbytes ; DEN or POT disk file :      0.015 Mbytes.
================================================================================


 DATASET    5 : space group F-4 3 m (#216); Bravais cF (face-center cubic)
================================================================================
 Values of the parameters that define the memory need for DATASET  5 (RF).
   intxc =         0    iscf =         5 xclevel =         1  lmnmax =         3
   lnmax =         3   mband =         4  mffmem =         1   mgfft =        12
P  mkmem =       256  mkqmem =       256  mk1mem =       256 mpssoang=         3
     mpw =        78  mqgrid =      3001   natom =         2    nfft =      1728
    nkpt =       256  nloalg =         4  nspden =         1 nspinor =         1
  nsppol =         1    nsym =        24  n1xccc =      2501  ntypat =         2
  occopt =         1
================================================================================
P This job should need less than                       5.849 Mbytes of memory.
  Rough estimation (10% accuracy) of disk space for files :
_ WF disk file :      1.221 Mbytes ; DEN or POT disk file :      0.015 Mbytes.
================================================================================

--------------------------------------------------------------------------------
------------- Echo of variables that govern the present computation ------------
--------------------------------------------------------------------------------
-
- outvars: echo of selected default values                                      
-   accesswff0 =  0 , fftalg0 =112 , wfoptalg0 =  0
-
- outvars: echo of global parameters not present in the input file              
-  max_nthreads =    0
-
 -outvars: echo values of preprocessed input variables --------
            acell      1.0610000000E+01  1.0610000000E+01  1.0610000000E+01 Bohr
              amu      2.69815390E+01  7.49215900E+01
           diemac      9.00000000E+00
             ecut      3.00000000E+00 Hartree
-          fftalg         112
           getden1          0
           getden2          0
           getden3          0
           getden4          1
           getden5          0
           getwfk1          0
           getwfk2          1
           getwfk3          1
           getwfk4          1
           getwfk5          1
           getwfq1          0
           getwfq2          0
           getwfq3          0
           getwfq4          0
           getwfq5          4
             iscf1          5
             iscf2          5
             iscf3          5
             iscf4         -2
             iscf5          5
           jdtset        1    2    3    4    5
              kpt1     0.00000000E+00  0.00000000E+00 -1.25000000E-01
                       0.00000000E+00  0.00000000E+00 -3.75000000E-01
                       0.00000000E+00  1.25000000E-01 -2.50000000E-01
                       1.25000000E-01  1.25000000E-01 -1.25000000E-01
                       0.00000000E+00  1.25000000E-01  5.00000000E-01
                       0.00000000E+00  2.50000000E-01 -3.75000000E-01
                       1.25000000E-01  2.50000000E-01 -2.50000000E-01
                       2.50000000E-01  2.50000000E-01 -1.25000000E-01
                       0.00000000E+00  3.75000000E-01  5.00000000E-01
                       1.25000000E-01  3.75000000E-01 -3.75000000E-01
              kpt2     0.00000000E+00  0.00000000E+00 -1.25000000E-01
                       0.00000000E+00  0.00000000E+00 -3.75000000E-01
                       0.00000000E+00  1.25000000E-01 -2.50000000E-01
                       0.00000000E+00  2.50000000E-01 -1.25000000E-01
                       1.25000000E-01  0.00000000E+00 -2.50000000E-01
                       1.25000000E-01  1.25000000E-01 -1.25000000E-01
                       2.50000000E-01  0.00000000E+00 -1.25000000E-01
                       0.00000000E+00  0.00000000E+00  3.75000000E-01
                       0.00000000E+00  1.25000000E-01  5.00000000E-01
                       0.00000000E+00  2.50000000E-01 -3.75000000E-01
                       0.00000000E+00  3.75000000E-01 -2.50000000E-01
                       0.00000000E+00  5.00000000E-01 -1.25000000E-01
                       1.25000000E-01  0.00000000E+00  5.00000000E-01
                       1.25000000E-01  1.25000000E-01 -3.75000000E-01
                       1.25000000E-01  2.50000000E-01 -2.50000000E-01
                       1.25000000E-01  3.75000000E-01 -1.25000000E-01
                       2.50000000E-01  0.00000000E+00 -3.75000000E-01
                       2.50000000E-01  1.25000000E-01 -2.50000000E-01
                       2.50000000E-01  2.50000000E-01 -1.25000000E-01
                       3.75000000E-01  0.00000000E+00 -2.50000000E-01
                       3.75000000E-01  1.25000000E-01 -1.25000000E-01
                       5.00000000E-01  0.00000000E+00 -1.25000000E-01
                       0.00000000E+00  0.00000000E+00  1.25000000E-01
                       0.00000000E+00  1.25000000E-01  2.50000000E-01
                       0.00000000E+00  2.50000000E-01  3.75000000E-01
                       0.00000000E+00  3.75000000E-01  5.00000000E-01
                       0.00000000E+00  5.00000000E-01 -3.75000000E-01
                       0.00000000E+00 -3.75000000E-01 -2.50000000E-01
                       0.00000000E+00 -2.50000000E-01 -1.25000000E-01
                       1.25000000E-01  0.00000000E+00  2.50000000E-01
                       1.25000000E-01  1.25000000E-01  3.75000000E-01
                       1.25000000E-01  2.50000000E-01  5.00000000E-01
                       1.25000000E-01  3.75000000E-01 -3.75000000E-01
                       1.25000000E-01  5.00000000E-01 -2.50000000E-01
                       1.25000000E-01 -3.75000000E-01 -1.25000000E-01
                       2.50000000E-01  0.00000000E+00  3.75000000E-01
                       2.50000000E-01  1.25000000E-01  5.00000000E-01
                       2.50000000E-01  2.50000000E-01 -3.75000000E-01
                       2.50000000E-01  3.75000000E-01 -2.50000000E-01
                       2.50000000E-01  5.00000000E-01 -1.25000000E-01
                       3.75000000E-01  0.00000000E+00  5.00000000E-01
                       3.75000000E-01  1.25000000E-01 -3.75000000E-01
                       3.75000000E-01  2.50000000E-01 -2.50000000E-01
                       3.75000000E-01  3.75000000E-01 -1.25000000E-01
                       5.00000000E-01  0.00000000E+00 -3.75000000E-01
                       5.00000000E-01  1.25000000E-01 -2.50000000E-01
                       5.00000000E-01  2.50000000E-01 -1.25000000E-01
                      -3.75000000E-01  0.00000000E+00 -2.50000000E-01
                      -3.75000000E-01  1.25000000E-01 -1.25000000E-01
                      -2.50000000E-01  0.00000000E+00 -1.25000000E-01
              kpt3     0.00000000E+00  0.00000000E+00 -1.25000000E-01
                       0.00000000E+00  0.00000000E+00 -3.75000000E-01
                       0.00000000E+00  1.25000000E-01 -2.50000000E-01
                       0.00000000E+00  2.50000000E-01 -1.25000000E-01
                       1.25000000E-01  0.00000000E+00 -2.50000000E-01
                       1.25000000E-01  1.25000000E-01 -1.25000000E-01
                       2.50000000E-01  0.00000000E+00 -1.25000000E-01
                       0.00000000E+00  0.00000000E+00  3.75000000E-01
                       0.00000000E+00  1.25000000E-01  5.00000000E-01
                       0.00000000E+00  2.50000000E-01 -3.75000000E-01
                       0.00000000E+00  3.75000000E-01 -2.50000000E-01
                       0.00000000E+00  5.00000000E-01 -1.25000000E-01
                       1.25000000E-01  0.00000000E+00  5.00000000E-01
                       1.25000000E-01  1.25000000E-01 -3.75000000E-01
                       1.25000000E-01  2.50000000E-01 -2.50000000E-01
                       1.25000000E-01  3.75000000E-01 -1.25000000E-01
                       2.50000000E-01  0.00000000E+00 -3.75000000E-01
                       2.50000000E-01  1.25000000E-01 -2.50000000E-01
                       2.50000000E-01  2.50000000E-01 -1.25000000E-01
                       3.75000000E-01  0.00000000E+00 -2.50000000E-01
                       3.75000000E-01  1.25000000E-01 -1.25000000E-01
                       5.00000000E-01  0.00000000E+00 -1.25000000E-01
                       0.00000000E+00  0.00000000E+00  1.25000000E-01
                       0.00000000E+00  1.25000000E-01  2.50000000E-01
                       0.00000000E+00  2.50000000E-01  3.75000000E-01
                       0.00000000E+00  3.75000000E-01  5.00000000E-01
                       0.00000000E+00  5.00000000E-01 -3.75000000E-01
                       0.00000000E+00 -3.75000000E-01 -2.50000000E-01
                       0.00000000E+00 -2.50000000E-01 -1.25000000E-01
                       1.25000000E-01  0.00000000E+00  2.50000000E-01
                       1.25000000E-01  1.25000000E-01  3.75000000E-01
                       1.25000000E-01  2.50000000E-01  5.00000000E-01
                       1.25000000E-01  3.75000000E-01 -3.75000000E-01
                       1.25000000E-01  5.00000000E-01 -2.50000000E-01
                       1.25000000E-01 -3.75000000E-01 -1.25000000E-01
                       2.50000000E-01  0.00000000E+00  3.75000000E-01
                       2.50000000E-01  1.25000000E-01  5.00000000E-01
                       2.50000000E-01  2.50000000E-01 -3.75000000E-01
                       2.50000000E-01  3.75000000E-01 -2.50000000E-01
                       2.50000000E-01  5.00000000E-01 -1.25000000E-01
                       3.75000000E-01  0.00000000E+00  5.00000000E-01
                       3.75000000E-01  1.25000000E-01 -3.75000000E-01
                       3.75000000E-01  2.50000000E-01 -2.50000000E-01
                       3.75000000E-01  3.75000000E-01 -1.25000000E-01
                       5.00000000E-01  0.00000000E+00 -3.75000000E-01
                       5.00000000E-01  1.25000000E-01 -2.50000000E-01
                       5.00000000E-01  2.50000000E-01 -1.25000000E-01
                      -3.75000000E-01  0.00000000E+00 -2.50000000E-01
                      -3.75000000E-01  1.25000000E-01 -1.25000000E-01
                      -2.50000000E-01  0.00000000E+00 -1.25000000E-01
              kpt4     0.00000000E+00  0.00000000E+00 -1.25000000E-01
                       0.00000000E+00  0.00000000E+00 -3.75000000E-01
                       0.00000000E+00  1.25000000E-01 -2.50000000E-01
                       0.00000000E+00  2.50000000E-01 -1.25000000E-01
                       1.25000000E-01  0.00000000E+00 -2.50000000E-01
                       1.25000000E-01  1.25000000E-01 -1.25000000E-01
                       2.50000000E-01  0.00000000E+00 -1.25000000E-01
                       0.00000000E+00  0.00000000E+00  3.75000000E-01
                       0.00000000E+00  1.25000000E-01  5.00000000E-01
                       0.00000000E+00  2.50000000E-01 -3.75000000E-01
                       0.00000000E+00  3.75000000E-01 -2.50000000E-01
                       0.00000000E+00  5.00000000E-01 -1.25000000E-01
                       1.25000000E-01  0.00000000E+00  5.00000000E-01
                       1.25000000E-01  1.25000000E-01 -3.75000000E-01
                       1.25000000E-01  2.50000000E-01 -2.50000000E-01
                       1.25000000E-01  3.75000000E-01 -1.25000000E-01
                       2.50000000E-01  0.00000000E+00 -3.75000000E-01
                       2.50000000E-01  1.25000000E-01 -2.50000000E-01
                       2.50000000E-01  2.50000000E-01 -1.25000000E-01
                       3.75000000E-01  0.00000000E+00 -2.50000000E-01
                       3.75000000E-01  1.25000000E-01 -1.25000000E-01
                       5.00000000E-01  0.00000000E+00 -1.25000000E-01
                       0.00000000E+00  0.00000000E+00  1.25000000E-01
                       0.00000000E+00  1.25000000E-01  2.50000000E-01
                       0.00000000E+00  2.50000000E-01  3.75000000E-01
                       0.00000000E+00  3.75000000E-01  5.00000000E-01
                       0.00000000E+00  5.00000000E-01 -3.75000000E-01
                       0.00000000E+00 -3.75000000E-01 -2.50000000E-01
                       0.00000000E+00 -2.50000000E-01 -1.25000000E-01
                       1.25000000E-01  0.00000000E+00  2.50000000E-01
                       1.25000000E-01  1.25000000E-01  3.75000000E-01
                       1.25000000E-01  2.50000000E-01  5.00000000E-01
                       1.25000000E-01  3.75000000E-01 -3.75000000E-01
                       1.25000000E-01  5.00000000E-01 -2.50000000E-01
                       1.25000000E-01 -3.75000000E-01 -1.25000000E-01
                       2.50000000E-01  0.00000000E+00  3.75000000E-01
                       2.50000000E-01  1.25000000E-01  5.00000000E-01
                       2.50000000E-01  2.50000000E-01 -3.75000000E-01
                       2.50000000E-01  3.75000000E-01 -2.50000000E-01
                       2.50000000E-01  5.00000000E-01 -1.25000000E-01
                       3.75000000E-01  0.00000000E+00  5.00000000E-01
                       3.75000000E-01  1.25000000E-01 -3.75000000E-01
                       3.75000000E-01  2.50000000E-01 -2.50000000E-01
                       3.75000000E-01  3.75000000E-01 -1.25000000E-01
                       5.00000000E-01  0.00000000E+00 -3.75000000E-01
                       5.00000000E-01  1.25000000E-01 -2.50000000E-01
                       5.00000000E-01  2.50000000E-01 -1.25000000E-01
                      -3.75000000E-01  0.00000000E+00 -2.50000000E-01
                      -3.75000000E-01  1.25000000E-01 -1.25000000E-01
                      -2.50000000E-01  0.00000000E+00 -1.25000000E-01
              kpt5     0.00000000E+00  0.00000000E+00 -1.25000000E-01
                       0.00000000E+00  0.00000000E+00 -3.75000000E-01
                       0.00000000E+00  1.25000000E-01 -2.50000000E-01
                       0.00000000E+00  2.50000000E-01 -1.25000000E-01
                       1.25000000E-01  0.00000000E+00 -2.50000000E-01
                       1.25000000E-01  1.25000000E-01 -1.25000000E-01
                       2.50000000E-01  0.00000000E+00 -1.25000000E-01
                       0.00000000E+00  0.00000000E+00  3.75000000E-01
                       0.00000000E+00  1.25000000E-01  5.00000000E-01
                       0.00000000E+00  2.50000000E-01 -3.75000000E-01
                       0.00000000E+00  3.75000000E-01 -2.50000000E-01
                       0.00000000E+00  5.00000000E-01 -1.25000000E-01
                       1.25000000E-01  0.00000000E+00  5.00000000E-01
                       1.25000000E-01  1.25000000E-01 -3.75000000E-01
                       1.25000000E-01  2.50000000E-01 -2.50000000E-01
                       1.25000000E-01  3.75000000E-01 -1.25000000E-01
                       2.50000000E-01  0.00000000E+00 -3.75000000E-01
                       2.50000000E-01  1.25000000E-01 -2.50000000E-01
                       2.50000000E-01  2.50000000E-01 -1.25000000E-01
                       3.75000000E-01  0.00000000E+00 -2.50000000E-01
                       3.75000000E-01  1.25000000E-01 -1.25000000E-01
                       5.00000000E-01  0.00000000E+00 -1.25000000E-01
                       0.00000000E+00  0.00000000E+00  1.25000000E-01
                       0.00000000E+00  1.25000000E-01  2.50000000E-01
                       0.00000000E+00  2.50000000E-01  3.75000000E-01
                       0.00000000E+00  3.75000000E-01  5.00000000E-01
                       0.00000000E+00  5.00000000E-01 -3.75000000E-01
                       0.00000000E+00 -3.75000000E-01 -2.50000000E-01
                       0.00000000E+00 -2.50000000E-01 -1.25000000E-01
                       1.25000000E-01  0.00000000E+00  2.50000000E-01
                       1.25000000E-01  1.25000000E-01  3.75000000E-01
                       1.25000000E-01  2.50000000E-01  5.00000000E-01
                       1.25000000E-01  3.75000000E-01 -3.75000000E-01
                       1.25000000E-01  5.00000000E-01 -2.50000000E-01
                       1.25000000E-01 -3.75000000E-01 -1.25000000E-01
                       2.50000000E-01  0.00000000E+00  3.75000000E-01
                       2.50000000E-01  1.25000000E-01  5.00000000E-01
                       2.50000000E-01  2.50000000E-01 -3.75000000E-01
                       2.50000000E-01  3.75000000E-01 -2.50000000E-01
                       2.50000000E-01  5.00000000E-01 -1.25000000E-01
                       3.75000000E-01  0.00000000E+00  5.00000000E-01
                       3.75000000E-01  1.25000000E-01 -3.75000000E-01
                       3.75000000E-01  2.50000000E-01 -2.50000000E-01
                       3.75000000E-01  3.75000000E-01 -1.25000000E-01
                       5.00000000E-01  0.00000000E+00 -3.75000000E-01
                       5.00000000E-01  1.25000000E-01 -2.50000000E-01
                       5.00000000E-01  2.50000000E-01 -1.25000000E-01
                      -3.75000000E-01  0.00000000E+00 -2.50000000E-01
                      -3.75000000E-01  1.25000000E-01 -1.25000000E-01
                      -2.50000000E-01  0.00000000E+00 -1.25000000E-01
                       outvar_i_n : Printing only first  50 k-points.
           kptopt1          1
           kptopt2          3
           kptopt3          3
           kptopt4          3
           kptopt5          3
         kptrlatt       -4    4    4      4   -4    4      4    4   -4
          kptrlen      4.24400000E+01
P           mkmem1         10
P           mkmem2        256
P           mkmem3        256
P           mkmem4        256
P           mkmem5        256
P          mkqmem1         10
P          mkqmem2        256
P          mkqmem3        256
P          mkqmem4        256
P          mkqmem5        256
P          mk1mem1         10
P          mk1mem2        256
P          mk1mem3        256
P          mk1mem4        256
P          mk1mem5        256
            natom           2
            nband1          4
            nband2          4
            nband3          4
            nband4          4
            nband5          4
           nbdbuf1          0
           nbdbuf2          0
           nbdbuf3          0
           nbdbuf4          2
           nbdbuf5          0
           ndtset           5
            ngfft          12      12      12
             nkpt1         10
             nkpt2        256
             nkpt3        256
             nkpt4        256
             nkpt5        256
             nqpt1          0
             nqpt2          1
             nqpt3          1
             nqpt4          1
             nqpt5          1
            nstep          15
             nsym          24
           ntypat           2
              occ1     2.000000  2.000000  2.000000  2.000000
              occ2     2.000000  2.000000  2.000000  2.000000
              occ3     2.000000  2.000000  2.000000  2.000000
              occ5     2.000000  2.000000  2.000000  2.000000
        optdriver1          0
        optdriver2          1
        optdriver3          1
        optdriver4          0
        optdriver5          1
        optforces           1
              qpt1     0.00000000E+00  0.00000000E+00  0.00000000E+00
              qpt2     0.00000000E+00  5.00000000E-01  5.00000000E-01
              qpt3     5.00000000E-01  0.00000000E+00  0.00000000E+00
              qpt4     1.00000000E-01  0.00000000E+00  0.00000000E+00
              qpt5     1.00000000E-01  0.00000000E+00  0.00000000E+00
          rfatpol1          1       1
          rfatpol2          1       2
          rfatpol3          1       2
          rfatpol4          1       1
          rfatpol5          1       2
            rfdir1          0       0       0
            rfdir2          1       1       1
            rfdir3          1       1       1
            rfdir4          0       0       0
            rfdir5          1       1       1
           rfphon1          0
           rfphon2          1
           rfphon3          1
           rfphon4          0
           rfphon5          1
            rprim      0.0000000000E+00  5.0000000000E-01  5.0000000000E-01
                       5.0000000000E-01  0.0000000000E+00  5.0000000000E-01
                       5.0000000000E-01  5.0000000000E-01  0.0000000000E+00
           shiftk      5.00000000E-01  5.00000000E-01  5.00000000E-01
          spgroup         216
           symrel      1  0  0   0  1  0   0  0  1       0 -1  1   0 -1  0   1 -1  0
                      -1  0  0  -1  0  1  -1  1  0       0  1 -1   1  0 -1   0  0 -1
                      -1  0  0  -1  1  0  -1  0  1       0 -1  1   1 -1  0   0 -1  0
                       1  0  0   0  0  1   0  1  0       0  1 -1   0  0 -1   1  0 -1
                      -1  0  1  -1  1  0  -1  0  0       0 -1  0   1 -1  0   0 -1  1
                       1  0 -1   0  0 -1   0  1 -1       0  1  0   0  0  1   1  0  0
                       1  0 -1   0  1 -1   0  0 -1       0 -1  0   0 -1  1   1 -1  0
                      -1  0  1  -1  0  0  -1  1  0       0  1  0   1  0  0   0  0  1
                       0  0 -1   0  1 -1   1  0 -1       1 -1  0   0 -1  1   0 -1  0
                       0  0  1   1  0  0   0  1  0      -1  1  0  -1  0  0  -1  0  1
                       0  0  1   0  1  0   1  0  0       1 -1  0   0 -1  0   0 -1  1
                       0  0 -1   1  0 -1   0  1 -1      -1  1  0  -1  0  1  -1  0  0
           tolvrs1     1.00000000E-18
           tolvrs2     1.00000000E-08
           tolvrs3     1.00000000E-08
           tolvrs4     0.00000000E+00
           tolvrs5     1.00000000E-08
           tolwfr1     0.00000000E+00
           tolwfr2     0.00000000E+00
           tolwfr3     0.00000000E+00
           tolwfr4     1.00000000E-18
           tolwfr5     0.00000000E+00
            typat      1  2
              wtk1       0.03125    0.03125    0.09375    0.09375    0.09375    0.09375
                         0.18750    0.09375    0.09375    0.18750
              wtk2       0.00391    0.00391    0.00391    0.00391    0.00391    0.00391
                         0.00391    0.00391    0.00391    0.00391    0.00391    0.00391
                         0.00391    0.00391    0.00391    0.00391    0.00391    0.00391
                         0.00391    0.00391    0.00391    0.00391    0.00391    0.00391
                         0.00391    0.00391    0.00391    0.00391    0.00391    0.00391
                         0.00391    0.00391    0.00391    0.00391    0.00391    0.00391
                         0.00391    0.00391    0.00391    0.00391    0.00391    0.00391
                         0.00391    0.00391    0.00391    0.00391    0.00391    0.00391
                         0.00391    0.00391
              wtk3       0.00391    0.00391    0.00391    0.00391    0.00391    0.00391
                         0.00391    0.00391    0.00391    0.00391    0.00391    0.00391
                         0.00391    0.00391    0.00391    0.00391    0.00391    0.00391
                         0.00391    0.00391    0.00391    0.00391    0.00391    0.00391
                         0.00391    0.00391    0.00391    0.00391    0.00391    0.00391
                         0.00391    0.00391    0.00391    0.00391    0.00391    0.00391
                         0.00391    0.00391    0.00391    0.00391    0.00391    0.00391
                         0.00391    0.00391    0.00391    0.00391    0.00391    0.00391
                         0.00391    0.00391
              wtk4       0.00391    0.00391    0.00391    0.00391    0.00391    0.00391
                         0.00391    0.00391    0.00391    0.00391    0.00391    0.00391
                         0.00391    0.00391    0.00391    0.00391    0.00391    0.00391
                         0.00391    0.00391    0.00391    0.00391    0.00391    0.00391
                         0.00391    0.00391    0.00391    0.00391    0.00391    0.00391
                         0.00391    0.00391    0.00391    0.00391    0.00391    0.00391
                         0.00391    0.00391    0.00391    0.00391    0.00391    0.00391
                         0.00391    0.00391    0.00391    0.00391    0.00391    0.00391
                         0.00391    0.00391
              wtk5       0.00391    0.00391    0.00391    0.00391    0.00391    0.00391
                         0.00391    0.00391    0.00391    0.00391    0.00391    0.00391
                         0.00391    0.00391    0.00391    0.00391    0.00391    0.00391
                         0.00391    0.00391    0.00391    0.00391    0.00391    0.00391
                         0.00391    0.00391    0.00391    0.00391    0.00391    0.00391
                         0.00391    0.00391    0.00391    0.00391    0.00391    0.00391
                         0.00391    0.00391    0.00391    0.00391    0.00391    0.00391
                         0.00391    0.00391    0.00391    0.00391    0.00391    0.00391
                         0.00391    0.00391
                       outvars : Printing only first  50 k-points.
           xangst      0.0000000000E+00  0.0000000000E+00  0.0000000000E+00
                       1.4036425458E+00  1.4036425458E+00  1.4036425458E+00
            xcart      0.0000000000E+00  0.0000000000E+00  0.0000000000E+00
                       2.6525000000E+00  2.6525000000E+00  2.6525000000E+00
             xred      0.0000000000E+00  0.0000000000E+00  0.0000000000E+00
                       2.5000000000E-01  2.5000000000E-01  2.5000000000E-01
            znucl       13.00000   33.00000

================================================================================

 chkinp: Checking input parameters for consistency, jdtset=   1.

 chkinp: Checking input parameters for consistency, jdtset=   2.

 chkinp: Checking input parameters for consistency, jdtset=   3.

 chkinp: Checking input parameters for consistency, jdtset=   4.

 chkinp: Checking input parameters for consistency, jdtset=   5.

================================================================================
== DATASET  1 ==================================================================
-   nproc =    1

 Exchange-correlation functional for the present dataset will be:
  LDA: new Teter (4/93) with spin-polarized option - ixc=1
 Citation for XC functional:
  S. Goedecker, M. Teter, J. Huetter, PRB 54, 1703 (1996)

 Real(R)+Recip(G) space primitive vectors, cartesian coordinates (Bohr,Bohr^-1):
 R(1)=  0.0000000  5.3050000  5.3050000  G(1)= -0.0942507  0.0942507  0.0942507
 R(2)=  5.3050000  0.0000000  5.3050000  G(2)=  0.0942507 -0.0942507  0.0942507
 R(3)=  5.3050000  5.3050000  0.0000000  G(3)=  0.0942507  0.0942507 -0.0942507
 Unit cell volume ucvol=  2.9859750E+02 bohr^3
 Angles (23,13,12)=  6.00000000E+01  6.00000000E+01  6.00000000E+01 degrees

 getcut: wavevector=  0.0000  0.0000  0.0000  ngfft=  12  12  12
         ecut(hartree)=      3.000   => boxcut(ratio)=   2.05142

--- Pseudopotential description ------------------------------------------------
- pspini: atom type   1  psp file is /home/gonze/ABINIT/ABINITv7.10.4/trunk/7.10.4-private/tests/Psps_for_tests/13al.981214.fhi
- pspatm: opening atomic psp file    /home/gonze/ABINIT/ABINITv7.10.4/trunk/7.10.4-private/tests/Psps_for_tests/13al.981214.fhi
- Aluminum, fhi98PP : Hamann-type, LDA CA PerdewWang, l=2 local
- 13.00000   3.00000    981214                znucl, zion, pspdat
    6    7    2    2       493   0.00000      pspcod,pspxc,lmax,lloc,mmax,r2well
  No XC core correction.
  1.024700          amesh (Hamman grid)
 pspatm: epsatm=    1.36305739
         --- l  ekb(1:nproj) -->
             0    1.768744
             1    0.900554
 pspatm: atomic psp has been read  and splines computed

- pspini: atom type   2  psp file is /home/gonze/ABINIT/ABINITv7.10.4/trunk/7.10.4-private/tests/Psps_for_tests/33as.pspnc
- pspatm: opening atomic psp file    /home/gonze/ABINIT/ABINITv7.10.4/trunk/7.10.4-private/tests/Psps_for_tests/33as.pspnc
-  Troullier-Martins psp for element  As        Thu Oct 27 17:37:14 EDT 1994
- 33.00000   5.00000    940714                znucl, zion, pspdat
    1    1    1    1      2001   0.00000      pspcod,pspxc,lmax,lloc,mmax,r2well
    0   4.772  10.829    1   2.5306160        l,e99.0,e99.9,nproj,rcpsp
   0.00000000   0.00000000   0.00000000   0.00000000     rms, ekb1, ekb2, epsatm
    1   2.745   5.580    0   2.5306160        l,e99.0,e99.9,nproj,rcpsp
   0.00000000   0.00000000   0.00000000   0.00000000     rms, ekb1, ekb2, epsatm
    2.05731715564010    0.36322996461007    2.76014815959125   rchrg,fchrg,qchrg
 pspatm: epsatm=   27.20579911
         --- l  ekb(1:nproj) -->
             0    0.838751
 pspatm: atomic psp has been read  and splines computed

   2.28550852E+02                                ecore*ucvol(ha*bohr**3)
--------------------------------------------------------------------------------

P newkpt: treating      4 bands with npw=      65 for ikpt=   1 by node    0
P newkpt: treating      4 bands with npw=      74 for ikpt=   2 by node    0
P newkpt: treating      4 bands with npw=      74 for ikpt=   3 by node    0
P newkpt: treating      4 bands with npw=      69 for ikpt=   4 by node    0
P newkpt: treating      4 bands with npw=      74 for ikpt=   5 by node    0
P newkpt: treating      4 bands with npw=      76 for ikpt=   6 by node    0
P newkpt: treating      4 bands with npw=      76 for ikpt=   7 by node    0
P newkpt: treating      4 bands with npw=      77 for ikpt=   8 by node    0
P newkpt: treating      4 bands with npw=      76 for ikpt=   9 by node    0
P newkpt: treating      4 bands with npw=      75 for ikpt=  10 by node    0

_setup2: Arith. and geom. avg. npw (full set) are      74.469      74.418

================================================================================

     iter   Etot(hartree)      deltaE(h)  residm     vres2    diffor    maxfor
 ETOT  1  -9.7581651356197    -9.758E+00 6.703E-04 9.217E-01 0.000E+00 0.000E+00
 ETOT  2  -9.7624319188766    -4.267E-03 1.991E-10 5.211E-02 9.348E-29 9.348E-29
 ETOT  3  -9.7625326816512    -1.008E-04 6.766E-07 4.327E-02 1.492E-28 5.571E-29
 ETOT  4  -9.7626759509537    -1.433E-04 8.866E-07 2.789E-03 8.776E-29 8.449E-29
 ETOT  5  -9.7626832864061    -7.335E-06 6.359E-08 1.763E-04 9.112E-29 1.874E-29
 ETOT  6  -9.7626836926658    -4.063E-07 2.716E-09 2.125E-05 2.509E-29 6.345E-30
 ETOT  7  -9.7626837414641    -4.880E-08 4.941E-10 1.494E-06 6.493E-30 7.435E-31
 ETOT  8  -9.7626837445728    -3.109E-09 1.850E-11 1.886E-07 7.435E-31 0.000E+00
 ETOT  9  -9.7626837449722    -3.993E-10 3.628E-12 1.434E-08 6.196E-32 6.196E-32
 ETOT 10  -9.7626837449988    -2.669E-11 1.322E-13 1.875E-09 6.196E-32 0.000E+00
 ETOT 11  -9.7626837450025    -3.679E-12 2.725E-14 1.571E-10 0.000E+00 0.000E+00
 ETOT 12  -9.7626837450028    -2.647E-13 9.828E-16 2.112E-11 0.000E+00 0.000E+00
 ETOT 13  -9.7626837450028    -1.421E-14 1.201E-17 1.515E-11 0.000E+00 0.000E+00
 ETOT 14  -9.7626837450028    -1.954E-14 3.803E-16 1.083E-12 0.000E+00 0.000E+00
 ETOT 15  -9.7626837450028     4.441E-14 1.292E-17 5.898E-15 0.000E+00 0.000E+00

 Cartesian components of stress tensor (hartree/bohr^3)
  sigma(1 1)=  2.88203320E-04  sigma(3 2)=  0.00000000E+00
  sigma(2 2)=  2.88203320E-04  sigma(3 1)=  0.00000000E+00
  sigma(3 3)=  2.88203320E-04  sigma(2 1)=  0.00000000E+00


 scprqt:  WARNING -
  nstep=   15 was not enough SCF cycles to converge;
  potential residual=  5.898E-15 exceeds tolvrs=  1.000E-18

================================================================================

 ----iterations are completed or convergence reached----

 Mean square residual over all n,k,spin=   5.2085E-18; max=  1.2924E-17
   0.0000  0.0000 -0.1250    1  6.92433E-18 kpt; spin; max resid(k); each band:
  6.57E-18 6.92E-18 1.15E-19 1.15E-19
   0.0000  0.0000 -0.3750    1  4.77416E-18 kpt; spin; max resid(k); each band:
  4.77E-18 4.75E-18 1.22E-19 1.22E-19
   0.0000  0.1250 -0.2500    1  1.10758E-17 kpt; spin; max resid(k); each band:
  9.10E-18 1.11E-17 5.17E-18 9.60E-20
   0.1250  0.1250 -0.1250    1  1.12917E-17 kpt; spin; max resid(k); each band:
  1.13E-17 1.08E-17 8.63E-20 4.09E-18
   0.0000  0.1250  0.5000    1  7.76458E-18 kpt; spin; max resid(k); each band:
  7.76E-18 5.49E-18 7.69E-18 9.23E-20
   0.0000  0.2500 -0.3750    1  8.47696E-18 kpt; spin; max resid(k); each band:
  5.37E-18 8.45E-18 8.48E-18 6.66E-19
   0.1250  0.2500 -0.2500    1  1.19818E-17 kpt; spin; max resid(k); each band:
  9.46E-18 1.20E-17 6.75E-18 2.91E-18
   0.2500  0.2500 -0.1250    1  1.29239E-17 kpt; spin; max resid(k); each band:
  1.24E-17 1.29E-17 3.68E-18 5.60E-19
   0.0000  0.3750  0.5000    1  3.97523E-18 kpt; spin; max resid(k); each band:
  3.36E-18 3.98E-18 2.55E-18 3.28E-19
   0.1250  0.3750 -0.3750    1  5.62197E-18 kpt; spin; max resid(k); each band:
  3.56E-18 5.62E-18 5.22E-18 3.85E-18
 reduced coordinates (array xred) for    2 atoms
       0.000000000000      0.000000000000      0.000000000000
       0.250000000000      0.250000000000      0.250000000000
 rms dE/dt=  0.0000E+00; max dE/dt=  0.0000E+00; dE/dt below (all hartree)
    1       0.000000000000      0.000000000000      0.000000000000
    2       0.000000000000      0.000000000000      0.000000000000

 cartesian coordinates (angstrom) at end:
    1      0.00000000000000     0.00000000000000     0.00000000000000
    2      1.40364254578497     1.40364254578497     1.40364254578497

 cartesian forces (hartree/bohr) at end:
    1     -0.00000000000000    -0.00000000000000    -0.00000000000000
    2     -0.00000000000000    -0.00000000000000    -0.00000000000000
 frms,max,avg= 0.0000000E+00 0.0000000E+00   0.000E+00  0.000E+00  0.000E+00 h/b

 cartesian forces (eV/Angstrom) at end:
    1     -0.00000000000000    -0.00000000000000    -0.00000000000000
    2     -0.00000000000000    -0.00000000000000    -0.00000000000000
 frms,max,avg= 0.0000000E+00 0.0000000E+00   0.000E+00  0.000E+00  0.000E+00 e/A
 length scales= 10.610000000000 10.610000000000 10.610000000000 bohr
              =  5.614570183140  5.614570183140  5.614570183140 angstroms
 prteigrs : about to open file trf1_6o_DS1_EIG
 Fermi (or HOMO) energy (hartree) =   0.07884   Average Vxc (hartree)=  -0.33469
 Eigenvalues (hartree) for nkpt=  10  k points:
 kpt#   1, nband=  4, wtk=  0.03125, kpt=  0.0000  0.0000 -0.1250 (reduced coord)
  -0.34831   0.03299   0.07884   0.07884
 kpt#   2, nband=  4, wtk=  0.03125, kpt=  0.0000  0.0000 -0.3750 (reduced coord)
  -0.31097  -0.10010   0.05564   0.05564
 kpt#   3, nband=  4, wtk=  0.09375, kpt=  0.0000  0.1250 -0.2500 (reduced coord)
  -0.32072  -0.06308   0.01995   0.06499
 kpt#   4, nband=  4, wtk=  0.09375, kpt=  0.1250  0.1250 -0.1250 (reduced coord)
  -0.33314  -0.02143   0.05015   0.05249
 kpt#   5, nband=  4, wtk=  0.09375, kpt=  0.0000  0.1250  0.5000 (reduced coord)
  -0.29747  -0.11672   0.01923   0.04186
 kpt#   6, nband=  4, wtk=  0.09375, kpt=  0.0000  0.2500 -0.3750 (reduced coord)
  -0.28877  -0.10539  -0.03600   0.03149
 kpt#   7, nband=  4, wtk=  0.18750, kpt=  0.1250  0.2500 -0.2500 (reduced coord)
  -0.29952  -0.09297  -0.01299   0.03113
 kpt#   8, nband=  4, wtk=  0.09375, kpt=  0.2500  0.2500 -0.1250 (reduced coord)
  -0.30791  -0.07156   0.00805   0.02143
 kpt#   9, nband=  4, wtk=  0.09375, kpt=  0.0000  0.3750  0.5000 (reduced coord)
  -0.28309  -0.10667  -0.01759   0.00608
 kpt#  10, nband=  4, wtk=  0.18750, kpt=  0.1250  0.3750 -0.3750 (reduced coord)
  -0.28170  -0.10282  -0.03908  -0.00164
 Total charge density [el/Bohr^3]
,     Maximum=    9.2541E-02  at reduced coord.    0.1667    0.1667    0.5000
,Next maximum=    9.2541E-02  at reduced coord.    0.1667    0.5000    0.1667
,     Minimum=    2.9515E-03  at reduced coord.    0.7500    0.7500    0.7500
,Next minimum=    3.3927E-03  at reduced coord.    0.7500    0.7500    0.6667
,  Integrated=    8.0000E+00

--------------------------------------------------------------------------------
 Components of total free energy (in Hartree) :

    Kinetic energy  =  2.91979676883075E+00
    Hartree energy  =  7.88574633743697E-01
    XC energy       = -3.93301605978560E+00
    Ewald energy    = -8.47989583509473E+00
    PspCore energy  =  7.65414498117115E-01
    Loc. psp. energy= -2.41963687424183E+00
    NL   psp  energy=  5.96079123427828E-01
    >>>>>>>>> Etotal= -9.76268374500278E+00

 Other information on the energy :
    Total energy(eV)= -2.65656134889053E+02 ; Band energy (Ha)=  -7.1353552528E-01
--------------------------------------------------------------------------------

 Cartesian components of stress tensor (hartree/bohr^3)
  sigma(1 1)=  2.88203320E-04  sigma(3 2)=  0.00000000E+00
  sigma(2 2)=  2.88203320E-04  sigma(3 1)=  0.00000000E+00
  sigma(3 3)=  2.88203320E-04  sigma(2 1)=  0.00000000E+00

-Cartesian components of stress tensor (GPa)         [Pressure= -8.4792E+00 GPa]
- sigma(1 1)=  8.47923299E+00  sigma(3 2)=  0.00000000E+00
- sigma(2 2)=  8.47923299E+00  sigma(3 1)=  0.00000000E+00
- sigma(3 3)=  8.47923299E+00  sigma(2 1)=  0.00000000E+00

================================================================================
== DATASET  2 ==================================================================
-   nproc =    1

 mkfilename : getwfk/=0, take file _WFK from output of DATASET   1.

 Exchange-correlation functional for the present dataset will be:
  LDA: new Teter (4/93) with spin-polarized option - ixc=1
 Citation for XC functional:
  S. Goedecker, M. Teter, J. Huetter, PRB 54, 1703 (1996)

 Real(R)+Recip(G) space primitive vectors, cartesian coordinates (Bohr,Bohr^-1):
 R(1)=  0.0000000  5.3050000  5.3050000  G(1)= -0.0942507  0.0942507  0.0942507
 R(2)=  5.3050000  0.0000000  5.3050000  G(2)=  0.0942507 -0.0942507  0.0942507
 R(3)=  5.3050000  5.3050000  0.0000000  G(3)=  0.0942507  0.0942507 -0.0942507
 Unit cell volume ucvol=  2.9859750E+02 bohr^3
 Angles (23,13,12)=  6.00000000E+01  6.00000000E+01  6.00000000E+01 degrees
 setup1 : take into account q-point for computing boxcut.

 getcut: wavevector=  0.0000  0.5000  0.5000  ngfft=  12  12  12
         ecut(hartree)=      3.000   => boxcut(ratio)=   1.88823

--- Pseudopotential description ------------------------------------------------
- pspini: atom type   1  psp file is /home/gonze/ABINIT/ABINITv7.10.4/trunk/7.10.4-private/tests/Psps_for_tests/13al.981214.fhi
- pspatm: opening atomic psp file    /home/gonze/ABINIT/ABINITv7.10.4/trunk/7.10.4-private/tests/Psps_for_tests/13al.981214.fhi
- Aluminum, fhi98PP : Hamann-type, LDA CA PerdewWang, l=2 local
- 13.00000   3.00000    981214                znucl, zion, pspdat
    6    7    2    2       493   0.00000      pspcod,pspxc,lmax,lloc,mmax,r2well
  No XC core correction.
  1.024700          amesh (Hamman grid)
 pspatm: epsatm=    1.36305739
         --- l  ekb(1:nproj) -->
             0    1.768744
             1    0.900554
 pspatm: atomic psp has been read  and splines computed

- pspini: atom type   2  psp file is /home/gonze/ABINIT/ABINITv7.10.4/trunk/7.10.4-private/tests/Psps_for_tests/33as.pspnc
- pspatm: opening atomic psp file    /home/gonze/ABINIT/ABINITv7.10.4/trunk/7.10.4-private/tests/Psps_for_tests/33as.pspnc
-  Troullier-Martins psp for element  As        Thu Oct 27 17:37:14 EDT 1994
- 33.00000   5.00000    940714                znucl, zion, pspdat
    1    1    1    1      2001   0.00000      pspcod,pspxc,lmax,lloc,mmax,r2well
    0   4.772  10.829    1   2.5306160        l,e99.0,e99.9,nproj,rcpsp
   0.00000000   0.00000000   0.00000000   0.00000000     rms, ekb1, ekb2, epsatm
    1   2.745   5.580    0   2.5306160        l,e99.0,e99.9,nproj,rcpsp
   0.00000000   0.00000000   0.00000000   0.00000000     rms, ekb1, ekb2, epsatm
    2.05731715564010    0.36322996461007    2.76014815959125   rchrg,fchrg,qchrg
 pspatm: epsatm=   27.20579911
         --- l  ekb(1:nproj) -->
             0    0.838751
 pspatm: atomic psp has been read  and splines computed

--------------------------------------------------------------------------------

-inwffil : will read wavefunctions from disk file trf1_6o_DS1_WFK
- newkpt: read input wf with ikpt,npw=   1      65, make ikpt,npw=   1      65
- newkpt: read input wf with ikpt,npw=   2      74, make ikpt,npw=   2      74
- newkpt: read input wf with ikpt,npw=   3      74, make ikpt,npw=   3      74
- newkpt: read input wf with ikpt,npw=   3      74, make ikpt,npw=   4      74
- newkpt: read input wf with ikpt,npw=   3      74, make ikpt,npw=   5      74
- newkpt: read input wf with ikpt,npw=   4      69, make ikpt,npw=   6      69
- newkpt: read input wf with ikpt,npw=   3      74, make ikpt,npw=   7      74
- newkpt: read input wf with ikpt,npw=   2      74, make ikpt,npw=   8      74
- newkpt: read input wf with ikpt,npw=   5      74, make ikpt,npw=   9      74
- newkpt: read input wf with ikpt,npw=   6      76, make ikpt,npw=  10      76
- newkpt: read input wf with ikpt,npw=   6      76, make ikpt,npw=  11      76
- newkpt: read input wf with ikpt,npw=   5      74, make ikpt,npw=  12      74
- newkpt: read input wf with ikpt,npw=   5      74, make ikpt,npw=  13      74
- newkpt: read input wf with ikpt,npw=   5      74, make ikpt,npw=  14      74
- newkpt: read input wf with ikpt,npw=   7      76, make ikpt,npw=  15      76
- newkpt: read input wf with ikpt,npw=   7      76, make ikpt,npw=  16      76
- newkpt: read input wf with ikpt,npw=   6      76, make ikpt,npw=  17      76
- newkpt: read input wf with ikpt,npw=   7      76, make ikpt,npw=  18      76
- newkpt: read input wf with ikpt,npw=   8      77, make ikpt,npw=  19      77
- newkpt: read input wf with ikpt,npw=   6      76, make ikpt,npw=  20      76
- newkpt: read input wf with ikpt,npw=   7      76, make ikpt,npw=  21      76
- newkpt: read input wf with ikpt,npw=   5      74, make ikpt,npw=  22      74
- newkpt: read input wf with ikpt,npw=   1      65, make ikpt,npw=  23      65
- newkpt: read input wf with ikpt,npw=   4      69, make ikpt,npw=  24      69
- newkpt: read input wf with ikpt,npw=   8      77, make ikpt,npw=  25      77
- newkpt: read input wf with ikpt,npw=   9      76, make ikpt,npw=  26      76
- newkpt: read input wf with ikpt,npw=   9      76, make ikpt,npw=  27      76
- newkpt: read input wf with ikpt,npw=   8      77, make ikpt,npw=  28      77
- newkpt: read input wf with ikpt,npw=   4      69, make ikpt,npw=  29      69
- newkpt: read input wf with ikpt,npw=   4      69, make ikpt,npw=  30      69
- newkpt: read input wf with ikpt,npw=   3      74, make ikpt,npw=  31      74
- newkpt: read input wf with ikpt,npw=   7      76, make ikpt,npw=  32      76
- newkpt: read input wf with ikpt,npw=  10      75, make ikpt,npw=  33      75
- newkpt: read input wf with ikpt,npw=  10      75, make ikpt,npw=  34      75
- newkpt: read input wf with ikpt,npw=   7      76, make ikpt,npw=  35      76
- newkpt: read input wf with ikpt,npw=   8      77, make ikpt,npw=  36      77
- newkpt: read input wf with ikpt,npw=   7      76, make ikpt,npw=  37      76
- newkpt: read input wf with ikpt,npw=   6      76, make ikpt,npw=  38      76
- newkpt: read input wf with ikpt,npw=  10      75, make ikpt,npw=  39      75
- newkpt: read input wf with ikpt,npw=  10      75, make ikpt,npw=  40      75
- newkpt: read input wf with ikpt,npw=   9      76, make ikpt,npw=  41      76
- newkpt: read input wf with ikpt,npw=  10      75, make ikpt,npw=  42      75
- newkpt: read input wf with ikpt,npw=  10      75, make ikpt,npw=  43      75
- newkpt: read input wf with ikpt,npw=   9      76, make ikpt,npw=  44      76
- newkpt: read input wf with ikpt,npw=   9      76, make ikpt,npw=  45      76
- newkpt: read input wf with ikpt,npw=  10      75, make ikpt,npw=  46      75
- newkpt: read input wf with ikpt,npw=  10      75, make ikpt,npw=  47      75
- newkpt: read input wf with ikpt,npw=   8      77, make ikpt,npw=  48      77
- newkpt: read input wf with ikpt,npw=   7      76, make ikpt,npw=  49      76
- newkpt: read input wf with ikpt,npw=   4      69, make ikpt,npw=  50      69
- newkpt : prtvol=0 or 1, do not print more k-points.


 ==>  initialize data related to q vector <== 

 The list of irreducible perturbations for this q vector is:
    1)    idir= 1    ipert=   1
    2)    idir= 2    ipert=   1
    3)    idir= 1    ipert=   2
    4)    idir= 2    ipert=   2

================================================================================

 The perturbation idir=   3  ipert=   1 is
 symmetric of a previously calculated perturbation.
 So, its SCF calculation is not needed.


 The perturbation idir=   3  ipert=   2 is
 symmetric of a previously calculated perturbation.
 So, its SCF calculation is not needed.


--------------------------------------------------------------------------------
 Perturbation wavevector (in red.coord.)   0.000000  0.500000  0.500000
 Perturbation : displacement of atom   1   along direction   1
 Found     2 symmetries that leave the perturbation invariant.
 symkpt : the number of k-points, thanks to the symmetries,
 is reduced to   144 .

--------------------------------------------------------------------------------

-inwffil : will read wavefunctions from disk file trf1_6o_DS1_WFK
- newkpt: read input wf with ikpt,npw=   1      65, make ikpt,npw=   1      65
- newkpt: read input wf with ikpt,npw=   2      74, make ikpt,npw=   2      74
- newkpt: read input wf with ikpt,npw=   3      74, make ikpt,npw=   3      74
- newkpt: read input wf with ikpt,npw=   3      74, make ikpt,npw=   4      74
- newkpt: read input wf with ikpt,npw=   3      74, make ikpt,npw=   5      74
- newkpt: read input wf with ikpt,npw=   4      69, make ikpt,npw=   6      69
- newkpt: read input wf with ikpt,npw=   3      74, make ikpt,npw=   7      74
- newkpt: read input wf with ikpt,npw=   2      74, make ikpt,npw=   8      74
- newkpt: read input wf with ikpt,npw=   5      74, make ikpt,npw=   9      74
- newkpt: read input wf with ikpt,npw=   6      76, make ikpt,npw=  10      76
- newkpt: read input wf with ikpt,npw=   6      76, make ikpt,npw=  11      76
- newkpt: read input wf with ikpt,npw=   5      74, make ikpt,npw=  12      74
- newkpt: read input wf with ikpt,npw=   5      74, make ikpt,npw=  13      74
- newkpt: read input wf with ikpt,npw=   5      74, make ikpt,npw=  14      74
- newkpt: read input wf with ikpt,npw=   7      76, make ikpt,npw=  15      76
- newkpt: read input wf with ikpt,npw=   7      76, make ikpt,npw=  16      76
- newkpt: read input wf with ikpt,npw=   6      76, make ikpt,npw=  17      76
- newkpt: read input wf with ikpt,npw=   7      76, make ikpt,npw=  18      76
- newkpt: read input wf with ikpt,npw=   8      77, make ikpt,npw=  19      77
- newkpt: read input wf with ikpt,npw=   6      76, make ikpt,npw=  20      76
- newkpt: read input wf with ikpt,npw=   7      76, make ikpt,npw=  21      76
- newkpt: read input wf with ikpt,npw=   5      74, make ikpt,npw=  22      74
- newkpt: read input wf with ikpt,npw=   1      65, make ikpt,npw=  23      65
- newkpt: read input wf with ikpt,npw=   4      69, make ikpt,npw=  24      69
- newkpt: read input wf with ikpt,npw=   8      77, make ikpt,npw=  25      77
- newkpt: read input wf with ikpt,npw=   9      76, make ikpt,npw=  26      76
- newkpt: read input wf with ikpt,npw=   9      76, make ikpt,npw=  27      76
- newkpt: read input wf with ikpt,npw=   8      77, make ikpt,npw=  28      77
- newkpt: read input wf with ikpt,npw=   4      69, make ikpt,npw=  29      69
- newkpt: read input wf with ikpt,npw=   4      69, make ikpt,npw=  30      69
- newkpt: read input wf with ikpt,npw=   3      74, make ikpt,npw=  31      74
- newkpt: read input wf with ikpt,npw=   7      76, make ikpt,npw=  32      76
- newkpt: read input wf with ikpt,npw=  10      75, make ikpt,npw=  33      75
- newkpt: read input wf with ikpt,npw=  10      75, make ikpt,npw=  34      75
- newkpt: read input wf with ikpt,npw=   7      76, make ikpt,npw=  35      76
- newkpt: read input wf with ikpt,npw=   8      77, make ikpt,npw=  36      77
- newkpt: read input wf with ikpt,npw=   7      76, make ikpt,npw=  37      76
- newkpt: read input wf with ikpt,npw=   6      76, make ikpt,npw=  38      76
- newkpt: read input wf with ikpt,npw=  10      75, make ikpt,npw=  39      75
- newkpt: read input wf with ikpt,npw=  10      75, make ikpt,npw=  40      75
- newkpt: read input wf with ikpt,npw=   9      76, make ikpt,npw=  41      76
- newkpt: read input wf with ikpt,npw=  10      75, make ikpt,npw=  42      75
- newkpt: read input wf with ikpt,npw=  10      75, make ikpt,npw=  43      75
- newkpt: read input wf with ikpt,npw=   9      76, make ikpt,npw=  44      76
- newkpt: read input wf with ikpt,npw=   9      76, make ikpt,npw=  45      76
- newkpt: read input wf with ikpt,npw=  10      75, make ikpt,npw=  46      75
- newkpt: read input wf with ikpt,npw=  10      75, make ikpt,npw=  47      75
- newkpt: read input wf with ikpt,npw=   8      77, make ikpt,npw=  48      77
- newkpt: read input wf with ikpt,npw=   7      76, make ikpt,npw=  49      76
- newkpt: read input wf with ikpt,npw=   4      69, make ikpt,npw=  50      69
- newkpt : prtvol=0 or 1, do not print more k-points.

--------------------------------------------------------------------------------

-inwffil : will read wavefunctions from disk file trf1_6o_DS1_WFK
- newkpt: read input wf with ikpt,npw=   9      76, make ikpt,npw=   1      76
- newkpt: read input wf with ikpt,npw=   5      74, make ikpt,npw=   2      74
- newkpt: read input wf with ikpt,npw=   6      76, make ikpt,npw=   3      76
- newkpt: read input wf with ikpt,npw=   6      76, make ikpt,npw=   4      76
- newkpt: read input wf with ikpt,npw=   7      76, make ikpt,npw=   5      76
- newkpt: read input wf with ikpt,npw=  10      75, make ikpt,npw=   6      75
- newkpt: read input wf with ikpt,npw=   7      76, make ikpt,npw=   7      76
- newkpt: read input wf with ikpt,npw=   5      74, make ikpt,npw=   8      74
- newkpt: read input wf with ikpt,npw=   2      74, make ikpt,npw=   9      74
- newkpt: read input wf with ikpt,npw=   3      74, make ikpt,npw=  10      74
- newkpt: read input wf with ikpt,npw=   3      74, make ikpt,npw=  11      74
- newkpt: read input wf with ikpt,npw=   2      74, make ikpt,npw=  12      74
- newkpt: read input wf with ikpt,npw=   5      74, make ikpt,npw=  13      74
- newkpt: read input wf with ikpt,npw=   5      74, make ikpt,npw=  14      74
- newkpt: read input wf with ikpt,npw=   7      76, make ikpt,npw=  15      76
- newkpt: read input wf with ikpt,npw=   7      76, make ikpt,npw=  16      76
- newkpt: read input wf with ikpt,npw=   7      76, make ikpt,npw=  17      76
- newkpt: read input wf with ikpt,npw=   6      76, make ikpt,npw=  18      76
- newkpt: read input wf with ikpt,npw=  10      75, make ikpt,npw=  19      75
- newkpt: read input wf with ikpt,npw=   7      76, make ikpt,npw=  20      76
- newkpt: read input wf with ikpt,npw=   6      76, make ikpt,npw=  21      76
- newkpt: read input wf with ikpt,npw=   5      74, make ikpt,npw=  22      74
- newkpt: read input wf with ikpt,npw=   9      76, make ikpt,npw=  23      76
- newkpt: read input wf with ikpt,npw=   8      77, make ikpt,npw=  24      77
- newkpt: read input wf with ikpt,npw=   4      69, make ikpt,npw=  25      69
- newkpt: read input wf with ikpt,npw=   1      65, make ikpt,npw=  26      65
- newkpt: read input wf with ikpt,npw=   1      65, make ikpt,npw=  27      65
- newkpt: read input wf with ikpt,npw=   4      69, make ikpt,npw=  28      69
- newkpt: read input wf with ikpt,npw=   8      77, make ikpt,npw=  29      77
- newkpt: read input wf with ikpt,npw=  10      75, make ikpt,npw=  30      75
- newkpt: read input wf with ikpt,npw=   7      76, make ikpt,npw=  31      76
- newkpt: read input wf with ikpt,npw=   3      74, make ikpt,npw=  32      74
- newkpt: read input wf with ikpt,npw=   4      69, make ikpt,npw=  33      69
- newkpt: read input wf with ikpt,npw=   4      69, make ikpt,npw=  34      69
- newkpt: read input wf with ikpt,npw=   3      74, make ikpt,npw=  35      74
- newkpt: read input wf with ikpt,npw=  10      75, make ikpt,npw=  36      75
- newkpt: read input wf with ikpt,npw=   6      76, make ikpt,npw=  37      76
- newkpt: read input wf with ikpt,npw=   7      76, make ikpt,npw=  38      76
- newkpt: read input wf with ikpt,npw=   8      77, make ikpt,npw=  39      77
- newkpt: read input wf with ikpt,npw=   8      77, make ikpt,npw=  40      77
- newkpt: read input wf with ikpt,npw=   9      76, make ikpt,npw=  41      76
- newkpt: read input wf with ikpt,npw=  10      75, make ikpt,npw=  42      75
- newkpt: read input wf with ikpt,npw=  10      75, make ikpt,npw=  43      75
- newkpt: read input wf with ikpt,npw=   9      76, make ikpt,npw=  44      76
- newkpt: read input wf with ikpt,npw=   9      76, make ikpt,npw=  45      76
- newkpt: read input wf with ikpt,npw=  10      75, make ikpt,npw=  46      75
- newkpt: read input wf with ikpt,npw=  10      75, make ikpt,npw=  47      75
- newkpt: read input wf with ikpt,npw=  10      75, make ikpt,npw=  48      75
- newkpt: read input wf with ikpt,npw=   6      76, make ikpt,npw=  49      76
- newkpt: read input wf with ikpt,npw=  10      75, make ikpt,npw=  50      75
- newkpt : prtvol=0 or 1, do not print more k-points.

 Initialisation of the first-order wave-functions :
  ireadwf=   0
P newkpt: treating      4 bands with npw=      76 for ikpt=   1 by node    0
P newkpt: treating      4 bands with npw=      74 for ikpt=   2 by node    0
P newkpt: treating      4 bands with npw=      76 for ikpt=   3 by node    0
P newkpt: treating      4 bands with npw=      76 for ikpt=   4 by node    0
P newkpt: treating      4 bands with npw=      76 for ikpt=   5 by node    0
P newkpt: treating      4 bands with npw=      75 for ikpt=   6 by node    0
P newkpt: treating      4 bands with npw=      76 for ikpt=   7 by node    0
P newkpt: treating      4 bands with npw=      74 for ikpt=   8 by node    0
P newkpt: treating      4 bands with npw=      74 for ikpt=   9 by node    0
P newkpt: treating      4 bands with npw=      74 for ikpt=  10 by node    0
P newkpt: treating      4 bands with npw=      74 for ikpt=  11 by node    0
P newkpt: treating      4 bands with npw=      74 for ikpt=  12 by node    0
P newkpt: treating      4 bands with npw=      74 for ikpt=  13 by node    0
P newkpt: treating      4 bands with npw=      74 for ikpt=  14 by node    0
P newkpt: treating      4 bands with npw=      76 for ikpt=  15 by node    0
P newkpt: treating      4 bands with npw=      76 for ikpt=  16 by node    0
P newkpt: treating      4 bands with npw=      76 for ikpt=  17 by node    0
P newkpt: treating      4 bands with npw=      76 for ikpt=  18 by node    0
P newkpt: treating      4 bands with npw=      75 for ikpt=  19 by node    0
P newkpt: treating      4 bands with npw=      76 for ikpt=  20 by node    0
P newkpt: treating      4 bands with npw=      76 for ikpt=  21 by node    0
P newkpt: treating      4 bands with npw=      74 for ikpt=  22 by node    0
P newkpt: treating      4 bands with npw=      76 for ikpt=  23 by node    0
P newkpt: treating      4 bands with npw=      77 for ikpt=  24 by node    0
P newkpt: treating      4 bands with npw=      69 for ikpt=  25 by node    0
P newkpt: treating      4 bands with npw=      65 for ikpt=  26 by node    0
P newkpt: treating      4 bands with npw=      65 for ikpt=  27 by node    0
P newkpt: treating      4 bands with npw=      69 for ikpt=  28 by node    0
P newkpt: treating      4 bands with npw=      77 for ikpt=  29 by node    0
P newkpt: treating      4 bands with npw=      75 for ikpt=  30 by node    0
P newkpt: treating      4 bands with npw=      76 for ikpt=  31 by node    0
P newkpt: treating      4 bands with npw=      74 for ikpt=  32 by node    0
P newkpt: treating      4 bands with npw=      69 for ikpt=  33 by node    0
P newkpt: treating      4 bands with npw=      69 for ikpt=  34 by node    0
P newkpt: treating      4 bands with npw=      74 for ikpt=  35 by node    0
P newkpt: treating      4 bands with npw=      75 for ikpt=  36 by node    0
P newkpt: treating      4 bands with npw=      76 for ikpt=  37 by node    0
P newkpt: treating      4 bands with npw=      76 for ikpt=  38 by node    0
P newkpt: treating      4 bands with npw=      77 for ikpt=  39 by node    0
P newkpt: treating      4 bands with npw=      77 for ikpt=  40 by node    0
P newkpt: treating      4 bands with npw=      76 for ikpt=  41 by node    0
P newkpt: treating      4 bands with npw=      75 for ikpt=  42 by node    0
P newkpt: treating      4 bands with npw=      75 for ikpt=  43 by node    0
P newkpt: treating      4 bands with npw=      76 for ikpt=  44 by node    0
P newkpt: treating      4 bands with npw=      76 for ikpt=  45 by node    0
P newkpt: treating      4 bands with npw=      75 for ikpt=  46 by node    0
P newkpt: treating      4 bands with npw=      75 for ikpt=  47 by node    0
P newkpt: treating      4 bands with npw=      75 for ikpt=  48 by node    0
P newkpt: treating      4 bands with npw=      76 for ikpt=  49 by node    0
P newkpt: treating      4 bands with npw=      75 for ikpt=  50 by node    0
 newkpt: prtvol=0 or 1, do not print more k-points.


     iter   2DEtotal(Ha)        deltaE(Ha) residm    vres2
-ETOT  1   16.601417641616     -7.985E+00 2.573E-02 1.792E+03
 ETOT  2   4.5477924899997     -1.205E+01 5.690E-03 3.201E+01
 ETOT  3   4.3057690577309     -2.420E-01 1.084E-04 7.234E+00
 ETOT  4   4.2505836083057     -5.519E-02 6.025E-05 7.522E-01
 ETOT  5   4.2471625943997     -3.421E-03 1.910E-06 1.496E-02
 ETOT  6   4.2471114546974     -5.114E-05 4.479E-08 1.573E-04
 ETOT  7   4.2471108519271     -6.028E-07 4.186E-10 2.448E-05
 ETOT  8   4.2471107629255     -8.900E-08 4.598E-11 1.491E-06
 ETOT  9   4.2471107605690     -2.356E-09 1.755E-12 5.079E-07
 ETOT 10   4.2471107580229     -2.546E-09 2.569E-12 8.988E-08
 ETOT 11   4.2471107576099     -4.130E-10 2.917E-13 3.561E-11

 At SCF step   11       vres2   =  3.56E-11 < tolvrs=  1.00E-08 =>converged.
================================================================================

 ----iterations are completed or convergence reached----

 Mean square residual over all n,k,spin=   6.9072E-14; max=  2.9166E-13
   0.0000  0.0000 -0.1250    1  1.08742E-13 kpt; spin; max resid(k); each band:
  2.31E-14 7.28E-14 5.55E-14 1.09E-13
   0.0000  0.0000 -0.3750    1  5.92440E-14 kpt; spin; max resid(k); each band:
  1.95E-14 5.92E-14 2.21E-14 1.74E-14
   0.0000  0.1250 -0.2500    1  8.76624E-14 kpt; spin; max resid(k); each band:
  2.11E-14 8.08E-14 8.77E-14 2.17E-14
   0.0000  0.2500 -0.1250    1  8.76614E-14 kpt; spin; max resid(k); each band:
  2.11E-14 8.08E-14 8.77E-14 2.17E-14
   0.1250  0.0000 -0.2500    1  1.09460E-13 kpt; spin; max resid(k); each band:
  4.75E-14 1.09E-13 9.00E-14 4.65E-14
   0.1250  0.1250 -0.1250    1  9.03629E-14 kpt; spin; max resid(k); each band:
  5.28E-15 9.04E-14 6.51E-14 1.95E-14
   0.2500  0.0000 -0.1250    1  2.04769E-13 kpt; spin; max resid(k); each band:
  4.89E-14 8.47E-14 2.05E-13 1.24E-14
   0.0000  0.0000  0.3750    1  5.92456E-14 kpt; spin; max resid(k); each band:
  1.95E-14 5.92E-14 2.21E-14 1.74E-14
   0.0000  0.1250  0.5000    1  8.22079E-14 kpt; spin; max resid(k); each band:
  2.26E-14 6.20E-14 8.22E-14 3.05E-14
   0.0000  0.2500 -0.3750    1  1.07779E-13 kpt; spin; max resid(k); each band:
  1.86E-14 8.67E-14 1.08E-13 1.30E-14
   0.0000  0.3750 -0.2500    1  1.07778E-13 kpt; spin; max resid(k); each band:
  1.86E-14 8.67E-14 1.08E-13 1.30E-14
   0.0000  0.5000 -0.1250    1  8.22081E-14 kpt; spin; max resid(k); each band:
  2.26E-14 6.20E-14 8.22E-14 3.05E-14
   0.1250  0.0000  0.5000    1  1.13345E-13 kpt; spin; max resid(k); each band:
  4.75E-14 1.13E-13 8.65E-14 6.41E-14
   0.1250  0.1250 -0.3750    1  1.16058E-13 kpt; spin; max resid(k); each band:
  5.13E-14 1.16E-13 8.80E-14 5.23E-14
   0.1250  0.2500 -0.2500    1  1.22390E-13 kpt; spin; max resid(k); each band:
  3.85E-14 1.07E-13 1.22E-13 5.93E-14
   0.1250  0.3750 -0.1250    1  1.36532E-13 kpt; spin; max resid(k); each band:
  4.12E-14 9.78E-14 1.37E-13 6.30E-14
   0.2500  0.0000 -0.3750    1  1.07901E-13 kpt; spin; max resid(k); each band:
  5.18E-15 1.08E-13 9.73E-14 1.05E-13
   0.2500  0.1250 -0.2500    1  1.39796E-13 kpt; spin; max resid(k); each band:
  8.35E-15 1.40E-13 9.15E-14 6.68E-14
   0.2500  0.2500 -0.1250    1  1.57003E-13 kpt; spin; max resid(k); each band:
  4.39E-14 1.19E-13 1.57E-13 1.09E-13
   0.3750  0.0000 -0.2500    1  1.54700E-13 kpt; spin; max resid(k); each band:
  5.02E-15 5.90E-14 1.55E-13 1.53E-14
   0.3750  0.1250 -0.1250    1  2.23004E-13 kpt; spin; max resid(k); each band:
  7.91E-15 6.98E-14 2.23E-13 1.55E-14
   0.5000  0.0000 -0.1250    1  1.35123E-13 kpt; spin; max resid(k); each band:
  4.78E-15 9.22E-14 1.35E-13 3.32E-14
   0.0000  0.0000  0.1250    1  1.08748E-13 kpt; spin; max resid(k); each band:
  2.30E-14 7.28E-14 5.55E-14 1.09E-13
   0.0000  0.1250  0.2500    1  9.22524E-14 kpt; spin; max resid(k); each band:
  2.51E-14 9.23E-14 2.99E-14 2.94E-14
   0.0000  0.2500  0.3750    1  8.99369E-14 kpt; spin; max resid(k); each band:
  2.61E-14 8.99E-14 4.70E-14 1.44E-14
   0.0000  0.3750  0.5000    1  7.05233E-14 kpt; spin; max resid(k); each band:
  2.44E-15 7.05E-14 4.83E-14 1.24E-14
   0.0000  0.5000 -0.3750    1  7.05230E-14 kpt; spin; max resid(k); each band:
  2.44E-15 7.05E-14 4.83E-14 1.24E-14
   0.0000 -0.3750 -0.2500    1  8.99356E-14 kpt; spin; max resid(k); each band:
  2.61E-14 8.99E-14 4.70E-14 1.44E-14
   0.0000 -0.2500 -0.1250    1  9.22507E-14 kpt; spin; max resid(k); each band:
  2.51E-14 9.23E-14 2.99E-14 2.94E-14
   0.1250  0.0000  0.2500    1  9.63776E-14 kpt; spin; max resid(k); each band:
  5.28E-15 7.65E-14 8.31E-14 9.64E-14
   0.1250  0.1250  0.3750    1  9.70519E-14 kpt; spin; max resid(k); each band:
  5.31E-14 9.40E-14 9.71E-14 4.11E-14
   0.1250  0.2500  0.5000    1  9.98958E-14 kpt; spin; max resid(k); each band:
  4.65E-15 9.58E-14 9.99E-14 8.83E-14
   0.1250  0.3750 -0.3750    1  1.29477E-13 kpt; spin; max resid(k); each band:
  3.84E-15 6.74E-14 1.29E-13 7.50E-14
   0.1250  0.5000 -0.2500    1  1.35723E-13 kpt; spin; max resid(k); each band:
  3.58E-14 6.38E-14 1.36E-13 8.17E-14
   0.1250 -0.3750 -0.1250    1  1.05186E-13 kpt; spin; max resid(k); each band:
  4.54E-15 9.72E-14 1.04E-13 1.05E-13
   0.2500  0.0000  0.3750    1  1.52752E-13 kpt; spin; max resid(k); each band:
  4.01E-14 1.01E-13 1.53E-13 1.29E-13
   0.2500  0.1250  0.5000    1  1.28983E-13 kpt; spin; max resid(k); each band:
  6.69E-14 1.29E-13 8.64E-14 7.81E-14
   0.2500  0.2500 -0.3750    1  1.14843E-13 kpt; spin; max resid(k); each band:
  6.93E-14 1.15E-13 8.87E-14 9.64E-14
   0.2500  0.3750 -0.2500    1  1.77526E-13 kpt; spin; max resid(k); each band:
  6.44E-15 1.03E-13 1.78E-13 1.71E-13
   0.2500  0.5000 -0.1250    1  1.90964E-13 kpt; spin; max resid(k); each band:
  6.20E-15 9.23E-14 1.78E-13 1.91E-13
   0.3750  0.0000  0.5000    1  2.59058E-13 kpt; spin; max resid(k); each band:
  7.77E-15 1.02E-13 2.59E-13 2.28E-14
   0.3750  0.1250 -0.3750    1  1.19746E-13 kpt; spin; max resid(k); each band:
  4.41E-14 8.37E-14 9.27E-14 1.20E-13
   0.3750  0.2500 -0.2500    1  1.10597E-13 kpt; spin; max resid(k); each band:
  4.72E-15 9.01E-14 9.51E-14 1.11E-13
   0.3750  0.3750 -0.1250    1  2.91664E-13 kpt; spin; max resid(k); each band:
  7.83E-15 1.10E-13 2.92E-13 2.65E-14
   0.5000  0.0000 -0.3750    1  1.75266E-13 kpt; spin; max resid(k); each band:
  7.32E-15 8.17E-14 1.75E-13 3.40E-14
   0.5000  0.1250 -0.2500    1  1.65904E-13 kpt; spin; max resid(k); each band:
  4.15E-15 4.26E-14 1.66E-13 1.33E-13
   0.5000  0.2500 -0.1250    1  1.65898E-13 kpt; spin; max resid(k); each band:
  4.15E-15 4.26E-14 1.66E-13 1.33E-13
  -0.3750  0.0000 -0.2500    1  1.18888E-13 kpt; spin; max resid(k); each band:
  5.91E-14 5.92E-14 1.19E-13 1.66E-14
  -0.3750  0.1250 -0.1250    1  2.22999E-13 kpt; spin; max resid(k); each band:
  7.91E-15 6.98E-14 2.23E-13 1.55E-14
  -0.2500  0.0000 -0.1250    1  1.24518E-13 kpt; spin; max resid(k); each band:
  5.18E-14 4.82E-14 1.25E-13 8.17E-14
 outwf : prtvol=0 or 1, do not print more k-points.


 Thirteen components of 2nd-order total energy (hartree) are
 1,2,3: 0th-order hamiltonian combined with 1st-order wavefunctions
     kin0=   2.17224109E+01 eigvalue=   4.58502626E-01  local=  -1.18698618E+01
 4,5,6: 1st-order hamiltonian combined with 1st and 0th-order wfs
 loc psp =  -2.70195401E+01  Hartree=   7.48771495E+00     xc=  -2.20951581E+00
 note that "loc psp" includes a xc core correction that could be resolved
 7,8,9: eventually, occupation + non-local contributions
    edocc=   0.00000000E+00     enl0=   4.75044811E+00   enl1=  -1.36598576E+01
 1-9 gives the relaxation energy (to be shifted if some occ is /=2.0)
   erelax=  -2.03396987E+01
 10,11,12 Non-relaxation  contributions : frozen-wavefunctions and Ewald
 fr.local=  -6.53124861E+00 fr.nonlo=   1.58440582E+01  Ewald=   1.52739999E+01
 13,14 Frozen wf xc core corrections (1) and (2)
 frxc 1  =   0.00000000E+00  frxc 2 =   0.00000000E+00
 Resulting in :
 2DEtotal=    0.4247110758E+01 Ha. Also 2DEtotal=    0.115569761121E+03 eV
    (2DErelax=   -2.0339698731E+01 Ha. 2DEnonrelax=    2.4586809489E+01 Ha)
    (  non-var. 2DEtotal :    4.2471106340E+00 Ha)


--------------------------------------------------------------------------------
 Perturbation wavevector (in red.coord.)   0.000000  0.500000  0.500000
 Perturbation : displacement of atom   1   along direction   2
 The set of symmetries contains only one element for this perturbation.
 symkpt : not enough symmetry to change the number of k points.

--------------------------------------------------------------------------------

-inwffil : will read wavefunctions from disk file trf1_6o_DS1_WFK
- newkpt: read input wf with ikpt,npw=   1      65, make ikpt,npw=   1      65
- newkpt: read input wf with ikpt,npw=   2      74, make ikpt,npw=   2      74
- newkpt: read input wf with ikpt,npw=   3      74, make ikpt,npw=   3      74
- newkpt: read input wf with ikpt,npw=   3      74, make ikpt,npw=   4      74
- newkpt: read input wf with ikpt,npw=   3      74, make ikpt,npw=   5      74
- newkpt: read input wf with ikpt,npw=   4      69, make ikpt,npw=   6      69
- newkpt: read input wf with ikpt,npw=   3      74, make ikpt,npw=   7      74
- newkpt: read input wf with ikpt,npw=   2      74, make ikpt,npw=   8      74
- newkpt: read input wf with ikpt,npw=   5      74, make ikpt,npw=   9      74
- newkpt: read input wf with ikpt,npw=   6      76, make ikpt,npw=  10      76
- newkpt: read input wf with ikpt,npw=   6      76, make ikpt,npw=  11      76
- newkpt: read input wf with ikpt,npw=   5      74, make ikpt,npw=  12      74
- newkpt: read input wf with ikpt,npw=   5      74, make ikpt,npw=  13      74
- newkpt: read input wf with ikpt,npw=   5      74, make ikpt,npw=  14      74
- newkpt: read input wf with ikpt,npw=   7      76, make ikpt,npw=  15      76
- newkpt: read input wf with ikpt,npw=   7      76, make ikpt,npw=  16      76
- newkpt: read input wf with ikpt,npw=   6      76, make ikpt,npw=  17      76
- newkpt: read input wf with ikpt,npw=   7      76, make ikpt,npw=  18      76
- newkpt: read input wf with ikpt,npw=   8      77, make ikpt,npw=  19      77
- newkpt: read input wf with ikpt,npw=   6      76, make ikpt,npw=  20      76
- newkpt: read input wf with ikpt,npw=   7      76, make ikpt,npw=  21      76
- newkpt: read input wf with ikpt,npw=   5      74, make ikpt,npw=  22      74
- newkpt: read input wf with ikpt,npw=   1      65, make ikpt,npw=  23      65
- newkpt: read input wf with ikpt,npw=   4      69, make ikpt,npw=  24      69
- newkpt: read input wf with ikpt,npw=   8      77, make ikpt,npw=  25      77
- newkpt: read input wf with ikpt,npw=   9      76, make ikpt,npw=  26      76
- newkpt: read input wf with ikpt,npw=   9      76, make ikpt,npw=  27      76
- newkpt: read input wf with ikpt,npw=   8      77, make ikpt,npw=  28      77
- newkpt: read input wf with ikpt,npw=   4      69, make ikpt,npw=  29      69
- newkpt: read input wf with ikpt,npw=   4      69, make ikpt,npw=  30      69
- newkpt: read input wf with ikpt,npw=   3      74, make ikpt,npw=  31      74
- newkpt: read input wf with ikpt,npw=   7      76, make ikpt,npw=  32      76
- newkpt: read input wf with ikpt,npw=  10      75, make ikpt,npw=  33      75
- newkpt: read input wf with ikpt,npw=  10      75, make ikpt,npw=  34      75
- newkpt: read input wf with ikpt,npw=   7      76, make ikpt,npw=  35      76
- newkpt: read input wf with ikpt,npw=   8      77, make ikpt,npw=  36      77
- newkpt: read input wf with ikpt,npw=   7      76, make ikpt,npw=  37      76
- newkpt: read input wf with ikpt,npw=   6      76, make ikpt,npw=  38      76
- newkpt: read input wf with ikpt,npw=  10      75, make ikpt,npw=  39      75
- newkpt: read input wf with ikpt,npw=  10      75, make ikpt,npw=  40      75
- newkpt: read input wf with ikpt,npw=   9      76, make ikpt,npw=  41      76
- newkpt: read input wf with ikpt,npw=  10      75, make ikpt,npw=  42      75
- newkpt: read input wf with ikpt,npw=  10      75, make ikpt,npw=  43      75
- newkpt: read input wf with ikpt,npw=   9      76, make ikpt,npw=  44      76
- newkpt: read input wf with ikpt,npw=   9      76, make ikpt,npw=  45      76
- newkpt: read input wf with ikpt,npw=  10      75, make ikpt,npw=  46      75
- newkpt: read input wf with ikpt,npw=  10      75, make ikpt,npw=  47      75
- newkpt: read input wf with ikpt,npw=   8      77, make ikpt,npw=  48      77
- newkpt: read input wf with ikpt,npw=   7      76, make ikpt,npw=  49      76
- newkpt: read input wf with ikpt,npw=   4      69, make ikpt,npw=  50      69
- newkpt : prtvol=0 or 1, do not print more k-points.

--------------------------------------------------------------------------------

-inwffil : will read wavefunctions from disk file trf1_6o_DS1_WFK
- newkpt: read input wf with ikpt,npw=   9      76, make ikpt,npw=   1      76
- newkpt: read input wf with ikpt,npw=   5      74, make ikpt,npw=   2      74
- newkpt: read input wf with ikpt,npw=   6      76, make ikpt,npw=   3      76
- newkpt: read input wf with ikpt,npw=   6      76, make ikpt,npw=   4      76
- newkpt: read input wf with ikpt,npw=   7      76, make ikpt,npw=   5      76
- newkpt: read input wf with ikpt,npw=  10      75, make ikpt,npw=   6      75
- newkpt: read input wf with ikpt,npw=   7      76, make ikpt,npw=   7      76
- newkpt: read input wf with ikpt,npw=   5      74, make ikpt,npw=   8      74
- newkpt: read input wf with ikpt,npw=   2      74, make ikpt,npw=   9      74
- newkpt: read input wf with ikpt,npw=   3      74, make ikpt,npw=  10      74
- newkpt: read input wf with ikpt,npw=   3      74, make ikpt,npw=  11      74
- newkpt: read input wf with ikpt,npw=   2      74, make ikpt,npw=  12      74
- newkpt: read input wf with ikpt,npw=   5      74, make ikpt,npw=  13      74
- newkpt: read input wf with ikpt,npw=   5      74, make ikpt,npw=  14      74
- newkpt: read input wf with ikpt,npw=   7      76, make ikpt,npw=  15      76
- newkpt: read input wf with ikpt,npw=   7      76, make ikpt,npw=  16      76
- newkpt: read input wf with ikpt,npw=   7      76, make ikpt,npw=  17      76
- newkpt: read input wf with ikpt,npw=   6      76, make ikpt,npw=  18      76
- newkpt: read input wf with ikpt,npw=  10      75, make ikpt,npw=  19      75
- newkpt: read input wf with ikpt,npw=   7      76, make ikpt,npw=  20      76
- newkpt: read input wf with ikpt,npw=   6      76, make ikpt,npw=  21      76
- newkpt: read input wf with ikpt,npw=   5      74, make ikpt,npw=  22      74
- newkpt: read input wf with ikpt,npw=   9      76, make ikpt,npw=  23      76
- newkpt: read input wf with ikpt,npw=   8      77, make ikpt,npw=  24      77
- newkpt: read input wf with ikpt,npw=   4      69, make ikpt,npw=  25      69
- newkpt: read input wf with ikpt,npw=   1      65, make ikpt,npw=  26      65
- newkpt: read input wf with ikpt,npw=   1      65, make ikpt,npw=  27      65
- newkpt: read input wf with ikpt,npw=   4      69, make ikpt,npw=  28      69
- newkpt: read input wf with ikpt,npw=   8      77, make ikpt,npw=  29      77
- newkpt: read input wf with ikpt,npw=  10      75, make ikpt,npw=  30      75
- newkpt: read input wf with ikpt,npw=   7      76, make ikpt,npw=  31      76
- newkpt: read input wf with ikpt,npw=   3      74, make ikpt,npw=  32      74
- newkpt: read input wf with ikpt,npw=   4      69, make ikpt,npw=  33      69
- newkpt: read input wf with ikpt,npw=   4      69, make ikpt,npw=  34      69
- newkpt: read input wf with ikpt,npw=   3      74, make ikpt,npw=  35      74
- newkpt: read input wf with ikpt,npw=  10      75, make ikpt,npw=  36      75
- newkpt: read input wf with ikpt,npw=   6      76, make ikpt,npw=  37      76
- newkpt: read input wf with ikpt,npw=   7      76, make ikpt,npw=  38      76
- newkpt: read input wf with ikpt,npw=   8      77, make ikpt,npw=  39      77
- newkpt: read input wf with ikpt,npw=   8      77, make ikpt,npw=  40      77
- newkpt: read input wf with ikpt,npw=   9      76, make ikpt,npw=  41      76
- newkpt: read input wf with ikpt,npw=  10      75, make ikpt,npw=  42      75
- newkpt: read input wf with ikpt,npw=  10      75, make ikpt,npw=  43      75
- newkpt: read input wf with ikpt,npw=   9      76, make ikpt,npw=  44      76
- newkpt: read input wf with ikpt,npw=   9      76, make ikpt,npw=  45      76
- newkpt: read input wf with ikpt,npw=  10      75, make ikpt,npw=  46      75
- newkpt: read input wf with ikpt,npw=  10      75, make ikpt,npw=  47      75
- newkpt: read input wf with ikpt,npw=  10      75, make ikpt,npw=  48      75
- newkpt: read input wf with ikpt,npw=   6      76, make ikpt,npw=  49      76
- newkpt: read input wf with ikpt,npw=  10      75, make ikpt,npw=  50      75
- newkpt : prtvol=0 or 1, do not print more k-points.

 Initialisation of the first-order wave-functions :
  ireadwf=   0
P newkpt: treating      4 bands with npw=      76 for ikpt=   1 by node    0
P newkpt: treating      4 bands with npw=      74 for ikpt=   2 by node    0
P newkpt: treating      4 bands with npw=      76 for ikpt=   3 by node    0
P newkpt: treating      4 bands with npw=      76 for ikpt=   4 by node    0
P newkpt: treating      4 bands with npw=      76 for ikpt=   5 by node    0
[...]
                      -2.50000000E-01  0.00000000E+00 -1.25000000E-01
              kpt4     0.00000000E+00  0.00000000E+00 -1.25000000E-01
                       0.00000000E+00  0.00000000E+00 -3.75000000E-01
                       0.00000000E+00  1.25000000E-01 -2.50000000E-01
                       0.00000000E+00  2.50000000E-01 -1.25000000E-01
                       1.25000000E-01  0.00000000E+00 -2.50000000E-01
                       1.25000000E-01  1.25000000E-01 -1.25000000E-01
                       2.50000000E-01  0.00000000E+00 -1.25000000E-01
                       0.00000000E+00  0.00000000E+00  3.75000000E-01
                       0.00000000E+00  1.25000000E-01  5.00000000E-01
                       0.00000000E+00  2.50000000E-01 -3.75000000E-01
                       0.00000000E+00  3.75000000E-01 -2.50000000E-01
                       0.00000000E+00  5.00000000E-01 -1.25000000E-01
                       1.25000000E-01  0.00000000E+00  5.00000000E-01
                       1.25000000E-01  1.25000000E-01 -3.75000000E-01
                       1.25000000E-01  2.50000000E-01 -2.50000000E-01
                       1.25000000E-01  3.75000000E-01 -1.25000000E-01
                       2.50000000E-01  0.00000000E+00 -3.75000000E-01
                       2.50000000E-01  1.25000000E-01 -2.50000000E-01
                       2.50000000E-01  2.50000000E-01 -1.25000000E-01
                       3.75000000E-01  0.00000000E+00 -2.50000000E-01
                       3.75000000E-01  1.25000000E-01 -1.25000000E-01
                       5.00000000E-01  0.00000000E+00 -1.25000000E-01
                       0.00000000E+00  0.00000000E+00  1.25000000E-01
                       0.00000000E+00  1.25000000E-01  2.50000000E-01
                       0.00000000E+00  2.50000000E-01  3.75000000E-01
                       0.00000000E+00  3.75000000E-01  5.00000000E-01
                       0.00000000E+00  5.00000000E-01 -3.75000000E-01
                       0.00000000E+00 -3.75000000E-01 -2.50000000E-01
                       0.00000000E+00 -2.50000000E-01 -1.25000000E-01
                       1.25000000E-01  0.00000000E+00  2.50000000E-01
                       1.25000000E-01  1.25000000E-01  3.75000000E-01
                       1.25000000E-01  2.50000000E-01  5.00000000E-01
                       1.25000000E-01  3.75000000E-01 -3.75000000E-01
                       1.25000000E-01  5.00000000E-01 -2.50000000E-01
                       1.25000000E-01 -3.75000000E-01 -1.25000000E-01
                       2.50000000E-01  0.00000000E+00  3.75000000E-01
                       2.50000000E-01  1.25000000E-01  5.00000000E-01
                       2.50000000E-01  2.50000000E-01 -3.75000000E-01
                       2.50000000E-01  3.75000000E-01 -2.50000000E-01
                       2.50000000E-01  5.00000000E-01 -1.25000000E-01
                       3.75000000E-01  0.00000000E+00  5.00000000E-01
                       3.75000000E-01  1.25000000E-01 -3.75000000E-01
                       3.75000000E-01  2.50000000E-01 -2.50000000E-01
                       3.75000000E-01  3.75000000E-01 -1.25000000E-01
                       5.00000000E-01  0.00000000E+00 -3.75000000E-01
                       5.00000000E-01  1.25000000E-01 -2.50000000E-01
                       5.00000000E-01  2.50000000E-01 -1.25000000E-01
                      -3.75000000E-01  0.00000000E+00 -2.50000000E-01
                      -3.75000000E-01  1.25000000E-01 -1.25000000E-01
                      -2.50000000E-01  0.00000000E+00 -1.25000000E-01
              kpt5     0.00000000E+00  0.00000000E+00 -1.25000000E-01
                       0.00000000E+00  0.00000000E+00 -3.75000000E-01
                       0.00000000E+00  1.25000000E-01 -2.50000000E-01
                       0.00000000E+00  2.50000000E-01 -1.25000000E-01
                       1.25000000E-01  0.00000000E+00 -2.50000000E-01
                       1.25000000E-01  1.25000000E-01 -1.25000000E-01
                       2.50000000E-01  0.00000000E+00 -1.25000000E-01
                       0.00000000E+00  0.00000000E+00  3.75000000E-01
                       0.00000000E+00  1.25000000E-01  5.00000000E-01
                       0.00000000E+00  2.50000000E-01 -3.75000000E-01
                       0.00000000E+00  3.75000000E-01 -2.50000000E-01
                       0.00000000E+00  5.00000000E-01 -1.25000000E-01
                       1.25000000E-01  0.00000000E+00  5.00000000E-01
                       1.25000000E-01  1.25000000E-01 -3.75000000E-01
                       1.25000000E-01  2.50000000E-01 -2.50000000E-01
                       1.25000000E-01  3.75000000E-01 -1.25000000E-01
                       2.50000000E-01  0.00000000E+00 -3.75000000E-01
                       2.50000000E-01  1.25000000E-01 -2.50000000E-01
                       2.50000000E-01  2.50000000E-01 -1.25000000E-01
                       3.75000000E-01  0.00000000E+00 -2.50000000E-01
                       3.75000000E-01  1.25000000E-01 -1.25000000E-01
                       5.00000000E-01  0.00000000E+00 -1.25000000E-01
                       0.00000000E+00  0.00000000E+00  1.25000000E-01
                       0.00000000E+00  1.25000000E-01  2.50000000E-01
                       0.00000000E+00  2.50000000E-01  3.75000000E-01
                       0.00000000E+00  3.75000000E-01  5.00000000E-01
                       0.00000000E+00  5.00000000E-01 -3.75000000E-01
                       0.00000000E+00 -3.75000000E-01 -2.50000000E-01
                       0.00000000E+00 -2.50000000E-01 -1.25000000E-01
                       1.25000000E-01  0.00000000E+00  2.50000000E-01
                       1.25000000E-01  1.25000000E-01  3.75000000E-01
                       1.25000000E-01  2.50000000E-01  5.00000000E-01
                       1.25000000E-01  3.75000000E-01 -3.75000000E-01
                       1.25000000E-01  5.00000000E-01 -2.50000000E-01
                       1.25000000E-01 -3.75000000E-01 -1.25000000E-01
                       2.50000000E-01  0.00000000E+00  3.75000000E-01
                       2.50000000E-01  1.25000000E-01  5.00000000E-01
                       2.50000000E-01  2.50000000E-01 -3.75000000E-01
                       2.50000000E-01  3.75000000E-01 -2.50000000E-01
                       2.50000000E-01  5.00000000E-01 -1.25000000E-01
                       3.75000000E-01  0.00000000E+00  5.00000000E-01
                       3.75000000E-01  1.25000000E-01 -3.75000000E-01
                       3.75000000E-01  2.50000000E-01 -2.50000000E-01
                       3.75000000E-01  3.75000000E-01 -1.25000000E-01
                       5.00000000E-01  0.00000000E+00 -3.75000000E-01
                       5.00000000E-01  1.25000000E-01 -2.50000000E-01
                       5.00000000E-01  2.50000000E-01 -1.25000000E-01
                      -3.75000000E-01  0.00000000E+00 -2.50000000E-01
                      -3.75000000E-01  1.25000000E-01 -1.25000000E-01
                      -2.50000000E-01  0.00000000E+00 -1.25000000E-01
                       outvar_i_n : Printing only first  50 k-points.
           kptopt1          1
           kptopt2          3
           kptopt3          3
           kptopt4          3
           kptopt5          3
         kptrlatt       -4    4    4      4   -4    4      4    4   -4
          kptrlen      4.24400000E+01
P           mkmem1         10
P           mkmem2        256
P           mkmem3        256
P           mkmem4        256
P           mkmem5        256
P          mkqmem1         10
P          mkqmem2        256
P          mkqmem3        256
P          mkqmem4        256
P          mkqmem5        256
P          mk1mem1         10
P          mk1mem2        256
P          mk1mem3        256
P          mk1mem4        256
P          mk1mem5        256
            natom           2
            nband1          4
            nband2          4
            nband3          4
            nband4          4
            nband5          4
           nbdbuf1          0
           nbdbuf2          0
           nbdbuf3          0
           nbdbuf4          2
           nbdbuf5          0
           ndtset           5
            ngfft          12      12      12
             nkpt1         10
             nkpt2        256
             nkpt3        256
             nkpt4        256
             nkpt5        256
             nqpt1          0
             nqpt2          1
             nqpt3          1
             nqpt4          1
             nqpt5          1
            nstep          15
             nsym          24
           ntypat           2
              occ1     2.000000  2.000000  2.000000  2.000000
              occ2     2.000000  2.000000  2.000000  2.000000
              occ3     2.000000  2.000000  2.000000  2.000000
              occ5     2.000000  2.000000  2.000000  2.000000
        optdriver1          0
        optdriver2          1
        optdriver3          1
        optdriver4          0
        optdriver5          1
        optforces           1
              qpt1     0.00000000E+00  0.00000000E+00  0.00000000E+00
              qpt2     0.00000000E+00  5.00000000E-01  5.00000000E-01
              qpt3     5.00000000E-01  0.00000000E+00  0.00000000E+00
              qpt4     1.00000000E-01  0.00000000E+00  0.00000000E+00
              qpt5     1.00000000E-01  0.00000000E+00  0.00000000E+00
          rfatpol1          1       1
          rfatpol2          1       2
          rfatpol3          1       2
          rfatpol4          1       1
          rfatpol5          1       2
            rfdir1          0       0       0
            rfdir2          1       1       1
            rfdir3          1       1       1
            rfdir4          0       0       0
            rfdir5          1       1       1
           rfphon1          0
           rfphon2          1
           rfphon3          1
           rfphon4          0
           rfphon5          1
            rprim      0.0000000000E+00  5.0000000000E-01  5.0000000000E-01
                       5.0000000000E-01  0.0000000000E+00  5.0000000000E-01
                       5.0000000000E-01  5.0000000000E-01  0.0000000000E+00
           shiftk      5.00000000E-01  5.00000000E-01  5.00000000E-01
          spgroup         216
           strten1     2.8820332009E-04  2.8820332009E-04  2.8820332009E-04
                       0.0000000000E+00  0.0000000000E+00  0.0000000000E+00
           strten2     0.0000000000E+00  0.0000000000E+00  0.0000000000E+00
                       0.0000000000E+00  0.0000000000E+00  0.0000000000E+00
           strten3     0.0000000000E+00  0.0000000000E+00  0.0000000000E+00
                       0.0000000000E+00  0.0000000000E+00  0.0000000000E+00
           strten5     0.0000000000E+00  0.0000000000E+00  0.0000000000E+00
                       0.0000000000E+00  0.0000000000E+00  0.0000000000E+00
           symrel      1  0  0   0  1  0   0  0  1       0 -1  1   0 -1  0   1 -1  0
                      -1  0  0  -1  0  1  -1  1  0       0  1 -1   1  0 -1   0  0 -1
                      -1  0  0  -1  1  0  -1  0  1       0 -1  1   1 -1  0   0 -1  0
                       1  0  0   0  0  1   0  1  0       0  1 -1   0  0 -1   1  0 -1
                      -1  0  1  -1  1  0  -1  0  0       0 -1  0   1 -1  0   0 -1  1
                       1  0 -1   0  0 -1   0  1 -1       0  1  0   0  0  1   1  0  0
                       1  0 -1   0  1 -1   0  0 -1       0 -1  0   0 -1  1   1 -1  0
                      -1  0  1  -1  0  0  -1  1  0       0  1  0   1  0  0   0  0  1
                       0  0 -1   0  1 -1   1  0 -1       1 -1  0   0 -1  1   0 -1  0
                       0  0  1   1  0  0   0  1  0      -1  1  0  -1  0  0  -1  0  1
                       0  0  1   0  1  0   1  0  0       1 -1  0   0 -1  0   0 -1  1
                       0  0 -1   1  0 -1   0  1 -1      -1  1  0  -1  0  1  -1  0  0
           tolvrs1     1.00000000E-18
           tolvrs2     1.00000000E-08
           tolvrs3     1.00000000E-08
           tolvrs4     0.00000000E+00
           tolvrs5     1.00000000E-08
           tolwfr1     0.00000000E+00
           tolwfr2     0.00000000E+00
           tolwfr3     0.00000000E+00
           tolwfr4     1.00000000E-18
           tolwfr5     0.00000000E+00
            typat      1  2
              wtk1       0.03125    0.03125    0.09375    0.09375    0.09375    0.09375
                         0.18750    0.09375    0.09375    0.18750
              wtk2       0.00391    0.00391    0.00391    0.00391    0.00391    0.00391
                         0.00391    0.00391    0.00391    0.00391    0.00391    0.00391
                         0.00391    0.00391    0.00391    0.00391    0.00391    0.00391
                         0.00391    0.00391    0.00391    0.00391    0.00391    0.00391
                         0.00391    0.00391    0.00391    0.00391    0.00391    0.00391
                         0.00391    0.00391    0.00391    0.00391    0.00391    0.00391
                         0.00391    0.00391    0.00391    0.00391    0.00391    0.00391
                         0.00391    0.00391    0.00391    0.00391    0.00391    0.00391
                         0.00391    0.00391
              wtk3       0.00391    0.00391    0.00391    0.00391    0.00391    0.00391
                         0.00391    0.00391    0.00391    0.00391    0.00391    0.00391
                         0.00391    0.00391    0.00391    0.00391    0.00391    0.00391
                         0.00391    0.00391    0.00391    0.00391    0.00391    0.00391
                         0.00391    0.00391    0.00391    0.00391    0.00391    0.00391
                         0.00391    0.00391    0.00391    0.00391    0.00391    0.00391
                         0.00391    0.00391    0.00391    0.00391    0.00391    0.00391
                         0.00391    0.00391    0.00391    0.00391    0.00391    0.00391
                         0.00391    0.00391
              wtk4       0.00391    0.00391    0.00391    0.00391    0.00391    0.00391
                         0.00391    0.00391    0.00391    0.00391    0.00391    0.00391
                         0.00391    0.00391    0.00391    0.00391    0.00391    0.00391
                         0.00391    0.00391    0.00391    0.00391    0.00391    0.00391
                         0.00391    0.00391    0.00391    0.00391    0.00391    0.00391
                         0.00391    0.00391    0.00391    0.00391    0.00391    0.00391
                         0.00391    0.00391    0.00391    0.00391    0.00391    0.00391
                         0.00391    0.00391    0.00391    0.00391    0.00391    0.00391
                         0.00391    0.00391
              wtk5       0.00391    0.00391    0.00391    0.00391    0.00391    0.00391
                         0.00391    0.00391    0.00391    0.00391    0.00391    0.00391
                         0.00391    0.00391    0.00391    0.00391    0.00391    0.00391
                         0.00391    0.00391    0.00391    0.00391    0.00391    0.00391
                         0.00391    0.00391    0.00391    0.00391    0.00391    0.00391
                         0.00391    0.00391    0.00391    0.00391    0.00391    0.00391
                         0.00391    0.00391    0.00391    0.00391    0.00391    0.00391
                         0.00391    0.00391    0.00391    0.00391    0.00391    0.00391
                         0.00391    0.00391
                       outvars : Printing only first  50 k-points.
           xangst      0.0000000000E+00  0.0000000000E+00  0.0000000000E+00
                       1.4036425458E+00  1.4036425458E+00  1.4036425458E+00
            xcart      0.0000000000E+00  0.0000000000E+00  0.0000000000E+00
                       2.6525000000E+00  2.6525000000E+00  2.6525000000E+00
             xred      0.0000000000E+00  0.0000000000E+00  0.0000000000E+00
                       2.5000000000E-01  2.5000000000E-01  2.5000000000E-01
            znucl       13.00000   33.00000

================================================================================


- Timing analysis has been suppressed with timopt=0



================================================================================

 Suggested references for the acknowledgment of ABINIT usage.

 The users of ABINIT have little formal obligations with respect to the ABINIT group
 (those specified in the GNU General Public License, http://www.gnu.org/copyleft/gpl.txt).
 However, it is common practice in the scientific literature,
 to acknowledge the efforts of people that have made the research possible.
 In this spirit, please find below suggested citations of work written by ABINIT developers,
 corresponding to implementations inside of ABINIT that you have used in the present run.
 Note also that it will be of great value to readers of publications presenting these results,
 to read papers enabling them to understand the theoretical formalism and details
 of the ABINIT implementation.
 For information on why they are suggested, see also http://www.abinit.org/about/?text=acknowledgments.

 [1] First-principles responses of solids to atomic displacements and homogeneous electric fields:,
 implementation of a conjugate-gradient algorithm. X. Gonze, Phys. Rev. B55, 10337 (1997).
 Comment : Non-vanishing rfphon and/or rfelfd, in the norm-conserving case.

 [2] Dynamical matrices, Born effective charges, dielectric permittivity tensors, and ,
 interatomic force constants from density-functional perturbation theory,
 X. Gonze and C. Lee, Phys. Rev. B55, 10355 (1997).
 Comment : Non-vanishing rfphon and/or rfelfd, in the norm-conserving case.

 [3] Ab initio pseudopotentials for electronic structure calculations of poly-atomic systems, 
 using density-functional theory.
 M. Fuchs, M. Scheffler, Comput. Phys. Commun. 119, 67 (1999).
 Comment : Some pseudopotential generated using the FHI code were used.

 [4] ABINIT : First-principles approach of materials and nanosystem properties.
 X. Gonze, B. Amadon, P.-M. Anglade, J.-M. Beuken, F. Bottin, P. Boulanger, F. Bruneval,
 D. Caliste, R. Caracas, M. Cote, T. Deutsch, L. Genovese, Ph. Ghosez, M. Giantomassi
 S. Goedecker, D.R. Hamann, P. Hermet, F. Jollet, G. Jomard, S. Leroux, M. Mancini, S. Mazevet,
 M.J.T. Oliveira, G. Onida, Y. Pouillon, T. Rangel, G.-M. Rignanese, D. Sangalli, R. Shaltaf,
 M. Torrent, M.J. Verstraete, G. Zerah, J.W. Zwanziger
 Computer Phys. Comm. 180, 2582-2615 (2009).
 Comment : the third generic paper describing the ABINIT project.
 Note that a version of this paper, that is not formatted for Computer Phys. Comm. 
 is available at http://www.abinit.org/about/ABINIT_CPC_v10.pdf .
 The licence allows the authors to put it on the Web.

 [5] A brief introduction to the ABINIT software package.
 X. Gonze, G.-M. Rignanese, M. Verstraete, J.-M. Beuken, Y. Pouillon, R. Caracas, F. Jollet,
 M. Torrent, G. Zerah, M. Mikami, Ph. Ghosez, M. Veithen, J.-Y. Raty, V. Olevano, F. Bruneval,
 L. Reining, R. Godby, G. Onida, D.R. Hamann, and D.C. Allan.
 Z. Kristallogr. 220, 558-562 (2005).
 Comment : the second generic paper describing the ABINIT project. Note that this paper
 should be cited especially if you are using the GW part of ABINIT, as several authors
 of this part are not in the list of authors of the first or third paper.
 The .pdf of the latter paper is available at http://www.abinit.org/about/zfk_0505-06_558-562.pdf.
 Note that it should not redistributed (Copyright by Oldenburg Wissenshaftverlag,
 the licence allows the authors to put it on the Web).
-
- Proc.   0 individual time (sec): cpu=         48.5  wall=         48.5

================================================================================

 Calculation completed.
.Delivered   65 WARNINGs and   0 COMMENTs to log file.
+Overall time at end (sec) : cpu=         48.5  wall=         48.5
