
 **** DERIVATIVE DATABASE ****    
+DDB, Version number    100401

 AlAs phonons on 4 4 4 mesh                                                                                                                                                                                                                                              

    usepaw         0
     natom         2
      nkpt       256
    nsppol         1
      nsym        24
    ntypat         2
    occopt         1
     nband         4
     acell  0.10610000000000D+02  0.10610000000000D+02  0.10610000000000D+02
       amu  0.26981539000000D+02  0.74921590000000D+02
   dilatmx  0.10000000000000D+01
      ecut  0.30000000000000D+01
    ecutsm  0.00000000000000D+00
     intxc         0
      iscf         5
       ixc         1
       kpt -0.12500000000000D+00 -0.25000000000000D+00  0.00000000000000D+00
           -0.25000000000000D+00 -0.12500000000000D+00  0.00000000000000D+00
           -0.12500000000000D+00 -0.12500000000000D+00  0.12500000000000D+00
           -0.12500000000000D+00  0.50000000000000D+00  0.00000000000000D+00
           -0.25000000000000D+00 -0.37500000000000D+00  0.00000000000000D+00
           -0.12500000000000D+00 -0.37500000000000D+00  0.12500000000000D+00
           -0.37500000000000D+00 -0.25000000000000D+00  0.00000000000000D+00
           -0.25000000000000D+00 -0.25000000000000D+00  0.12500000000000D+00
           -0.12500000000000D+00 -0.25000000000000D+00  0.25000000000000D+00
            0.50000000000000D+00 -0.12500000000000D+00  0.00000000000000D+00
           -0.37500000000000D+00 -0.12500000000000D+00  0.12500000000000D+00
           -0.25000000000000D+00 -0.12500000000000D+00  0.25000000000000D+00
           -0.12500000000000D+00 -0.12500000000000D+00  0.37500000000000D+00
           -0.12500000000000D+00  0.25000000000000D+00  0.00000000000000D+00
           -0.25000000000000D+00  0.37500000000000D+00  0.00000000000000D+00
           -0.12500000000000D+00  0.37500000000000D+00  0.12500000000000D+00
           -0.37500000000000D+00  0.50000000000000D+00  0.00000000000000D+00
           -0.25000000000000D+00  0.50000000000000D+00  0.12500000000000D+00
           -0.12500000000000D+00  0.50000000000000D+00  0.25000000000000D+00
            0.50000000000000D+00 -0.37500000000000D+00  0.00000000000000D+00
           -0.37500000000000D+00 -0.37500000000000D+00  0.12500000000000D+00
           -0.25000000000000D+00 -0.37500000000000D+00  0.25000000000000D+00
           -0.12500000000000D+00 -0.37500000000000D+00  0.37500000000000D+00
            0.37500000000000D+00 -0.25000000000000D+00  0.00000000000000D+00
            0.50000000000000D+00 -0.25000000000000D+00  0.12500000000000D+00
           -0.37500000000000D+00 -0.25000000000000D+00  0.25000000000000D+00
           -0.25000000000000D+00 -0.25000000000000D+00  0.37500000000000D+00
           -0.12500000000000D+00 -0.25000000000000D+00  0.50000000000000D+00
            0.25000000000000D+00 -0.12500000000000D+00  0.00000000000000D+00
            0.37500000000000D+00 -0.12500000000000D+00  0.12500000000000D+00
            0.50000000000000D+00 -0.12500000000000D+00  0.25000000000000D+00
           -0.37500000000000D+00 -0.12500000000000D+00  0.37500000000000D+00
           -0.25000000000000D+00 -0.12500000000000D+00  0.50000000000000D+00
           -0.12500000000000D+00 -0.12500000000000D+00 -0.37500000000000D+00
           -0.12500000000000D+00  0.00000000000000D+00  0.00000000000000D+00
           -0.25000000000000D+00  0.12500000000000D+00  0.00000000000000D+00
           -0.12500000000000D+00  0.12500000000000D+00  0.12500000000000D+00
           -0.37500000000000D+00  0.25000000000000D+00  0.00000000000000D+00
           -0.25000000000000D+00  0.25000000000000D+00  0.12500000000000D+00
           -0.12500000000000D+00  0.25000000000000D+00  0.25000000000000D+00
            0.50000000000000D+00  0.37500000000000D+00  0.00000000000000D+00
           -0.37500000000000D+00  0.37500000000000D+00  0.12500000000000D+00
           -0.25000000000000D+00  0.37500000000000D+00  0.25000000000000D+00
           -0.12500000000000D+00  0.37500000000000D+00  0.37500000000000D+00
            0.37500000000000D+00  0.50000000000000D+00  0.00000000000000D+00
            0.50000000000000D+00  0.50000000000000D+00  0.12500000000000D+00
           -0.37500000000000D+00  0.50000000000000D+00  0.25000000000000D+00
           -0.25000000000000D+00  0.50000000000000D+00  0.37500000000000D+00
           -0.12500000000000D+00  0.50000000000000D+00  0.50000000000000D+00
            0.25000000000000D+00 -0.37500000000000D+00  0.00000000000000D+00
            0.37500000000000D+00 -0.37500000000000D+00  0.12500000000000D+00
            0.50000000000000D+00 -0.37500000000000D+00  0.25000000000000D+00
           -0.37500000000000D+00 -0.37500000000000D+00  0.37500000000000D+00
           -0.25000000000000D+00 -0.37500000000000D+00  0.50000000000000D+00
           -0.12500000000000D+00 -0.37500000000000D+00 -0.37500000000000D+00
            0.12500000000000D+00 -0.25000000000000D+00  0.00000000000000D+00
            0.25000000000000D+00 -0.25000000000000D+00  0.12500000000000D+00
            0.37500000000000D+00 -0.25000000000000D+00  0.25000000000000D+00
            0.50000000000000D+00 -0.25000000000000D+00  0.37500000000000D+00
           -0.37500000000000D+00 -0.25000000000000D+00  0.50000000000000D+00
           -0.25000000000000D+00 -0.25000000000000D+00 -0.37500000000000D+00
           -0.12500000000000D+00 -0.25000000000000D+00 -0.25000000000000D+00
            0.00000000000000D+00 -0.12500000000000D+00  0.00000000000000D+00
            0.12500000000000D+00 -0.12500000000000D+00  0.12500000000000D+00
            0.25000000000000D+00 -0.12500000000000D+00  0.25000000000000D+00
            0.37500000000000D+00 -0.12500000000000D+00  0.37500000000000D+00
            0.50000000000000D+00 -0.12500000000000D+00  0.50000000000000D+00
           -0.37500000000000D+00 -0.12500000000000D+00 -0.37500000000000D+00
           -0.25000000000000D+00 -0.12500000000000D+00 -0.25000000000000D+00
           -0.12500000000000D+00 -0.12500000000000D+00 -0.12500000000000D+00
           -0.37500000000000D+00  0.00000000000000D+00  0.00000000000000D+00
           -0.25000000000000D+00  0.00000000000000D+00  0.12500000000000D+00
           -0.12500000000000D+00  0.00000000000000D+00  0.25000000000000D+00
            0.50000000000000D+00  0.12500000000000D+00  0.00000000000000D+00
           -0.37500000000000D+00  0.12500000000000D+00  0.12500000000000D+00
           -0.25000000000000D+00  0.12500000000000D+00  0.25000000000000D+00
           -0.12500000000000D+00  0.12500000000000D+00  0.37500000000000D+00
            0.37500000000000D+00  0.25000000000000D+00  0.00000000000000D+00
            0.50000000000000D+00  0.25000000000000D+00  0.12500000000000D+00
           -0.37500000000000D+00  0.25000000000000D+00  0.25000000000000D+00
           -0.25000000000000D+00  0.25000000000000D+00  0.37500000000000D+00
           -0.12500000000000D+00  0.25000000000000D+00  0.50000000000000D+00
            0.25000000000000D+00  0.37500000000000D+00  0.00000000000000D+00
            0.37500000000000D+00  0.37500000000000D+00  0.12500000000000D+00
            0.50000000000000D+00  0.37500000000000D+00  0.25000000000000D+00
           -0.37500000000000D+00  0.37500000000000D+00  0.37500000000000D+00
           -0.25000000000000D+00  0.37500000000000D+00  0.50000000000000D+00
           -0.12500000000000D+00  0.37500000000000D+00 -0.37500000000000D+00
            0.12500000000000D+00  0.50000000000000D+00  0.00000000000000D+00
            0.25000000000000D+00  0.50000000000000D+00  0.12500000000000D+00
            0.37500000000000D+00  0.50000000000000D+00  0.25000000000000D+00
            0.50000000000000D+00  0.50000000000000D+00  0.37500000000000D+00
           -0.37500000000000D+00  0.50000000000000D+00  0.50000000000000D+00
           -0.25000000000000D+00  0.50000000000000D+00 -0.37500000000000D+00
           -0.12500000000000D+00  0.50000000000000D+00 -0.25000000000000D+00
            0.00000000000000D+00 -0.37500000000000D+00  0.00000000000000D+00
            0.12500000000000D+00 -0.37500000000000D+00  0.12500000000000D+00
            0.25000000000000D+00 -0.37500000000000D+00  0.25000000000000D+00
            0.37500000000000D+00 -0.37500000000000D+00  0.37500000000000D+00
            0.50000000000000D+00 -0.37500000000000D+00  0.50000000000000D+00
           -0.37500000000000D+00 -0.37500000000000D+00 -0.37500000000000D+00
           -0.25000000000000D+00 -0.37500000000000D+00 -0.25000000000000D+00
           -0.12500000000000D+00 -0.37500000000000D+00 -0.12500000000000D+00
            0.00000000000000D+00 -0.25000000000000D+00  0.12500000000000D+00
            0.12500000000000D+00 -0.25000000000000D+00  0.25000000000000D+00
            0.25000000000000D+00 -0.25000000000000D+00  0.37500000000000D+00
            0.37500000000000D+00 -0.25000000000000D+00  0.50000000000000D+00
            0.50000000000000D+00 -0.25000000000000D+00 -0.37500000000000D+00
           -0.37500000000000D+00 -0.25000000000000D+00 -0.25000000000000D+00
           -0.25000000000000D+00 -0.25000000000000D+00 -0.12500000000000D+00
            0.00000000000000D+00 -0.12500000000000D+00  0.25000000000000D+00
            0.12500000000000D+00 -0.12500000000000D+00  0.37500000000000D+00
            0.25000000000000D+00 -0.12500000000000D+00  0.50000000000000D+00
            0.37500000000000D+00 -0.12500000000000D+00 -0.37500000000000D+00
            0.50000000000000D+00 -0.12500000000000D+00 -0.25000000000000D+00
           -0.37500000000000D+00 -0.12500000000000D+00 -0.12500000000000D+00
            0.37500000000000D+00  0.00000000000000D+00  0.00000000000000D+00
            0.50000000000000D+00  0.00000000000000D+00  0.12500000000000D+00
           -0.37500000000000D+00  0.00000000000000D+00  0.25000000000000D+00
           -0.25000000000000D+00  0.00000000000000D+00  0.37500000000000D+00
           -0.12500000000000D+00  0.00000000000000D+00  0.50000000000000D+00
            0.25000000000000D+00  0.12500000000000D+00  0.00000000000000D+00
            0.37500000000000D+00  0.12500000000000D+00  0.12500000000000D+00
            0.50000000000000D+00  0.12500000000000D+00  0.25000000000000D+00
           -0.37500000000000D+00  0.12500000000000D+00  0.37500000000000D+00
           -0.25000000000000D+00  0.12500000000000D+00  0.50000000000000D+00
           -0.12500000000000D+00  0.12500000000000D+00 -0.37500000000000D+00
            0.12500000000000D+00  0.25000000000000D+00  0.00000000000000D+00
            0.25000000000000D+00  0.25000000000000D+00  0.12500000000000D+00
            0.37500000000000D+00  0.25000000000000D+00  0.25000000000000D+00
            0.50000000000000D+00  0.25000000000000D+00  0.37500000000000D+00
           -0.37500000000000D+00  0.25000000000000D+00  0.50000000000000D+00
           -0.25000000000000D+00  0.25000000000000D+00 -0.37500000000000D+00
           -0.12500000000000D+00  0.25000000000000D+00 -0.25000000000000D+00
            0.00000000000000D+00  0.37500000000000D+00  0.00000000000000D+00
            0.12500000000000D+00  0.37500000000000D+00  0.12500000000000D+00
            0.25000000000000D+00  0.37500000000000D+00  0.25000000000000D+00
            0.37500000000000D+00  0.37500000000000D+00  0.37500000000000D+00
            0.50000000000000D+00  0.37500000000000D+00  0.50000000000000D+00
           -0.37500000000000D+00  0.37500000000000D+00 -0.37500000000000D+00
           -0.25000000000000D+00  0.37500000000000D+00 -0.25000000000000D+00
           -0.12500000000000D+00  0.37500000000000D+00 -0.12500000000000D+00
            0.00000000000000D+00  0.50000000000000D+00  0.12500000000000D+00
            0.12500000000000D+00  0.50000000000000D+00  0.25000000000000D+00
            0.25000000000000D+00  0.50000000000000D+00  0.37500000000000D+00
            0.37500000000000D+00  0.50000000000000D+00  0.50000000000000D+00
            0.50000000000000D+00  0.50000000000000D+00 -0.37500000000000D+00
           -0.37500000000000D+00  0.50000000000000D+00 -0.25000000000000D+00
           -0.25000000000000D+00  0.50000000000000D+00 -0.12500000000000D+00
            0.00000000000000D+00 -0.37500000000000D+00  0.25000000000000D+00
            0.12500000000000D+00 -0.37500000000000D+00  0.37500000000000D+00
            0.25000000000000D+00 -0.37500000000000D+00  0.50000000000000D+00
            0.37500000000000D+00 -0.37500000000000D+00 -0.37500000000000D+00
            0.50000000000000D+00 -0.37500000000000D+00 -0.25000000000000D+00
           -0.37500000000000D+00 -0.37500000000000D+00 -0.12500000000000D+00
            0.00000000000000D+00 -0.25000000000000D+00  0.37500000000000D+00
            0.12500000000000D+00 -0.25000000000000D+00  0.50000000000000D+00
            0.25000000000000D+00 -0.25000000000000D+00 -0.37500000000000D+00
            0.37500000000000D+00 -0.25000000000000D+00 -0.25000000000000D+00
            0.50000000000000D+00 -0.25000000000000D+00 -0.12500000000000D+00
            0.00000000000000D+00 -0.12500000000000D+00  0.50000000000000D+00
            0.12500000000000D+00 -0.12500000000000D+00 -0.37500000000000D+00
            0.25000000000000D+00 -0.12500000000000D+00 -0.25000000000000D+00
            0.37500000000000D+00 -0.12500000000000D+00 -0.12500000000000D+00
            0.12500000000000D+00  0.00000000000000D+00  0.00000000000000D+00
            0.25000000000000D+00  0.00000000000000D+00  0.12500000000000D+00
            0.37500000000000D+00  0.00000000000000D+00  0.25000000000000D+00
            0.50000000000000D+00  0.00000000000000D+00  0.37500000000000D+00
           -0.37500000000000D+00  0.00000000000000D+00  0.50000000000000D+00
           -0.25000000000000D+00  0.00000000000000D+00 -0.37500000000000D+00
           -0.12500000000000D+00  0.00000000000000D+00 -0.25000000000000D+00
            0.00000000000000D+00  0.12500000000000D+00  0.00000000000000D+00
            0.12500000000000D+00  0.12500000000000D+00  0.12500000000000D+00
            0.25000000000000D+00  0.12500000000000D+00  0.25000000000000D+00
            0.37500000000000D+00  0.12500000000000D+00  0.37500000000000D+00
            0.50000000000000D+00  0.12500000000000D+00  0.50000000000000D+00
           -0.37500000000000D+00  0.12500000000000D+00 -0.37500000000000D+00
           -0.25000000000000D+00  0.12500000000000D+00 -0.25000000000000D+00
           -0.12500000000000D+00  0.12500000000000D+00 -0.12500000000000D+00
            0.00000000000000D+00  0.25000000000000D+00  0.12500000000000D+00
            0.12500000000000D+00  0.25000000000000D+00  0.25000000000000D+00
            0.25000000000000D+00  0.25000000000000D+00  0.37500000000000D+00
            0.37500000000000D+00  0.25000000000000D+00  0.50000000000000D+00
            0.50000000000000D+00  0.25000000000000D+00 -0.37500000000000D+00
           -0.37500000000000D+00  0.25000000000000D+00 -0.25000000000000D+00
           -0.25000000000000D+00  0.25000000000000D+00 -0.12500000000000D+00
            0.00000000000000D+00  0.37500000000000D+00  0.25000000000000D+00
            0.12500000000000D+00  0.37500000000000D+00  0.37500000000000D+00
            0.25000000000000D+00  0.37500000000000D+00  0.50000000000000D+00
            0.37500000000000D+00  0.37500000000000D+00 -0.37500000000000D+00
            0.50000000000000D+00  0.37500000000000D+00 -0.25000000000000D+00
           -0.37500000000000D+00  0.37500000000000D+00 -0.12500000000000D+00
            0.00000000000000D+00  0.50000000000000D+00  0.37500000000000D+00
            0.12500000000000D+00  0.50000000000000D+00  0.50000000000000D+00
            0.25000000000000D+00  0.50000000000000D+00 -0.37500000000000D+00
            0.37500000000000D+00  0.50000000000000D+00 -0.25000000000000D+00
            0.50000000000000D+00  0.50000000000000D+00 -0.12500000000000D+00
            0.00000000000000D+00 -0.37500000000000D+00  0.50000000000000D+00
            0.12500000000000D+00 -0.37500000000000D+00 -0.37500000000000D+00
            0.25000000000000D+00 -0.37500000000000D+00 -0.25000000000000D+00
            0.37500000000000D+00 -0.37500000000000D+00 -0.12500000000000D+00
            0.00000000000000D+00 -0.25000000000000D+00 -0.37500000000000D+00
            0.12500000000000D+00 -0.25000000000000D+00 -0.25000000000000D+00
            0.25000000000000D+00 -0.25000000000000D+00 -0.12500000000000D+00
            0.00000000000000D+00 -0.12500000000000D+00 -0.25000000000000D+00
            0.12500000000000D+00 -0.12500000000000D+00 -0.12500000000000D+00
            0.00000000000000D+00  0.00000000000000D+00  0.12500000000000D+00
            0.12500000000000D+00  0.00000000000000D+00  0.25000000000000D+00
            0.25000000000000D+00  0.00000000000000D+00  0.37500000000000D+00
            0.37500000000000D+00  0.00000000000000D+00  0.50000000000000D+00
            0.50000000000000D+00  0.00000000000000D+00 -0.37500000000000D+00
           -0.37500000000000D+00  0.00000000000000D+00 -0.25000000000000D+00
           -0.25000000000000D+00  0.00000000000000D+00 -0.12500000000000D+00
            0.00000000000000D+00  0.12500000000000D+00  0.25000000000000D+00
            0.12500000000000D+00  0.12500000000000D+00  0.37500000000000D+00
            0.25000000000000D+00  0.12500000000000D+00  0.50000000000000D+00
            0.37500000000000D+00  0.12500000000000D+00 -0.37500000000000D+00
            0.50000000000000D+00  0.12500000000000D+00 -0.25000000000000D+00
           -0.37500000000000D+00  0.12500000000000D+00 -0.12500000000000D+00
            0.00000000000000D+00  0.25000000000000D+00  0.37500000000000D+00
            0.12500000000000D+00  0.25000000000000D+00  0.50000000000000D+00
            0.25000000000000D+00  0.25000000000000D+00 -0.37500000000000D+00
            0.37500000000000D+00  0.25000000000000D+00 -0.25000000000000D+00
            0.50000000000000D+00  0.25000000000000D+00 -0.12500000000000D+00
            0.00000000000000D+00  0.37500000000000D+00  0.50000000000000D+00
            0.12500000000000D+00  0.37500000000000D+00 -0.37500000000000D+00
            0.25000000000000D+00  0.37500000000000D+00 -0.25000000000000D+00
            0.37500000000000D+00  0.37500000000000D+00 -0.12500000000000D+00
            0.00000000000000D+00  0.50000000000000D+00 -0.37500000000000D+00
            0.12500000000000D+00  0.50000000000000D+00 -0.25000000000000D+00
            0.25000000000000D+00  0.50000000000000D+00 -0.12500000000000D+00
            0.00000000000000D+00 -0.37500000000000D+00 -0.25000000000000D+00
            0.12500000000000D+00 -0.37500000000000D+00 -0.12500000000000D+00
            0.00000000000000D+00 -0.25000000000000D+00 -0.12500000000000D+00
            0.00000000000000D+00  0.00000000000000D+00  0.37500000000000D+00
            0.12500000000000D+00  0.00000000000000D+00  0.50000000000000D+00
            0.25000000000000D+00  0.00000000000000D+00 -0.37500000000000D+00
            0.37500000000000D+00  0.00000000000000D+00 -0.25000000000000D+00
            0.50000000000000D+00  0.00000000000000D+00 -0.12500000000000D+00
            0.00000000000000D+00  0.12500000000000D+00  0.50000000000000D+00
            0.12500000000000D+00  0.12500000000000D+00 -0.37500000000000D+00
            0.25000000000000D+00  0.12500000000000D+00 -0.25000000000000D+00
            0.37500000000000D+00  0.12500000000000D+00 -0.12500000000000D+00
            0.00000000000000D+00  0.25000000000000D+00 -0.37500000000000D+00
            0.12500000000000D+00  0.25000000000000D+00 -0.25000000000000D+00
            0.25000000000000D+00  0.25000000000000D+00 -0.12500000000000D+00
            0.00000000000000D+00  0.37500000000000D+00 -0.25000000000000D+00
            0.12500000000000D+00  0.37500000000000D+00 -0.12500000000000D+00
            0.00000000000000D+00  0.50000000000000D+00 -0.12500000000000D+00
            0.00000000000000D+00  0.00000000000000D+00 -0.37500000000000D+00
            0.12500000000000D+00  0.00000000000000D+00 -0.25000000000000D+00
            0.25000000000000D+00  0.00000000000000D+00 -0.12500000000000D+00
            0.00000000000000D+00  0.12500000000000D+00 -0.25000000000000D+00
            0.12500000000000D+00  0.12500000000000D+00 -0.12500000000000D+00
            0.00000000000000D+00  0.25000000000000D+00 -0.12500000000000D+00
            0.00000000000000D+00  0.00000000000000D+00 -0.12500000000000D+00
    kptnrm  0.10000000000000D+01
     ngfft        12   12   12
    nspden         1
   nspinor         1
       occ  0.20000000000000D+01  0.20000000000000D+01  0.20000000000000D+01
            0.20000000000000D+01
     rprim  0.00000000000000D+00  0.50000000000000D+00  0.50000000000000D+00
            0.50000000000000D+00  0.00000000000000D+00  0.50000000000000D+00
            0.50000000000000D+00  0.50000000000000D+00  0.00000000000000D+00
     sciss  0.00000000000000D+00
    spinat  0.00000000000000D+00  0.00000000000000D+00  0.00000000000000D+00
            0.00000000000000D+00  0.00000000000000D+00  0.00000000000000D+00
    symafm         1    1    1    1    1    1    1    1    1    1    1    1
                   1    1    1    1    1    1    1    1    1    1    1    1
    symrel         1    0    0    0    1    0    0    0    1
                   0   -1    1    0   -1    0    1   -1    0
                  -1    0    0   -1    0    1   -1    1    0
                   0    1   -1    1    0   -1    0    0   -1
                  -1    0    0   -1    1    0   -1    0    1
                   0   -1    1    1   -1    0    0   -1    0
                   1    0    0    0    0    1    0    1    0
                   0    1   -1    0    0   -1    1    0   -1
                  -1    0    1   -1    1    0   -1    0    0
                   0   -1    0    1   -1    0    0   -1    1
                   1    0   -1    0    0   -1    0    1   -1
                   0    1    0    0    0    1    1    0    0
                   1    0   -1    0    1   -1    0    0   -1
                   0   -1    0    0   -1    1    1   -1    0
                  -1    0    1   -1    0    0   -1    1    0
                   0    1    0    1    0    0    0    0    1
                   0    0   -1    0    1   -1    1    0   -1
                   1   -1    0    0   -1    1    0   -1    0
                   0    0    1    1    0    0    0    1    0
                  -1    1    0   -1    0    0   -1    0    1
                   0    0    1    0    1    0    1    0    0
                   1   -1    0    0   -1    0    0   -1    1
                   0    0   -1    1    0   -1    0    1   -1
                  -1    1    0   -1    0    1   -1    0    0
     tnons  0.00000000000000D+00  0.00000000000000D+00  0.00000000000000D+00
            0.00000000000000D+00  0.00000000000000D+00  0.00000000000000D+00
            0.00000000000000D+00  0.00000000000000D+00  0.00000000000000D+00
            0.00000000000000D+00  0.00000000000000D+00  0.00000000000000D+00
            0.00000000000000D+00  0.00000000000000D+00  0.00000000000000D+00
            0.00000000000000D+00  0.00000000000000D+00  0.00000000000000D+00
            0.00000000000000D+00  0.00000000000000D+00  0.00000000000000D+00
            0.00000000000000D+00  0.00000000000000D+00  0.00000000000000D+00
            0.00000000000000D+00  0.00000000000000D+00  0.00000000000000D+00
            0.00000000000000D+00  0.00000000000000D+00  0.00000000000000D+00
            0.00000000000000D+00  0.00000000000000D+00  0.00000000000000D+00
            0.00000000000000D+00  0.00000000000000D+00  0.00000000000000D+00
            0.00000000000000D+00  0.00000000000000D+00  0.00000000000000D+00
            0.00000000000000D+00  0.00000000000000D+00  0.00000000000000D+00
            0.00000000000000D+00  0.00000000000000D+00  0.00000000000000D+00
            0.00000000000000D+00  0.00000000000000D+00  0.00000000000000D+00
            0.00000000000000D+00  0.00000000000000D+00  0.00000000000000D+00
            0.00000000000000D+00  0.00000000000000D+00  0.00000000000000D+00
            0.00000000000000D+00  0.00000000000000D+00  0.00000000000000D+00
            0.00000000000000D+00  0.00000000000000D+00  0.00000000000000D+00
            0.00000000000000D+00  0.00000000000000D+00  0.00000000000000D+00
            0.00000000000000D+00  0.00000000000000D+00  0.00000000000000D+00
            0.00000000000000D+00  0.00000000000000D+00  0.00000000000000D+00
            0.00000000000000D+00  0.00000000000000D+00  0.00000000000000D+00
    tolwfr  0.10000000000000D+01
   tphysel  0.00000000000000D+00
    tsmear  0.40000000000000D-01
     typat         1    2
       wtk  0.39062500000000D-02  0.39062500000000D-02  0.39062500000000D-02
            0.39062500000000D-02  0.39062500000000D-02  0.39062500000000D-02
            0.39062500000000D-02  0.39062500000000D-02  0.39062500000000D-02
            0.39062500000000D-02  0.39062500000000D-02  0.39062500000000D-02
            0.39062500000000D-02  0.39062500000000D-02  0.39062500000000D-02
            0.39062500000000D-02  0.39062500000000D-02  0.39062500000000D-02
            0.39062500000000D-02  0.39062500000000D-02  0.39062500000000D-02
            0.39062500000000D-02  0.39062500000000D-02  0.39062500000000D-02
            0.39062500000000D-02  0.39062500000000D-02  0.39062500000000D-02
            0.39062500000000D-02  0.39062500000000D-02  0.39062500000000D-02
            0.39062500000000D-02  0.39062500000000D-02  0.39062500000000D-02
            0.39062500000000D-02  0.39062500000000D-02  0.39062500000000D-02
            0.39062500000000D-02  0.39062500000000D-02  0.39062500000000D-02
            0.39062500000000D-02  0.39062500000000D-02  0.39062500000000D-02
            0.39062500000000D-02  0.39062500000000D-02  0.39062500000000D-02
            0.39062500000000D-02  0.39062500000000D-02  0.39062500000000D-02
            0.39062500000000D-02  0.39062500000000D-02  0.39062500000000D-02
            0.39062500000000D-02  0.39062500000000D-02  0.39062500000000D-02
            0.39062500000000D-02  0.39062500000000D-02  0.39062500000000D-02
            0.39062500000000D-02  0.39062500000000D-02  0.39062500000000D-02
            0.39062500000000D-02  0.39062500000000D-02  0.39062500000000D-02
            0.39062500000000D-02  0.39062500000000D-02  0.39062500000000D-02
            0.39062500000000D-02  0.39062500000000D-02  0.39062500000000D-02
            0.39062500000000D-02  0.39062500000000D-02  0.39062500000000D-02
            0.39062500000000D-02  0.39062500000000D-02  0.39062500000000D-02
            0.39062500000000D-02  0.39062500000000D-02  0.39062500000000D-02
            0.39062500000000D-02  0.39062500000000D-02  0.39062500000000D-02
            0.39062500000000D-02  0.39062500000000D-02  0.39062500000000D-02
            0.39062500000000D-02  0.39062500000000D-02  0.39062500000000D-02
            0.39062500000000D-02  0.39062500000000D-02  0.39062500000000D-02
            0.39062500000000D-02  0.39062500000000D-02  0.39062500000000D-02
            0.39062500000000D-02  0.39062500000000D-02  0.39062500000000D-02
            0.39062500000000D-02  0.39062500000000D-02  0.39062500000000D-02
            0.39062500000000D-02  0.39062500000000D-02  0.39062500000000D-02
            0.39062500000000D-02  0.39062500000000D-02  0.39062500000000D-02
            0.39062500000000D-02  0.39062500000000D-02  0.39062500000000D-02
            0.39062500000000D-02  0.39062500000000D-02  0.39062500000000D-02
            0.39062500000000D-02  0.39062500000000D-02  0.39062500000000D-02
            0.39062500000000D-02  0.39062500000000D-02  0.39062500000000D-02
            0.39062500000000D-02  0.39062500000000D-02  0.39062500000000D-02
            0.39062500000000D-02  0.39062500000000D-02  0.39062500000000D-02
            0.39062500000000D-02  0.39062500000000D-02  0.39062500000000D-02
            0.39062500000000D-02  0.39062500000000D-02  0.39062500000000D-02
            0.39062500000000D-02  0.39062500000000D-02  0.39062500000000D-02
            0.39062500000000D-02  0.39062500000000D-02  0.39062500000000D-02
            0.39062500000000D-02  0.39062500000000D-02  0.39062500000000D-02
            0.39062500000000D-02  0.39062500000000D-02  0.39062500000000D-02
            0.39062500000000D-02  0.39062500000000D-02  0.39062500000000D-02
            0.39062500000000D-02  0.39062500000000D-02  0.39062500000000D-02
            0.39062500000000D-02  0.39062500000000D-02  0.39062500000000D-02
            0.39062500000000D-02  0.39062500000000D-02  0.39062500000000D-02
            0.39062500000000D-02  0.39062500000000D-02  0.39062500000000D-02
            0.39062500000000D-02  0.39062500000000D-02  0.39062500000000D-02
            0.39062500000000D-02  0.39062500000000D-02  0.39062500000000D-02
            0.39062500000000D-02  0.39062500000000D-02  0.39062500000000D-02
            0.39062500000000D-02  0.39062500000000D-02  0.39062500000000D-02
            0.39062500000000D-02  0.39062500000000D-02  0.39062500000000D-02
            0.39062500000000D-02  0.39062500000000D-02  0.39062500000000D-02
            0.39062500000000D-02  0.39062500000000D-02  0.39062500000000D-02
            0.39062500000000D-02  0.39062500000000D-02  0.39062500000000D-02
            0.39062500000000D-02  0.39062500000000D-02  0.39062500000000D-02
            0.39062500000000D-02  0.39062500000000D-02  0.39062500000000D-02
            0.39062500000000D-02  0.39062500000000D-02  0.39062500000000D-02
            0.39062500000000D-02  0.39062500000000D-02  0.39062500000000D-02
            0.39062500000000D-02  0.39062500000000D-02  0.39062500000000D-02
            0.39062500000000D-02  0.39062500000000D-02  0.39062500000000D-02
            0.39062500000000D-02  0.39062500000000D-02  0.39062500000000D-02
            0.39062500000000D-02  0.39062500000000D-02  0.39062500000000D-02
            0.39062500000000D-02  0.39062500000000D-02  0.39062500000000D-02
            0.39062500000000D-02  0.39062500000000D-02  0.39062500000000D-02
            0.39062500000000D-02  0.39062500000000D-02  0.39062500000000D-02
            0.39062500000000D-02  0.39062500000000D-02  0.39062500000000D-02
            0.39062500000000D-02  0.39062500000000D-02  0.39062500000000D-02
            0.39062500000000D-02  0.39062500000000D-02  0.39062500000000D-02
            0.39062500000000D-02  0.39062500000000D-02  0.39062500000000D-02
            0.39062500000000D-02  0.39062500000000D-02  0.39062500000000D-02
            0.39062500000000D-02  0.39062500000000D-02  0.39062500000000D-02
            0.39062500000000D-02  0.39062500000000D-02  0.39062500000000D-02
            0.39062500000000D-02  0.39062500000000D-02  0.39062500000000D-02
            0.39062500000000D-02  0.39062500000000D-02  0.39062500000000D-02
            0.39062500000000D-02  0.39062500000000D-02  0.39062500000000D-02
            0.39062500000000D-02  0.39062500000000D-02  0.39062500000000D-02
            0.39062500000000D-02  0.39062500000000D-02  0.39062500000000D-02
            0.39062500000000D-02  0.39062500000000D-02  0.39062500000000D-02
            0.39062500000000D-02  0.39062500000000D-02  0.39062500000000D-02
            0.39062500000000D-02
      xred  0.00000000000000D+00  0.00000000000000D+00  0.00000000000000D+00
            0.25000000000000D+00  0.25000000000000D+00  0.25000000000000D+00
     znucl  0.13000000000000D+02  0.33000000000000D+02
      zion  0.30000000000000D+01  0.50000000000000D+01
 
  Description of the potentials (KB energies)
  vrsio8 (for pseudopotentials)=100401
  usepaw =  0
  dimekb =  3       lmnmax=  3
  Atom type=    1   pspso=  0   nekb=   2
  iln lpsang iproj  ekb(:)
     1     0     1     1.7687444E+00  0.0000000E+00
     2     1     1     0.0000000E+00  9.0055415E-01
  Atom type=    2   pspso=  0   nekb=   1
  iln lpsang iproj  ekb(:)
     1     0     1     8.3875106E-01
 
 **** Database of total energy derivatives ****
 Number of data blocks=    8
  
 2nd derivatives (non-stat.)  - # elements :      81
 qpt  0.00000000E+00  0.00000000E+00  0.00000000E+00   1.0
   1   1   1   1  0.50078591780432D+01  0.00000000000000D+00
   2   1   1   1  0.25039295890216D+01  0.00000000000000D+00
   3   1   1   1  0.25039295890216D+01  0.00000000000000D+00
   1   2   1   1 -0.50077717292717D+01  0.73319347970208D-18
   2   2   1   1 -0.25038858646358D+01 -0.22662441458424D-17
   3   2   1   1 -0.25038858646358D+01 -0.32760426586439D-17
   1   4   1   1 -0.56274744748802D+01  0.00000000000000D+00
   2   4   1   1 -0.21757845055416D-16  0.00000000000000D+00
   3   4   1   1 -0.47362084370833D-17  0.00000000000000D+00
   1   1   2   1  0.25039295890216D+01  0.00000000000000D+00
   2   1   2   1  0.50078591780432D+01  0.00000000000000D+00
   3   1   2   1  0.25039295890216D+01  0.00000000000000D+00
   1   2   2   1 -0.25038858646358D+01 -0.22662441458424D-17
   2   2   2   1 -0.50077717292717D+01  0.28893229789905D-17
   3   2   2   1 -0.25038858646358D+01 -0.21964918420478D-17
   1   4   2   1  0.00000000000000D+00  0.00000000000000D+00
   2   4   2   1 -0.56274744748802D+01  0.00000000000000D+00
   3   4   2   1  0.91415793707311D-17  0.00000000000000D+00
   1   1   3   1  0.25039295890216D+01  0.00000000000000D+00
   2   1   3   1  0.25039295890216D+01  0.00000000000000D+00
   3   1   3   1  0.50078591780432D+01  0.00000000000000D+00
   1   2   3   1 -0.25038858646358D+01 -0.32760426586439D-17
   2   2   3   1 -0.25038858646358D+01 -0.21964918420478D-17
   3   2   3   1 -0.50077717292717D+01 -0.72872500766219D-17
   1   4   3   1  0.37007434154172D-16  0.00000000000000D+00
   2   4   3   1  0.34746863139535D-17  0.00000000000000D+00
   3   4   3   1 -0.56274744748802D+01  0.00000000000000D+00
   1   1   1   2 -0.50077955320708D+01 -0.73319347970208D-18
   2   1   1   2 -0.25038977660354D+01  0.22662441458424D-17
   3   1   1   2 -0.25038977660354D+01  0.32760426586439D-17
   1   2   1   2  0.50077787498341D+01  0.00000000000000D+00
   2   2   1   2  0.25038893749170D+01  0.00000000000000D+00
   3   2   1   2  0.25038893749171D+01  0.00000000000000D+00
   1   4   1   2 -0.44781700404918D+02  0.00000000000000D+00
   2   4   1   2 -0.28991352569374D-16  0.00000000000000D+00
   3   4   1   2  0.26685252430915D-15  0.00000000000000D+00
   1   1   2   2 -0.25038977660354D+01  0.22662441458424D-17
   2   1   2   2 -0.50077955320708D+01 -0.28893229789905D-17
   3   1   2   2 -0.25038977660354D+01  0.21964918420478D-17
   1   2   2   2  0.25038893749170D+01  0.00000000000000D+00
   2   2   2   2  0.50077787498341D+01  0.00000000000000D+00
   3   2   2   2  0.25038893749171D+01  0.00000000000000D+00
   1   4   2   2  0.29605947323338D-15  0.00000000000000D+00
   2   4   2   2 -0.44781700404918D+02  0.00000000000000D+00
   3   4   2   2  0.50740084631126D-15  0.00000000000000D+00
   1   1   3   2 -0.25038977660354D+01  0.32760426586439D-17
   2   1   3   2 -0.25038977660354D+01  0.21964918420478D-17
   3   1   3   2 -0.50077955320708D+01  0.72872500766219D-17
   1   2   3   2  0.25038893749170D+01  0.00000000000000D+00
   2   2   3   2  0.25038893749170D+01  0.00000000000000D+00
   3   2   3   2  0.50077787498341D+01  0.00000000000000D+00
   1   4   3   2  0.00000000000000D+00  0.00000000000000D+00
   2   4   3   2 -0.97631920353027D-16  0.00000000000000D+00
   3   4   3   2 -0.44781700404918D+02  0.00000000000000D+00
   1   1   1   4 -0.56274965189139D+01  0.00000000000000D+00
   2   1   1   4  0.00000000000000D+00  0.00000000000000D+00
   3   1   1   4  0.00000000000000D+00  0.00000000000000D+00
   1   2   1   4 -0.44781668560443D+02  0.00000000000000D+00
   2   2   1   4  0.00000000000000D+00  0.00000000000000D+00
   3   2   1   4  0.00000000000000D+00  0.00000000000000D+00
   1   4   1   4 -0.21900831719169D+03  0.00000000000000D+00
   2   4   1   4  0.73002772397231D+02  0.00000000000000D+00
   3   4   1   4  0.73002772397231D+02  0.00000000000000D+00
   1   1   2   4 -0.11244464393743D-16  0.00000000000000D+00
   2   1   2   4 -0.56274965189139D+01  0.00000000000000D+00
   3   1   2   4  0.34746863139535D-17  0.00000000000000D+00
   1   2   2   4 -0.87189654062977D-16  0.00000000000000D+00
   2   2   2   4 -0.44781668560443D+02  0.00000000000000D+00
   3   2   2   4  0.19842755288035D-15  0.00000000000000D+00
   1   4   2   4  0.73002772397231D+02  0.00000000000000D+00
   2   4   2   4 -0.21900831719169D+03  0.00000000000000D+00
   3   4   2   4  0.73002772397231D+02  0.00000000000000D+00
   1   1   3   4  0.21028850230119D-17  0.00000000000000D+00
   2   1   3   4  0.26494053492499D-16  0.00000000000000D+00
   3   1   3   4 -0.56274965189139D+01  0.00000000000000D+00
   1   2   3   4 -0.12415171901491D-15  0.00000000000000D+00
   2   2   3   4  0.58198301493603D-16  0.00000000000000D+00
   3   2   3   4 -0.44781668560443D+02  0.00000000000000D+00
   1   4   3   4  0.73002772397231D+02  0.00000000000000D+00
   2   4   3   4  0.73002772397231D+02  0.00000000000000D+00
   3   4   3   4 -0.21900831719169D+03  0.00000000000000D+00
  
 2nd derivatives (non-stat.)  - # elements :      36
 qpt  2.50000000E-01  0.00000000E+00  0.00000000E+00   1.0
   1   1   1   1  0.60199120847415D+01  0.40303953887276D-06
   2   1   1   1  0.24130384676782D+01 -0.94485586480446D-16
   3   1   1   1  0.24130384676781D+01  0.32540013961668D-16
   1   2   1   1 -0.32844959270004D+01 -0.23483058517451D+01
   2   2   1   1 -0.22820194564109D+01 -0.16845238516319D+00
   3   2   1   1 -0.22820194564109D+01 -0.16845238516320D+00
   1   1   2   1  0.24130384676782D+01 -0.94485586480446D-16
   2   1   2   1  0.48260769353563D+01  0.11386184578630D-16
   3   1   2   1  0.24130384676781D+01 -0.45604281445597D-17
   1   2   2   1 -0.22820194564109D+01 -0.16845238516319D+00
   2   2   2   1 -0.45640389128218D+01 -0.33690477032638D+00
   3   2   2   1 -0.22820194564109D+01 -0.16845238516319D+00
   1   1   3   1  0.24130384676781D+01  0.32540013961668D-16
   2   1   3   1  0.24130384676781D+01 -0.45604281445597D-17
   3   1   3   1  0.48260769353563D+01 -0.16158839132251D-17
   1   2   3   1 -0.22820194564109D+01 -0.16845238516320D+00
   2   2   3   1 -0.22820194564109D+01 -0.16845238516319D+00
   3   2   3   1 -0.45640389128218D+01 -0.33690477032639D+00
   1   1   1   2 -0.32844898512096D+01  0.23483109753943D+01
   2   1   1   2 -0.22820188719685D+01  0.16845485217270D+00
   3   1   1   2 -0.22820188719685D+01  0.16845485217270D+00
   1   2   1   2  0.59965439533380D+01  0.21065918892716D-05
   2   2   1   2  0.25317771281758D+01 -0.26245996244568D-15
   3   2   1   2  0.25317771281758D+01  0.90388927671300D-16
   1   1   2   2 -0.22820188719685D+01  0.16845485217270D+00
   2   1   2   2 -0.45640377439370D+01  0.33690970434539D+00
   3   1   2   2 -0.22820188719685D+01  0.16845485217270D+00
   1   2   2   2  0.25317771281758D+01 -0.26245996244568D-15
   2   2   2   2  0.50635542563517D+01  0.31628290496195D-16
   3   2   2   2  0.25317771281758D+01 -0.12667855957110D-16
   1   1   3   2 -0.22820188719685D+01  0.16845485217270D+00
   2   1   3   2 -0.22820188719685D+01  0.16845485217270D+00
   3   1   3   2 -0.45640377439370D+01  0.33690970434539D+00
   1   2   3   2  0.25317771281758D+01  0.90388927671300D-16
   2   2   3   2  0.25317771281758D+01 -0.12667855957110D-16
   3   2   3   2  0.50635542563517D+01 -0.44885664256253D-17
  
 2nd derivatives (non-stat.)  - # elements :      36
 qpt  5.00000000E-01  0.00000000E+00  0.00000000E+00   1.0
   1   1   1   1  0.63142233399728D+01  0.71537547190718D-05
   2   1   1   1  0.24061279493620D+01  0.00000000000000D+00
   3   1   1   1  0.24061279493620D+01  0.00000000000000D+00
   1   2   1   1 -0.84325114636891D+00 -0.13930008867764D-04
   2   2   1   1 -0.22070029230560D+01 -0.14215165051493D-05
   3   2   1   1 -0.22070029230560D+01 -0.14215165051554D-05
   1   1   2   1  0.24061279493620D+01  0.00000000000000D+00
   2   1   2   1  0.48122558987241D+01  0.00000000000000D+00
   3   1   2   1  0.24061279493620D+01  0.00000000000000D+00
   1   2   2   1 -0.22070029230560D+01 -0.14215165051493D-05
   2   2   2   1 -0.44140058461120D+01 -0.28430330102827D-05
   3   2   2   1 -0.22070029230560D+01 -0.14215165051423D-05
   1   1   3   1  0.24061279493620D+01  0.00000000000000D+00
   2   1   3   1  0.24061279493620D+01  0.00000000000000D+00
   3   1   3   1  0.48122558987241D+01  0.00000000000000D+00
   1   2   3   1 -0.22070029230560D+01 -0.14215165051554D-05
   2   2   3   1 -0.22070029230560D+01 -0.14215165051423D-05
   3   2   3   1 -0.44140058461120D+01 -0.28430330102858D-05
   1   1   1   2 -0.84322677052979D+00 -0.11983593568831D-04
   2   1   1   2 -0.22070453910810D+01 -0.46478879128358D-05
   3   1   1   2 -0.22070453910810D+01 -0.46478879128297D-05
   1   2   1   2  0.61715299218175D+01 -0.39475291274886D-05
   2   2   1   2  0.25268909904771D+01  0.00000000000000D+00
   3   2   1   2  0.25268909904771D+01  0.00000000000000D+00
   1   1   2   2 -0.22070453910810D+01 -0.46478879128358D-05
   2   1   2   2 -0.44140907821620D+01 -0.92957758256874D-05
   3   1   2   2 -0.22070453910810D+01 -0.46478879128428D-05
   1   2   2   2  0.25268909904771D+01  0.00000000000000D+00
   2   2   2   2  0.50537819809543D+01  0.00000000000000D+00
   3   2   2   2  0.25268909904771D+01  0.00000000000000D+00
   1   1   3   2 -0.22070453910810D+01 -0.46478879128297D-05
   2   1   3   2 -0.22070453910810D+01 -0.46478879128428D-05
   3   1   3   2 -0.44140907821620D+01 -0.92957758256842D-05
   1   2   3   2  0.25268909904771D+01  0.00000000000000D+00
   2   2   3   2  0.25268909904771D+01  0.00000000000000D+00
   3   2   3   2  0.50537819809544D+01  0.00000000000000D+00
  
 2nd derivatives (non-stat.)  - # elements :      36
 qpt  2.50000000E-01  2.50000000E-01  0.00000000E+00   1.0
   1   1   1   1  0.57575672234409D+01  0.15270870683956D-16
   2   1   1   1  0.35263993567301D+01  0.31850885908835D-16
   3   1   1   1  0.22311678667108D+01 -0.34195842137870D-16
   1   2   1   1 -0.27225686799089D+01 -0.27225688906991D+01
   2   2   1   1 -0.24163800443147D+01 -0.67322368362898D+00
   3   2   1   1 -0.20493452070702D+01 -0.30618863559420D+00
   1   1   2   1  0.35263993567301D+01  0.31850885908835D-16
   2   1   2   1  0.57575672234409D+01  0.16709080736064D-15
   3   1   2   1  0.22311678667108D+01  0.10463062804910D-15
   1   2   2   1 -0.24163800443147D+01 -0.67322368362897D+00
   2   2   2   1 -0.27225686799089D+01 -0.27225688906991D+01
   3   2   2   1 -0.20493452070702D+01 -0.30618863559420D+00
   1   1   3   1  0.22311678667108D+01 -0.34195842137870D-16
   2   1   3   1  0.22311678667108D+01  0.10463062804910D-15
   3   1   3   1  0.44623357334216D+01 -0.26864573309349D-17
   1   2   3   1 -0.20493452070702D+01 -0.30618863559420D+00
   2   2   3   1 -0.20493452070702D+01 -0.30618863559420D+00
   3   2   3   1 -0.40986904141403D+01 -0.61237727118840D+00
   1   1   1   2 -0.27225569699671D+01  0.27225571807571D+01
   2   1   1   2 -0.24163761410008D+01  0.67321978031493D+00
   3   1   1   2 -0.20493374004422D+01  0.30618082896626D+00
   1   2   1   2  0.58482337630787D+01  0.42419085233211D-16
   2   2   1   2  0.32359554739589D+01  0.88474683080097D-16
   3   2   1   2  0.26122782891197D+01 -0.94988450382972D-16
   1   1   2   2 -0.24163761410008D+01  0.67321978031493D+00
   2   1   2   2 -0.27225569699671D+01  0.27225571807571D+01
   3   1   2   2 -0.20493374004422D+01  0.30618082896626D+00
   1   2   2   2  0.32359554739589D+01  0.88474683080097D-16
   2   2   2   2  0.58482337630787D+01  0.46414113155733D-15
   3   2   2   2  0.26122782891197D+01  0.29064063346973D-15
   1   1   3   2 -0.20493374004422D+01  0.30618082896626D+00
   2   1   3   2 -0.20493374004422D+01  0.30618082896626D+00
   3   1   3   2 -0.40986748008844D+01  0.61236165793251D+00
   1   2   3   2  0.26122782891197D+01 -0.94988450382972D-16
   2   2   3   2  0.26122782891197D+01  0.29064063346973D-15
   3   2   3   2  0.52245565782395D+01 -0.74623814748192D-17
  
 2nd derivatives (non-stat.)  - # elements :      36
 qpt  5.00000000E-01  2.50000000E-01  0.00000000E+00   1.0
   1   1   1   1  0.57623732850823D+01  0.19995870237179D-04
   2   1   1   1  0.31340016543652D+01  0.31836560927824D+00
   3   1   1   1  0.22170308335152D+01 -0.68374253415808D-17
   1   2   1   1 -0.38909989138351D+00 -0.47571391820031D+00
   2   2   1   1 -0.20231982991034D+01 -0.31993112874245D+00
   3   2   1   1 -0.19751082678603D+01 -0.16328296933843D+00
   1   1   2   1  0.31340196018831D+01 -0.31838767574497D+00
   2   1   2   1  0.53044207984813D+01  0.15925915117591D-04
   3   1   2   1  0.22170308335152D+01  0.69727140121959D-16
   1   2   2   1 -0.22788874708172D+01 -0.22840563394215D+00
   2   2   2   1 -0.23055212393838D+01 -0.21281762620794D+01
   3   2   2   1 -0.19751082678603D+01 -0.16328296933843D+00
   1   1   3   1  0.22170308335152D+01 -0.68374253415808D-17
   2   1   3   1  0.22170308335152D+01  0.69727140121959D-16
   3   1   3   1  0.44340616670304D+01 -0.20141033150851D-17
   1   2   3   1 -0.19751082678603D+01 -0.16328296933843D+00
   2   2   3   1 -0.19751082678603D+01 -0.16328296933843D+00
   3   2   3   1 -0.39502165357206D+01 -0.32656593867685D+00
   1   1   1   2 -0.38911893281323D+00  0.47561388493413D+00
   2   1   1   2 -0.22789461499192D+01  0.22835536264403D+00
   3   1   1   2 -0.19751558252082D+01  0.16322183024162D+00
   1   2   1   2  0.61417656673062D+01 -0.28508807488206D-04
   2   2   1   2  0.29857176599010D+01  0.31822763756041D+00
   3   2   1   2  0.26045957564545D+01 -0.18992848171058D-16
   1   1   2   2 -0.20232582458743D+01  0.31986950607461D+00
   2   1   2   2 -0.23055456239387D+01  0.21281563077794D+01
   3   1   2   2 -0.19751558252082D+01  0.16322183024162D+00
   1   2   2   2  0.29856850847828D+01 -0.31826075606784D+00
   2   2   2   2  0.57324357232944D+01 -0.26740301957269D-04
   3   2   2   2  0.26045957564545D+01  0.19368650033878D-15
   1   1   3   2 -0.19751558252082D+01  0.16322183024162D+00
   2   1   3   2 -0.19751558252082D+01  0.16322183024162D+00
   3   1   3   2 -0.39503116504164D+01  0.32644366048324D+00
   1   2   3   2  0.26045957564545D+01 -0.18992848171058D-16
   2   2   3   2  0.26045957564545D+01  0.19368650033878D-15
   3   2   3   2  0.52091915129091D+01 -0.55947314307921D-17
  
 2nd derivatives (non-stat.)  - # elements :      36
 qpt -2.50000000E-01  2.50000000E-01  0.00000000E+00   1.0
   1   1   1   1  0.52327650922127D+01  0.35103768017145D-06
   2   1   1   1  0.25084093451633D+01  0.41681371791966D+00
   3   1   1   1  0.23261193511762D+01  0.14299787324960D-16
   1   2   1   1 -0.25646736868766D+01  0.18789491613041D+01
   2   2   1   1 -0.21091915651234D+01 -0.21542743084283D+00
   3   2   1   1 -0.20476754088127D+01 -0.77276528711506D-07
   1   1   2   1  0.25084089793424D+01 -0.41681336688198D+00
   2   1   2   1  0.52327648697161D+01 -0.70207536026207D-06
   3   1   2   1  0.23261193511762D+01  0.63592696822596D-16
   1   2   2   1 -0.21091963933771D+01  0.21542589545869D+00
   2   2   2   1 -0.25646763330243D+01 -0.18789498510200D+01
   3   2   2   1 -0.20476754088127D+01 -0.77276529622381D-07
   1   1   3   1  0.23261193511762D+01  0.14299787324960D-16
   2   1   3   1  0.23261193511762D+01  0.63592696822596D-16
   3   1   3   1  0.46522387023525D+01  0.15634175469737D-17
   1   2   3   1 -0.20476754088127D+01 -0.77276528711506D-07
   2   2   3   1 -0.20476754088127D+01 -0.77276529622381D-07
   3   2   3   1 -0.40953508176254D+01 -0.15455305882309D-06
   1   1   1   2 -0.25646643366993D+01 -0.18789571817198D+01
   2   1   1   2 -0.21091942054203D+01 -0.21542569644366D+00
   3   1   1   2 -0.20476739922145D+01 -0.12121421460268D-06
   1   2   1   2  0.58037722511005D+01  0.35538359879273D-06
   2   2   1   2  0.26412979289223D+01  0.34415245492334D+00
   3   2   1   2  0.25458180324354D+01  0.39721631458223D-16
   1   1   2   2 -0.21091913124276D+01  0.21542805148883D+00
   2   1   2   2 -0.25646645421943D+01  0.18789566547931D+01
   3   1   2   2 -0.20476739922145D+01 -0.12121421369180D-06
   1   2   2   2  0.26412968941418D+01 -0.34415209953974D+00
   2   2   2   2  0.58037798624989D+01 -0.71076719736092D-06
   3   2   2   2  0.25458180324354D+01  0.17664638006277D-15
   1   1   3   2 -0.20476739922145D+01 -0.12121421460268D-06
   2   1   3   2 -0.20476739922145D+01 -0.12121421369180D-06
   3   1   3   2 -0.40953479844291D+01 -0.24242842780528D-06
   1   2   3   2  0.25458180324354D+01  0.39721631458223D-16
   2   2   3   2  0.25458180324354D+01  0.17664638006277D-15
   3   2   3   2  0.50916360648708D+01  0.43428265193713D-17
  
 2nd derivatives (non-stat.)  - # elements :      36
 qpt  5.00000000E-01  5.00000000E-01  0.00000000E+00   1.0
   1   1   1   1  0.61836650332322D+01  0.00000000000000D+00
   2   1   1   1  0.40599060372202D+01  0.00000000000000D+00
   3   1   1   1  0.21237589960120D+01  0.00000000000000D+00
   1   2   1   1  0.59417530974347D-14 -0.71578184571321D-15
   2   2   1   1 -0.19208652516601D+01  0.68607399778253D-05
   3   2   1   1 -0.19208652516601D+01  0.68607399777972D-05
   1   1   2   1  0.40599060372202D+01  0.00000000000000D+00
   2   1   2   1  0.61836650332323D+01  0.00000000000000D+00
   3   1   2   1  0.21237589960120D+01  0.00000000000000D+00
   1   2   2   1 -0.19208652516602D+01  0.68607399778253D-05
   2   2   2   1  0.74103763493116D-14 -0.38044803205067D-15
   3   2   2   1 -0.19208652516601D+01  0.68607399777974D-05
   1   1   3   1  0.21237589960120D+01  0.00000000000000D+00
   2   1   3   1  0.21237589960120D+01  0.00000000000000D+00
   3   1   3   1  0.42475179920241D+01  0.00000000000000D+00
   1   2   3   1 -0.19208652516601D+01  0.68607399777972D-05
   2   2   3   1 -0.19208652516601D+01  0.68607399777974D-05
   3   2   3   1 -0.38417305033203D+01  0.13721479955595D-04
   1   1   1   2  0.59417530974347D-14  0.71578083986159D-15
   2   1   1   2 -0.19208762369518D+01  0.18623049175697D-05
   3   1   1   2 -0.19208762369518D+01  0.18623049175979D-05
   1   2   1   2  0.59881011789743D+01  0.00000000000000D+00
   2   2   1   2  0.33389787634780D+01  0.00000000000000D+00
   3   2   1   2  0.26491224154963D+01  0.00000000000000D+00
   1   1   2   2 -0.19208762369518D+01  0.18623049175697D-05
   2   1   2   2  0.74240023565758D-14  0.38044803205067D-15
   3   1   2   2 -0.19208762369518D+01  0.18623049175977D-05
   1   2   2   2  0.33389787634780D+01  0.00000000000000D+00
   2   2   2   2  0.59881011789742D+01  0.00000000000000D+00
   3   2   2   2  0.26491224154963D+01  0.00000000000000D+00
   1   1   3   2 -0.19208762369518D+01  0.18623049175979D-05
   2   1   3   2 -0.19208762369518D+01  0.18623049175977D-05
   3   1   3   2 -0.38417524739036D+01  0.37246098351952D-05
   1   2   3   2  0.26491224154963D+01  0.00000000000000D+00
   2   2   3   2  0.26491224154963D+01  0.00000000000000D+00
   3   2   3   2  0.52982448309926D+01  0.00000000000000D+00
  
 2nd derivatives (non-stat.)  - # elements :      36
 qpt -2.50000000E-01  5.00000000E-01  2.50000000E-01   1.0
   1   1   1   1  0.48496707490104D+01 -0.81973723854562D-05
   2   1   1   1  0.27335395600093D+01  0.23411617065815D+00
   3   1   1   1  0.21161309347016D+01  0.23411343820069D+00
   1   2   1   1 -0.18114146803077D+01  0.18114075615762D+01
   2   2   1   1 -0.19223386208452D+01 -0.65735392497757D-05
   3   2   1   1 -0.18114081067684D+01 -0.11093105926902D+00
   1   1   2   1  0.27335398143088D+01 -0.23412163557307D+00
   2   1   2   1  0.54670793743181D+01 -0.54649149236151D-05
   3   1   2   1  0.27335395600093D+01  0.23411617065815D+00
   1   2   2   1 -0.17004836210387D+01 -0.54519220887905D-06
   2   2   2   1  0.35734120705703D-14  0.75829847376849D-16
   3   2   2   1 -0.17004836210386D+01 -0.54519220989095D-06
   1   1   3   1  0.21161311890011D+01 -0.23412436803054D+00
   2   1   3   1  0.27335398143088D+01 -0.23412163557307D+00
   3   1   3   1  0.48496707490104D+01 -0.81973723853390D-05
   1   2   3   1 -0.18114141351155D+01  0.11092394053756D+00
   2   2   3   1 -0.19223386208452D+01 -0.65735392505759D-05
   3   2   3   1 -0.18114075615762D+01 -0.18114146803077D+01
   1   1   1   2 -0.18114322910945D+01 -0.18114267201824D+01
   2   1   1   2 -0.17005033788880D+01  0.41470313285313D-06
   3   1   1   2 -0.18114318763913D+01 -0.11092334129442D+00
   1   2   1   2  0.58469150408367D+01 -0.13042775276829D-04
   2   2   1   2  0.30511227110333D+01  0.30318258352671D+00
   3   2   1   2  0.27957976749173D+01  0.30317823593496D+00
   1   1   2   2 -0.19223556323889D+01  0.51562089084529D-05
   2   1   2   2  0.35734120705703D-14 -0.75829635618612D-16
   3   1   2   2 -0.19223556323889D+01  0.51562089099089D-05
   1   2   2   2  0.30511173659194D+01 -0.30319127871023D+00
   2   2   2   2  0.61022400769527D+01 -0.86951835178239D-05
   3   2   2   2  0.30511227110333D+01  0.30318258352672D+00
   1   1   3   2 -0.18114271348855D+01  0.11092891220647D+00
   2   1   3   2 -0.17005033788880D+01  0.41470313365339D-06
   3   1   3   2 -0.18114267201824D+01  0.18114322910945D+01
   1   2   3   2  0.27957923298034D+01 -0.30319562630199D+00
   2   2   3   2  0.30511173659194D+01 -0.30319127871023D+00
   3   2   3   2  0.58469150408367D+01 -0.13042775276504D-04

 List of bloks and their characteristics 
  
 2nd derivatives (non-stat.)  - # elements :      81
 qpt  0.00000000E+00  0.00000000E+00  0.00000000E+00   1.0
  
 2nd derivatives (non-stat.)  - # elements :      36
 qpt  2.50000000E-01  0.00000000E+00  0.00000000E+00   1.0
  
 2nd derivatives (non-stat.)  - # elements :      36
 qpt  5.00000000E-01  0.00000000E+00  0.00000000E+00   1.0
  
 2nd derivatives (non-stat.)  - # elements :      36
 qpt  2.50000000E-01  2.50000000E-01  0.00000000E+00   1.0
  
 2nd derivatives (non-stat.)  - # elements :      36
 qpt  5.00000000E-01  2.50000000E-01  0.00000000E+00   1.0
  
 2nd derivatives (non-stat.)  - # elements :      36
 qpt -2.50000000E-01  2.50000000E-01  0.00000000E+00   1.0
  
 2nd derivatives (non-stat.)  - # elements :      36
 qpt  5.00000000E-01  5.00000000E-01  0.00000000E+00   1.0
  
 2nd derivatives (non-stat.)  - # elements :      36
 qpt -2.50000000E-01  5.00000000E-01  2.50000000E-01   1.0
