
.Version 7.9.3 of ABINIT 
.(MPI version, prepared for a x86_64_linux_gnu4.7 computer) 

.Copyright (C) 1998-2014 ABINIT group . 
 ABINIT comes with ABSOLUTELY NO WARRANTY.
 It is free software, and you are welcome to redistribute it
 under certain conditions (GNU General Public License,
 see ~abinit/COPYING or http://www.gnu.org/copyleft/gpl.txt).

 ABINIT is a project of the Universite Catholique de Louvain,
 Corning Inc. and other collaborators, see ~abinit/doc/developers/contributors.txt .
 Please read ~abinit/doc/users/acknowledgments.html for suggested
 acknowledgments of the ABINIT effort.
 For more information, see http://www.abinit.org .

.Starting date : Sat 30 Aug 2014.
- ( at 22h19 )
  
- input  file    -> t21.in
- output file    -> t21.out
- root for input  files -> t21i
- root for output files -> t21o


 DATASET    1 : space group P1 (#  1); Bravais aP (primitive triclinic)
================================================================================
 Values of the parameters that define the memory need for DATASET  1.
   intxc =         1  ionmov =         6    iscf =         3 xclevel =         1
  lmnmax =         2   lnmax =         2   mband =         5  mffmem =         1
P  mgfft =        27   mkmem =         1 mpssoang=         3     mpw =       203
  mqgrid =      3001   natom =         2    nfft =      8748    nkpt =         1
  nloalg =         4  nspden =         2 nspinor =         1  nsppol =         2
    nsym =         1  n1xccc =      2501  ntypat =         1  occopt =         2
================================================================================
P This job should need less than                       2.717 Mbytes of memory.
  Rough estimation (10% accuracy) of disk space for files :
_ WF disk file :      0.027 Mbytes ; DEN or POT disk file :      0.135 Mbytes.
================================================================================


 DATASET    2 : space group P1 (#  1); Bravais aP (primitive triclinic)
================================================================================
 Values of the parameters that define the memory need for DATASET  2.
   intxc =         1  ionmov =         7    iscf =         3 xclevel =         1
  lmnmax =         2   lnmax =         2   mband =         5  mffmem =         1
P  mgfft =        27   mkmem =         1 mpssoang=         3     mpw =       203
  mqgrid =      3001   natom =         2    nfft =      8748    nkpt =         1
  nloalg =         4  nspden =         2 nspinor =         1  nsppol =         2
    nsym =         1  n1xccc =      2501  ntypat =         1  occopt =         2
================================================================================
P This job should need less than                       2.717 Mbytes of memory.
  Rough estimation (10% accuracy) of disk space for files :
_ WF disk file :      0.027 Mbytes ; DEN or POT disk file :      0.135 Mbytes.
================================================================================

--------------------------------------------------------------------------------
------------- Echo of variables that govern the present computation ------------
--------------------------------------------------------------------------------
-
- outvars: echo of selected default values                                      
-   accesswff0 =  0 , fftalg0 =112 , wfoptalg0 =  0
-
- outvars: echo of global parameters not present in the input file              
-  max_nthreads =    0
-
 -outvars: echo values of preprocessed input variables --------
            acell      1.2000000000E+01  8.0000000000E+00  8.0000000000E+00 Bohr
              amu      2.80000000E+01
           diemac      1.00000000E+00
           diemix      4.00000000E-01
            dtion1     5.00000000E+01
            dtion2     3.00000000E+02
             ecut      5.00000000E+00 Hartree
           enunit           2
-          fftalg         112
            intxc           1
           ionmov1          6
           ionmov2          7
             iscf           3
           istwfk        2
           jdtset        1    2
           kptopt           0
P           mkmem           1
            natom           2
            nband           5       3
           nctime           4
           ndtset           2
            ngfft          27      18      18
             nkpt           1
            nline           3
           nspden           2
           nsppol           2
            nstep          20
             nsym           1
            ntime          10
           ntypat           1
              occ      1.000000  1.000000  1.000000  1.000000  1.000000
                       1.000000  1.000000  1.000000
           occopt           2
        optforces           1
          spgroup           1
           toldff      1.00000000E-05
            typat      1  1
           xangst     -1.1229140366E+00  0.0000000000E+00  0.0000000000E+00
                       1.1229140366E+00  0.0000000000E+00  0.0000000000E+00
            xcart     -2.1220000000E+00  0.0000000000E+00  0.0000000000E+00
                       2.1220000000E+00  0.0000000000E+00  0.0000000000E+00
             xred     -1.7683333333E-01  0.0000000000E+00  0.0000000000E+00
                       1.7683333333E-01  0.0000000000E+00  0.0000000000E+00
            znucl       14.00000

================================================================================

 chkinp: Checking input parameters for consistency, jdtset=   1.

 chkinp: Checking input parameters for consistency, jdtset=   2.

================================================================================
== DATASET  1 ==================================================================
-   nproc =    1

 Exchange-correlation functional for the present dataset will be:
  LDA: new Teter (4/93) with spin-polarized option - ixc=1
 Citation for XC functional:
  S. Goedecker, M. Teter, J. Huetter, PRB 54, 1703 (1996)

 Real(R)+Recip(G) space primitive vectors, cartesian coordinates (Bohr,Bohr^-1):
 R(1)= 12.0000000  0.0000000  0.0000000  G(1)=  0.0833333  0.0000000  0.0000000
 R(2)=  0.0000000  8.0000000  0.0000000  G(2)=  0.0000000  0.1250000  0.0000000
 R(3)=  0.0000000  0.0000000  8.0000000  G(3)=  0.0000000  0.0000000  0.1250000
 Unit cell volume ucvol=  7.6800000E+02 bohr^3
 Angles (23,13,12)=  9.00000000E+01  9.00000000E+01  9.00000000E+01 degrees

 getcut: wavevector=  0.0000  0.0000  0.0000  ngfft=  27  18  18
         ecut(hartree)=      5.000   => boxcut(ratio)=   2.15249

--- Pseudopotential description ------------------------------------------------
- pspini: atom type   1  psp file is /home/gonze/ABINIT/ABINITv7.9.3/trunk/7.9.3-private/tests/Psps_for_tests/14si.pspnc
- pspatm: opening atomic psp file    /home/gonze/ABINIT/ABINITv7.9.3/trunk/7.9.3-private/tests/Psps_for_tests/14si.pspnc
-  Troullier-Martins psp for element  Si        Thu Oct 27 17:31:21 EDT 1994
- 14.00000   4.00000    940714                znucl, zion, pspdat
    1    1    2    2      2001   0.00000      pspcod,pspxc,lmax,lloc,mmax,r2well
    0   5.907  14.692    1   2.0872718        l,e99.0,e99.9,nproj,rcpsp
   0.00000000   0.00000000   0.00000000   0.00000000     rms, ekb1, ekb2, epsatm
    1   2.617   4.181    1   2.0872718        l,e99.0,e99.9,nproj,rcpsp
   0.00000000   0.00000000   0.00000000   0.00000000     rms, ekb1, ekb2, epsatm
    2   0.000   0.000    0   2.0872718        l,e99.0,e99.9,nproj,rcpsp
   0.00000000   0.00000000   0.00000000   0.00000000     rms, ekb1, ekb2, epsatm
    1.80626423934776    0.22824404341771    1.17378968127746   rchrg,fchrg,qchrg
 pspatm: epsatm=    1.43386982
         --- l  ekb(1:nproj) -->
             0    3.287949
             1    1.849886
 pspatm: atomic psp has been read  and splines computed

   2.29419171E+01                                ecore*ucvol(ha*bohr**3)
--------------------------------------------------------------------------------

P newkpt: treating      5 bands with npw=     203 for ikpt=   1 by node    0
P newkpt: treating      3 bands with npw=     203 for ikpt=   1 by node    0

_setup2: Arith. and geom. avg. npw (full set) are     405.000     405.000

================================================================================

=== [ionmov= 6] Verlet algorithm for molecular dynamics                     
================================================================================

--- Iteration: ( 1/10) Internal Cycle: (1/1)
--------------------------------------------------------------------------------

---SELF-CONSISTENT-FIELD CONVERGENCE--------------------------------------------

     iter   Etot(hartree)      deltaE(h)  residm     vres2    diffor    maxfor
 ETOT  1  -8.6206278506853    -8.621E+00 1.624E-02 1.020E+01 2.422E-02 2.422E-02
 ETOT  2  -8.6534339039235    -3.281E-02 1.049E-05 4.678E+00 1.809E-02 6.136E-03
 ETOT  3  -8.6560164403786    -2.583E-03 6.799E-05 8.786E-01 8.439E-03 1.457E-02
 ETOT  4  -8.6564335713551    -4.171E-04 7.592E-06 1.485E-01 3.612E-03 1.819E-02
 ETOT  5  -8.6564961891839    -6.262E-05 1.191E-06 1.399E-02 1.381E-03 1.957E-02
 ETOT  6  -8.6565015657481    -5.377E-06 5.822E-08 3.170E-03 3.666E-05 1.961E-02
 ETOT  7  -8.6565029951446    -1.429E-06 3.100E-08 2.738E-04 5.792E-05 1.955E-02
 ETOT  8  -8.6565031620785    -1.669E-07 2.042E-09 5.182E-05 6.731E-05 1.948E-02
 ETOT  9  -8.6565031894453    -2.737E-08 3.006E-10 1.469E-05 3.116E-05 1.945E-02
 ETOT 10  -8.6565031950880    -5.643E-09 8.568E-11 5.030E-06 1.400E-05 1.943E-02
 ETOT 11  -8.6565031964010    -1.313E-09 3.080E-11 2.150E-06 2.553E-06 1.943E-02
 ETOT 12  -8.6565031970040    -6.030E-10 1.169E-11 8.246E-07 1.194E-06 1.943E-02

 At SCF step   12, forces are converged : 
  for the second time, max diff in force=  1.194E-06 < toldff=  1.000E-05

 Cartesian components of stress tensor (hartree/bohr^3)
  sigma(1 1)=  1.65287637E-04  sigma(3 2)= -9.94792191E-11
  sigma(2 2)=  1.66576066E-04  sigma(3 1)= -1.00042176E-09
  sigma(3 3)=  1.66576220E-04  sigma(2 1)= -3.05607461E-10


---OUTPUT-----------------------------------------------------------------------

 Cartesian coordinates (xcart) [bohr]
 -2.12200000000000E+00  0.00000000000000E+00  0.00000000000000E+00
  2.12200000000000E+00  0.00000000000000E+00  0.00000000000000E+00
 Reduced coordinates (xred)
 -1.76833333333333E-01  0.00000000000000E+00  0.00000000000000E+00
  1.76833333333333E-01  0.00000000000000E+00  0.00000000000000E+00
 Cartesian forces (fcart) [Ha/bohr]; max,rms= 1.94310E-02 1.12185E-02 (free atoms)
 -1.94309707142488E-02 -7.66471584678152E-08 -2.42970520622959E-07
  1.94309707142488E-02  7.66471584678152E-08  2.42970520622959E-07
 Reduced forces (fred)
  2.33169392535780E-01  3.37912494979667E-07  1.92109088883382E-06
 -2.33173904606191E-01 -8.88442040505377E-07 -1.96643744113352E-06
 Cartesian velocities (vel) [bohr*Ha/hbar]; max,rms= 0.00000E+00 0.00000E+00 (free atoms)
  0.00000000000000E+00  0.00000000000000E+00  0.00000000000000E+00
  0.00000000000000E+00  0.00000000000000E+00  0.00000000000000E+00
 Kinetic energy of ions (ekin) [Ha]=  0.00000000000000E+00
 Total energy (etotal) [Ha]= -8.65650319700397E+00

--- Iteration: ( 2/10) Internal Cycle: (1/1)
--------------------------------------------------------------------------------

---SELF-CONSISTENT-FIELD CONVERGENCE--------------------------------------------

     iter   Etot(hartree)      deltaE(h)  residm     vres2    diffor    maxfor
 ETOT  1  -8.6565216336434    -8.657E+00 3.296E-12 6.855E-06 9.776E-05 1.933E-02
 ETOT  2  -8.6565216372074    -3.564E-09 1.798E-13 1.813E-06 7.635E-06 1.933E-02
 ETOT  3  -8.6565216377504    -5.430E-10 1.392E-11 5.943E-07 2.257E-06 1.932E-02

 At SCF step    3, forces are converged : 
  for the second time, max diff in force=  2.257E-06 < toldff=  1.000E-05

 Cartesian components of stress tensor (hartree/bohr^3)
  sigma(1 1)=  1.65955220E-04  sigma(3 2)= -2.00705793E-12
  sigma(2 2)=  1.66600214E-04  sigma(3 1)= -2.18011616E-10
  sigma(3 3)=  1.66600204E-04  sigma(2 1)= -3.71920916E-11


---OUTPUT-----------------------------------------------------------------------

 Cartesian coordinates (xcart) [bohr]
 -2.12247586556212E+00 -1.45577214314522E-09 -5.91568592699169E-09
  2.12247587016635E+00  2.29843243428414E-09  5.98509498827382E-09
 Reduced coordinates (xred)
 -1.76872988796843E-01 -1.81971517893152E-10 -7.39460740873962E-10
  1.76872989180529E-01  2.87304054285517E-10  7.48136873534227E-10
 Cartesian forces (fcart) [Ha/bohr]; max,rms= 1.93233E-02 1.11563E-02 (free atoms)
 -1.93233227315090E-02 -1.01875647576661E-08 -3.94226413853265E-08
  1.93233227315090E-02  1.01875647576661E-08  3.94226413853265E-08
 Reduced forces (fred)
  2.31882290773054E-01  5.14047954658792E-08  2.92053468612982E-07
 -2.31877454783161E-01 -1.11596240656778E-07 -3.38708793552242E-07
 Cartesian velocities (vel) [bohr*Ha/hbar]; max,rms= 0.00000E+00 0.00000E+00 (free atoms)
  0.00000000000000E+00  0.00000000000000E+00  0.00000000000000E+00
  0.00000000000000E+00  0.00000000000000E+00  0.00000000000000E+00
 Kinetic energy of ions (ekin) [Ha]=  0.00000000000000E+00
 Total energy (etotal) [Ha]= -8.65652163775043E+00

 Difference of energy with previous step (new-old):
           Absolute (Ha)=-1.84407E-05
           Relative     =-2.13027E-06

--- Iteration: ( 3/10) Internal Cycle: (1/1)
--------------------------------------------------------------------------------

---SELF-CONSISTENT-FIELD CONVERGENCE--------------------------------------------

     iter   Etot(hartree)      deltaE(h)  residm     vres2    diffor    maxfor
 ETOT  1  -8.6565761186483    -8.657E+00 2.647E-11 4.927E-05 2.864E-04 1.904E-02
 ETOT  2  -8.6565761469862    -2.834E-08 9.941E-13 1.082E-05 2.281E-05 1.901E-02
 ETOT  3  -8.6565761499943    -3.008E-09 1.101E-10 3.077E-06 8.358E-06 1.901E-02
 ETOT  4  -8.6565761505031    -5.088E-10 2.955E-11 7.881E-07 1.635E-06 1.900E-02

 At SCF step    4, forces are converged : 
  for the second time, max diff in force=  1.635E-06 < toldff=  1.000E-05

 Cartesian components of stress tensor (hartree/bohr^3)
  sigma(1 1)=  1.68016907E-04  sigma(3 2)= -5.91390246E-14
  sigma(2 2)=  1.66605597E-04  sigma(3 1)= -1.23488182E-11
  sigma(3 3)=  1.66605597E-04  sigma(2 1)= -2.99331573E-12


---OUTPUT-----------------------------------------------------------------------

 Cartesian coordinates (xcart) [bohr]
 -2.12389819915170E+00 -3.31840357695322E-09 -1.36908942748502E-08
  2.12389819849063E+00  5.18798653403312E-09  1.39725370287754E-08
 Reduced coordinates (xred)
 -1.76991516595975E-01 -4.14800447119152E-10 -1.71136178435628E-09
  1.76991516540886E-01  6.48498316754140E-10  1.74656712859692E-09
 Cartesian forces (fcart) [Ha/bohr]; max,rms= 1.90041E-02 1.09720E-02 (free atoms)
 -1.90041358217800E-02 -7.33468021810103E-10 -2.68538301969215E-09
  1.90041358217800E-02  7.33468021810103E-10  2.68538301969215E-09
 Reduced forces (fred)
  2.28053500407000E-01  2.09866067014134E-09  2.09435776795814E-08
 -2.28045759315720E-01 -9.63682767882030E-09 -2.20225506354930E-08
 Cartesian velocities (vel) [bohr*Ha/hbar]; max,rms= 1.89820E-05 1.09593E-05 (free atoms)
 -1.89819915169842E-05 -3.31840357695322E-11 -1.36908942748502E-10
  1.89819849062767E-05  5.18798653403312E-11  1.39725370287754E-10
 Kinetic energy of ions (ekin) [Ha]=  1.83908385345099E-05
 Total energy (etotal) [Ha]= -8.65657615050309E+00

 Difference of energy with previous step (new-old):
           Absolute (Ha)=-5.45128E-05
           Relative     =-6.29728E-06

--- Iteration: ( 4/10) Internal Cycle: (1/1)
--------------------------------------------------------------------------------

---SELF-CONSISTENT-FIELD CONVERGENCE--------------------------------------------

     iter   Etot(hartree)      deltaE(h)  residm     vres2    diffor    maxfor
 ETOT  1  -8.6566642732865    -8.657E+00 7.051E-11 1.368E-04 4.669E-04 1.854E-02
 ETOT  2  -8.6566643520414    -7.875E-08 3.363E-12 3.052E-05 3.778E-05 1.850E-02
 ETOT  3  -8.6566643604833    -8.442E-09 3.047E-10 9.109E-06 1.390E-05 1.849E-02
 ETOT  4  -8.6566643620001    -1.517E-09 7.967E-11 2.695E-06 2.352E-06 1.848E-02
 ETOT  5  -8.6566643626221    -6.220E-10 2.643E-11 1.017E-06 4.586E-07 1.848E-02

 At SCF step    5, forces are converged : 
  for the second time, max diff in force=  4.586E-07 < toldff=  1.000E-05

 Cartesian components of stress tensor (hartree/bohr^3)
  sigma(1 1)=  1.71365171E-04  sigma(3 2)=  0.00000000E+00
  sigma(2 2)=  1.66634119E-04  sigma(3 1)=  1.12555797E-12
  sigma(3 3)=  1.66634119E-04  sigma(2 1)=  3.89169613E-13


---OUTPUT-----------------------------------------------------------------------

 Cartesian coordinates (xcart) [bohr]
 -2.12625136984691E+00 -5.20542234139681E-09 -2.15959821056650E-08
  2.12625134812215E+00  8.12500434263505E-09  2.20931615817347E-08
 Reduced coordinates (xred)
 -1.77187614153909E-01 -6.50677792674601E-10 -2.69949776320813E-09
  1.77187612343513E-01  1.01562554282938E-09  2.76164519771684E-09
 Cartesian forces (fcart) [Ha/bohr]; max,rms= 1.84827E-02 1.06710E-02 (free atoms)
 -1.84826992454143E-02  1.58592501784471E-10  4.88878829456815E-10
  1.84826992454143E-02 -1.58592501784471E-10 -4.88878829456815E-10
 Reduced forces (fred)
  2.21788824887143E-01 -1.34938176814837E-09 -3.77852668868126E-09
 -2.21795957002800E-01  1.18809826040316E-09  4.04353458262777E-09
 Cartesian velocities (vel) [bohr*Ha/hbar]; max,rms= 3.77550E-05 2.17978E-05 (free atoms)
 -3.77550428478557E-05 -3.74965019825159E-11 -1.56802961786733E-10
  3.77547795580524E-05  5.82657190835091E-11  1.61080665934609E-10
 Kinetic energy of ions (ekin) [Ha]=  7.27553675546040E-05
 Total energy (etotal) [Ha]= -8.65666436262213E+00

 Difference of energy with previous step (new-old):
           Absolute (Ha)=-8.82121E-05
           Relative     =-1.01901E-05

--- Iteration: ( 5/10) Internal Cycle: (1/1)
--------------------------------------------------------------------------------

---SELF-CONSISTENT-FIELD CONVERGENCE--------------------------------------------

     iter   Etot(hartree)      deltaE(h)  residm     vres2    diffor    maxfor
 ETOT  1  -8.6567823205401    -8.657E+00 1.313E-10 2.556E-04 6.389E-04 1.784E-02
 ETOT  2  -8.6567824682879    -1.477E-07 4.056E-12 5.638E-05 5.153E-05 1.779E-02
 ETOT  3  -8.6567824843102    -1.602E-08 5.807E-10 1.505E-05 1.896E-05 1.777E-02
 ETOT  4  -8.6567824868896    -2.579E-09 1.623E-10 3.092E-06 4.322E-06 1.777E-02
 ETOT  5  -8.6567824875829    -6.933E-10 3.993E-11 1.286E-06 4.849E-07 1.777E-02

 At SCF step    5, forces are converged : 
  for the second time, max diff in force=  4.849E-07 < toldff=  1.000E-05

 Cartesian components of stress tensor (hartree/bohr^3)
  sigma(1 1)=  1.75982533E-04  sigma(3 2)=  0.00000000E+00
  sigma(2 2)=  1.66667147E-04  sigma(3 1)=  2.87426274E-12
  sigma(3 3)=  1.66667147E-04  sigma(2 1)=  8.75634142E-13


---OUTPUT-----------------------------------------------------------------------

 Cartesian coordinates (xcart) [bohr]
 -2.12950982232524E+00 -7.08442632341375E-09 -2.94775301113557E-08
  2.12950979409236E+00  1.10545011014672E-08  3.01894350483728E-08
 Reduced coordinates (xred)
 -1.77459151860437E-01 -8.85553290426719E-10 -3.68469126391947E-09
  1.77459149507697E-01  1.38181263768340E-09  3.77367938104661E-09
 Cartesian forces (fcart) [Ha/bohr]; max,rms= 1.77694E-02 1.02592E-02 (free atoms)
 -1.77694476067946E-02  2.78838489783209E-10  9.15915474790100E-10
  1.77694476067946E-02 -2.78838489783209E-10 -9.15915474790100E-10
 Reduced forces (fred)
  2.13237715509525E-01 -2.23354723229571E-09 -7.30699318355896E-09
 -2.13229027053545E-01  2.22786860423562E-09  7.34765441308264E-09
 Cartesian velocities (vel) [bohr*Ha/hbar]; max,rms= 5.61162E-05 3.23986E-05 (free atoms)
 -5.61162317354036E-05 -3.76602274646054E-11 -1.57866358365055E-10
  5.61159560173374E-05  5.86651456743405E-11  1.62168980195975E-10
 Kinetic energy of ions (ekin) [Ha]=  1.60728539679709E-04
 Total energy (etotal) [Ha]= -8.65678248758287E+00

 Difference of energy with previous step (new-old):
           Absolute (Ha)=-1.18125E-04
           Relative     =-1.36455E-05

--- Iteration: ( 6/10) Internal Cycle: (1/1)
--------------------------------------------------------------------------------

---SELF-CONSISTENT-FIELD CONVERGENCE--------------------------------------------

     iter   Etot(hartree)      deltaE(h)  residm     vres2    diffor    maxfor
 ETOT  1  -8.6569252885738    -8.657E+00 2.048E-10 4.066E-04 7.961E-04 1.697E-02
 ETOT  2  -8.6569255220543    -2.335E-07 6.988E-12 9.065E-05 6.377E-05 1.691E-02
 ETOT  3  -8.6569255475855    -2.553E-08 9.260E-10 2.452E-05 2.362E-05 1.689E-02
 ETOT  4  -8.6569255516496    -4.064E-09 2.543E-10 5.638E-06 4.846E-06 1.688E-02
 ETOT  5  -8.6569255529445    -1.295E-09 6.971E-11 2.312E-06 3.969E-07 1.688E-02

 At SCF step    5, forces are converged : 
  for the second time, max diff in force=  3.969E-07 < toldff=  1.000E-05

 Cartesian components of stress tensor (hartree/bohr^3)
  sigma(1 1)=  1.81745383E-04  sigma(3 2)=  0.00000000E+00
  sigma(2 2)=  1.66716640E-04  sigma(3 1)=  3.77867637E-12
  sigma(3 3)=  1.66716640E-04  sigma(2 1)=  1.14636098E-12


---OUTPUT-----------------------------------------------------------------------

 Cartesian coordinates (xcart) [bohr]
 -2.13363863741615E+00 -8.94976400695330E-09 -3.73142784949052E-08
  2.13363858494333E+00  1.39703489456459E-08  3.82407844177938E-08
 Reduced coordinates (xred)
 -1.77803219784679E-01 -1.11872050086916E-09 -4.66428481186315E-09
  1.77803215411944E-01  1.74629361820574E-09  4.78009805222422E-09
 Cartesian forces (fcart) [Ha/bohr]; max,rms= 1.68816E-02 9.74657E-03 (free atoms)
 -1.68815553634917E-02  3.59958349987488E-10  1.18658159125353E-09
  1.68815553634917E-02 -3.59958349987488E-10 -1.18658159125353E-09
 Reduced forces (fred)
  2.02572972964486E-01 -2.87842259421786E-09 -9.49151122881612E-09
 -2.02584355759315E-01  2.88091100558194E-09  9.49379423124043E-09
 Cartesian velocities (vel) [bohr*Ha/hbar]; max,rms= 7.38727E-05 4.26503E-05 (free atoms)
 -7.38726756923969E-05 -3.74434166555649E-11 -1.57182963892402E-10
  7.38723682117870E-05  5.84534460301090E-11  1.61476228360591E-10
 Kinetic energy of ions (ekin) [Ha]=  2.78537699433165E-04
 Total energy (etotal) [Ha]= -8.65692555294453E+00

 Difference of energy with previous step (new-old):
           Absolute (Ha)=-1.43065E-04
           Relative     =-1.65263E-05

--- Iteration: ( 7/10) Internal Cycle: (1/1)
--------------------------------------------------------------------------------

---SELF-CONSISTENT-FIELD CONVERGENCE--------------------------------------------

     iter   Etot(hartree)      deltaE(h)  residm     vres2    diffor    maxfor
 ETOT  1  -8.6570873216869    -8.657E+00 2.861E-10 5.795E-04 9.372E-04 1.594E-02
 ETOT  2  -8.6570876506098    -3.289E-07 1.154E-11 1.307E-04 7.401E-05 1.587E-02
 ETOT  3  -8.6570876866825    -3.607E-08 1.318E-09 3.655E-05 2.754E-05 1.584E-02
 ETOT  4  -8.6570876924517    -5.769E-09 3.536E-10 9.909E-06 4.635E-06 1.584E-02
 ETOT  5  -8.6570876948040    -2.352E-09 1.117E-10 3.917E-06 2.742E-08 1.584E-02

 At SCF step    5, forces are converged : 
  for the second time, max diff in force=  2.742E-08 < toldff=  1.000E-05

 Cartesian components of stress tensor (hartree/bohr^3)
  sigma(1 1)=  1.88560137E-04  sigma(3 2)=  0.00000000E+00
  sigma(2 2)=  1.66779207E-04  sigma(3 1)=  4.67681755E-12
  sigma(3 3)=  1.66779206E-04  sigma(2 1)=  1.41675161E-12


---OUTPUT-----------------------------------------------------------------------

 Cartesian coordinates (xcart) [bohr]
 -2.13859430536643E+00 -1.07974746137095E-08 -4.50929111923535E-08
  2.13859425188422E+00  1.68685620953378E-08  4.62340111122226E-08
 Reduced coordinates (xred)
 -1.78216192113869E-01 -1.34968432671368E-09 -5.63661389904419E-09
  1.78216187657019E-01  2.10857026191722E-09  5.77925138902782E-09
 Cartesian forces (fcart) [Ha/bohr]; max,rms= 1.58382E-02 9.14416E-03 (free atoms)
 -1.58381552131307E-02  4.41554824550137E-10  1.45764649919337E-09
  1.58381552131307E-02 -4.41554824550137E-10 -1.45764649919337E-09
 Reduced forces (fred)
  1.90064996842017E-01 -3.53048928686147E-09 -1.16601729052794E-08
 -1.90050728273119E-01  3.53438790594073E-09  1.16621710818146E-08
 Cartesian velocities (vel) [bohr*Ha/hbar]; max,rms= 9.08448E-05 5.24492E-05 (free atoms)
 -9.08448304118714E-05 -3.71304829029571E-11 -1.56153810809978E-10
  9.08445779186096E-05  5.81406099387057E-11  1.60445760638497E-10
 Kinetic energy of ions (ekin) [Ha]=  4.21228126718997E-04
 Total energy (etotal) [Ha]= -8.65708769480398E+00

 Difference of energy with previous step (new-old):
           Absolute (Ha)=-1.62142E-04
           Relative     =-1.87296E-05

--- Iteration: ( 8/10) Internal Cycle: (1/1)
--------------------------------------------------------------------------------

---SELF-CONSISTENT-FIELD CONVERGENCE--------------------------------------------

     iter   Etot(hartree)      deltaE(h)  residm     vres2    diffor    maxfor
 ETOT  1  -8.6572619997443    -8.657E+00 3.708E-10 7.645E-04 1.060E-03 1.478E-02
 ETOT  2  -8.6572624277774    -4.280E-07 1.732E-11 1.747E-04 8.223E-05 1.470E-02
 ETOT  3  -8.6572624748972    -4.712E-08 1.738E-09 5.048E-05 3.072E-05 1.467E-02
 ETOT  4  -8.6572624825849    -7.688E-09 4.599E-10 1.546E-05 4.090E-06 1.466E-02
 ETOT  5  -8.6572624863532    -3.768E-09 1.587E-10 5.896E-06 5.337E-07 1.466E-02

 At SCF step    5, forces are converged : 
  for the second time, max diff in force=  5.337E-07 < toldff=  1.000E-05

 Cartesian components of stress tensor (hartree/bohr^3)
  sigma(1 1)=  1.96311432E-04  sigma(3 2)=  0.00000000E+00
  sigma(2 2)=  1.66853643E-04  sigma(3 1)=  5.61651042E-12
  sigma(3 3)=  1.66853643E-04  sigma(2 1)=  1.69973741E-12


---OUTPUT-----------------------------------------------------------------------

 Cartesian coordinates (xcart) [bohr]
 -2.14432574624775E+00 -1.26235636783894E-08 -5.28001509139229E-08
  2.14432566263618E+00  1.97451417682206E-08  5.41558387138109E-08
 Reduced coordinates (xred)
 -1.78693812187313E-01 -1.57794545979867E-09 -6.60001886424036E-09
  1.78693805219682E-01  2.46814272102757E-09  6.76947983922636E-09
 Cartesian forces (fcart) [Ha/bohr]; max,rms= 1.46610E-02 8.46454E-03 (free atoms)
 -1.46610123937072E-02  5.25765514675426E-10  1.73733997786067E-09
  1.46610123937072E-02 -5.25765514675426E-10 -1.73733997786067E-09
 Reduced forces (fred)
  1.75923622834638E-01 -4.20439175086904E-09 -1.38991312613685E-08
 -1.75940674614334E-01  4.20785648393778E-09  1.38983083844022E-08
 Cartesian velocities (vel) [bohr*Ha/hbar]; max,rms= 1.06871E-04 6.17020E-05 (free atoms)
 -1.06871088316050E-04 -3.67379967143607E-11 -1.54858724190177E-10
  1.06870776928534E-04  5.77479282257464E-11  1.59150542960171E-10
 Kinetic energy of ions (ekin) [Ha]=  5.82958087023390E-04
 Total energy (etotal) [Ha]= -8.65726248635322E+00

 Difference of energy with previous step (new-old):
           Absolute (Ha)=-1.74792E-04
           Relative     =-2.01904E-05

--- Iteration: ( 9/10) Internal Cycle: (1/1)
--------------------------------------------------------------------------------

---SELF-CONSISTENT-FIELD CONVERGENCE--------------------------------------------

     iter   Etot(hartree)      deltaE(h)  residm     vres2    diffor    maxfor
 ETOT  1  -8.6574426792172    -8.657E+00 4.549E-10 9.511E-04 1.162E-03 1.350E-02
 ETOT  2  -8.6574432039423    -5.247E-07 2.355E-11 2.204E-04 8.837E-05 1.341E-02
 ETOT  3  -8.6574432620608    -5.812E-08 2.169E-09 6.531E-05 3.314E-05 1.338E-02
 ETOT  4  -8.6574432717492    -9.688E-09 5.707E-10 2.172E-05 3.383E-06 1.337E-02
 ETOT  5  -8.6574432771540    -5.405E-09 2.067E-10 8.040E-06 9.659E-07 1.337E-02

 At SCF step    5, forces are converged : 
  for the second time, max diff in force=  9.659E-07 < toldff=  1.000E-05

 Cartesian components of stress tensor (hartree/bohr^3)
  sigma(1 1)=  2.04871235E-04  sigma(3 2)=  0.00000000E+00
  sigma(2 2)=  1.66939383E-04  sigma(3 1)=  6.60108315E-12
  sigma(3 3)=  1.66939383E-04  sigma(2 1)=  1.99623658E-12


---OUTPUT-----------------------------------------------------------------------

 Cartesian coordinates (xcart) [bohr]
 -2.15077527123388E+00 -1.44239058678733E-08 -6.04222938573880E-08
  2.15077519229304E+00  2.25959639594177E-08  6.19925720563451E-08
 Reduced coordinates (xred)
 -1.79231272602824E-01 -1.80298823348416E-09 -7.55278673217350E-09
  1.79231266024420E-01  2.82449549492721E-09  7.74907150704313E-09
 Cartesian forces (fcart) [Ha/bohr]; max,rms= 1.33735E-02 7.72118E-03 (free atoms)
 -1.33734725707778E-02  6.12742981469608E-10  2.02622616711060E-09
  1.33734725707778E-02 -6.12742981469608E-10 -2.02622616711060E-09
 Reduced forces (fred)
  1.60491462946388E-01 -4.89949440205593E-09 -1.62082679385278E-08
 -1.60471878752279E-01  4.90439330145780E-09  1.62113507352418E-08
 Cartesian velocities (vel) [bohr*Ha/hbar]; max,rms= 1.21810E-04 7.03268E-05 (free atoms)
 -1.21809658674570E-04 -3.62643125416379E-11 -1.53293826650345E-10
  1.21809404088156E-04  5.72740186407995E-11  1.57585609441225E-10
 Kinetic energy of ions (ekin) [Ha]=  7.57322182024356E-04
 Total energy (etotal) [Ha]= -8.65744327715401E+00

 Difference of energy with previous step (new-old):
           Absolute (Ha)=-1.80791E-04
           Relative     =-2.08829E-05

--- Iteration: (10/10) Internal Cycle: (1/1)
--------------------------------------------------------------------------------

---SELF-CONSISTENT-FIELD CONVERGENCE--------------------------------------------

     iter   Etot(hartree)      deltaE(h)  residm     vres2    diffor    maxfor
 ETOT  1  -8.6576228166587    -8.658E+00 5.349E-10 1.130E-03 1.243E-03 1.213E-02
 ETOT  2  -8.6576234303910    -6.137E-07 2.996E-11 2.659E-04 9.245E-05 1.204E-02
 ETOT  3  -8.6576234989096    -6.852E-08 2.591E-09 8.053E-05 3.484E-05 1.200E-02
 ETOT  4  -8.6576235105991    -1.169E-08 6.818E-10 2.855E-05 2.497E-06 1.200E-02
 ETOT  5  -8.6576235178486    -7.250E-09 2.545E-10 1.028E-05 1.345E-06 1.200E-02

 At SCF step    5, forces are converged : 
  for the second time, max diff in force=  1.345E-06 < toldff=  1.000E-05

 Cartesian components of stress tensor (hartree/bohr^3)
  sigma(1 1)=  2.14103011E-04  sigma(3 2)=  0.00000000E+00
  sigma(2 2)=  1.67036596E-04  sigma(3 1)=  7.62939579E-12
  sigma(3 3)=  1.67036596E-04  sigma(2 1)=  2.30589408E-12


---OUTPUT-----------------------------------------------------------------------

 Cartesian coordinates (xcart) [bohr]
 -2.15787985355907E+00 -1.61942431906623E-08 -6.79451962545207E-08
  2.15787973932059E+00  2.54167662870573E-08  6.97300554152681E-08
 Reduced coordinates (xred)
 -1.79823321129922E-01 -2.02428039883279E-09 -8.49314953181509E-09
  1.79823311610049E-01  3.17709578588216E-09  8.71625692690852E-09
 Cartesian forces (fcart) [Ha/bohr]; max,rms= 1.19996E-02 6.92795E-03 (free atoms)
 -1.19995539341428E-02  7.02448900069831E-10  2.32418618219522E-09
  1.19995539341428E-02 -7.02448900069831E-10 -2.32418618219522E-09
 Reduced forces (fred)
  1.43983720554602E-01 -5.61780069956039E-09 -1.85944614549225E-08
 -1.44005573864824E-01  5.62138170155691E-09  1.85925174602011E-08
 Cartesian velocities (vel) [bohr*Ha/hbar]; max,rms= 1.35541E-04 7.82546E-05 (free atoms)
 -1.35541073113168E-04 -3.57067951227292E-11 -1.51450453405979E-10
  1.35540766844029E-04  5.67162451883670E-11  1.55742167014573E-10
 Kinetic energy of ions (ekin) [Ha]=  9.37689366006056E-04
 Total energy (etotal) [Ha]= -8.65762351784864E+00

 Difference of energy with previous step (new-old):
           Absolute (Ha)=-1.80241E-04
           Relative     =-2.08189E-05
================================================================================

 ----iterations are completed or convergence reached----

 Mean square residual over all n,k,spin=   1.3521E-10; max=  2.5446E-10
   0.0000  0.0000  0.0000    1  2.08633E-10 kpt; spin; max resid(k); each band:
  1.51E-10 2.09E-10 6.88E-11 4.93E-11 4.93E-11
   0.0000  0.0000  0.0000    2  2.54461E-10 kpt; spin; max resid(k); each band:
  2.11E-10 2.54E-10 8.94E-11
 reduced coordinates (array xred) for    2 atoms
      -0.179823321130     -0.000000002024     -0.000000008493
       0.179823311610      0.000000003177      0.000000008716
 rms dE/dt=  8.3135E-02; max dE/dt=  1.4398E-01; dE/dt below (all hartree)
    1       0.143983720555     -0.000000005618     -0.000000018594
    2      -0.144005573865      0.000000005621      0.000000018593

 cartesian coordinates (angstrom) at end:
    1     -1.14190083737899    -0.00000000856962    -0.00000003595505
    2      1.14190077692658     0.00000001344997     0.00000003689956

 cartesian forces (hartree/bohr) at end:
    1     -0.01199955393414     0.00000000070245     0.00000000232419
    2      0.01199955393414    -0.00000000070245    -0.00000000232419
 frms,max,avg= 6.9279457E-03 1.1999554E-02   9.106E-07 -2.238E-13  1.215E-13 h/b

 cartesian forces (eV/Angstrom) at end:
    1     -0.61704182068000     0.00000003612137     0.00000011951445
    2      0.61704182068000    -0.00000003612137    -0.00000011951445
 frms,max,avg= 3.5624926E-01 6.1704182E-01   4.682E-05 -1.151E-11  6.248E-12 e/A
 length scales= 12.000000000000  8.000000000000  8.000000000000 bohr
              =  6.350126503080  4.233417668720  4.233417668720 angstroms
 prteigrs : about to open file t21o_DS1_EIG
 Fermi (or HOMO) energy (hartree) =  -0.04462   Average Vxc (hartree)=  -0.22351
 Eigenvalues (hartree) for nkpt=   1  k points, SPIN UP:
 kpt#   1, nband=  5, wtk=  1.00000, kpt=  0.0000  0.0000  0.0000 (reduced coord)
  -0.36377  -0.21726  -0.09731  -0.04462  -0.04462
 Eigenvalues (hartree) for nkpt=   1  k points, SPIN DOWN:
 kpt#   1, nband=  3, wtk=  1.00000, kpt=  0.0000  0.0000  0.0000 (reduced coord)
  -0.32735  -0.18855  -0.08143
 Fermi (or HOMO) energy (eV) =  -1.21418   Average Vxc (eV)=  -6.08197
 Eigenvalues (   eV  ) for nkpt=   1  k points, SPIN UP:
 kpt#   1, nband=  5, wtk=  1.00000, kpt=  0.0000  0.0000  0.0000 (reduced coord)
  -9.89876  -5.91196  -2.64796  -1.21418  -1.21418
 Eigenvalues (   eV  ) for nkpt=   1  k points, SPIN DOWN:
 kpt#   1, nband=  3, wtk=  1.00000, kpt=  0.0000  0.0000  0.0000 (reduced coord)
  -8.90770  -5.13083  -2.21584
 Total charge density [el/Bohr^3]
,     Maximum=    8.9406E-02  at reduced coord.    0.0000    0.0000    0.0000
,Next maximum=    8.6185E-02  at reduced coord.    0.9630    0.0000    0.0000
,     Minimum=    2.0630E-04  at reduced coord.    0.9630    0.5000    0.5000
,Next minimum=    2.0630E-04  at reduced coord.    0.0370    0.5000    0.5000
,  Integrated=    8.0000E+00
 Spin up density      [el/Bohr^3]
,     Maximum=    4.4141E-02  at reduced coord.    0.0000    0.0000    0.0000
,Next maximum=    4.2696E-02  at reduced coord.    0.0000    0.0556    0.0000
,     Minimum=    9.7913E-05  at reduced coord.    0.9630    0.5000    0.5000
,Next minimum=    9.7915E-05  at reduced coord.    0.0370    0.5000    0.5000
,  Integrated=    5.0000E+00
 Spin down density    [el/Bohr^3]
,     Maximum=    4.5265E-02  at reduced coord.    0.0000    0.0000    0.0000
,Next maximum=    4.3586E-02  at reduced coord.    0.9630    0.0000    0.0000
,     Minimum=    1.0838E-04  at reduced coord.    0.9630    0.5000    0.5000
,Next minimum=    1.0839E-04  at reduced coord.    0.0370    0.5000    0.5000
,  Integrated=    3.0000E+00
 Magnetization (spin up - spin down) [el/Bohr^3]
,     Maximum=    1.8663E-02  at reduced coord.    0.8519    0.0556    0.1667
,Next maximum=    1.8663E-02  at reduced coord.    0.8519    0.9444    0.1667
,     Minimum=   -1.6778E-03  at reduced coord.    0.7037    0.0000    0.0000
,Next minimum=   -1.6777E-03  at reduced coord.    0.2963    0.0000    0.0000
,  Integrated=    2.0000E+00
 Relative magnetization (=zeta, between -1 and 1)
,     Maximum=    6.2662E-01  at reduced coord.    0.0000    0.7222    0.3333
,Next maximum=    6.2662E-01  at reduced coord.    0.0000    0.7222    0.6667
,     Minimum=   -7.6137E-02  at reduced coord.    0.4815    0.5000    0.5000
,Next minimum=   -7.6136E-02  at reduced coord.    0.5185    0.5000    0.5000

--------------------------------------------------------------------------------
 Components of total free energy (in Hartree) :

    Kinetic energy  =  2.52883610508500E+00
    Hartree energy  =  1.51200805867896E+00
    XC energy       = -3.22864405804168E+00
    Ewald energy    = -5.51151687768227E+00
    PspCore energy  =  2.98722879454542E-02
    Loc. psp. energy= -6.02784626507090E+00
    NL   psp  energy=  2.03966723123679E+00
    >>>>>>>>> Etotal= -8.65762351784864E+00

 Other information on the energy :
    Total energy(eV)= -2.35585916859543E+02 ; Band energy (Ha)=  -1.3649218413E+00
--------------------------------------------------------------------------------
 rms coord change=  1.7263E-03   atom, delta coord (reduced):
     1       -0.002989987797     -0.000000002024     -0.000000008493
     2        0.002989978277      0.000000003177      0.000000008716

 Cartesian components of stress tensor (hartree/bohr^3)
  sigma(1 1)=  2.14103011E-04  sigma(3 2)=  0.00000000E+00
  sigma(2 2)=  1.67036596E-04  sigma(3 1)=  7.62939579E-12
  sigma(3 3)=  1.67036596E-04  sigma(2 1)=  2.30589408E-12

-Cartesian components of stress tensor (GPa)         [Pressure= -5.3760E+00 GPa]
- sigma(1 1)=  6.29912700E+00  sigma(3 2)=  0.00000000E+00
- sigma(2 2)=  4.91438550E+00  sigma(3 1)=  2.24464536E-07
- sigma(3 3)=  4.91438550E+00  sigma(2 1)=  6.78417347E-08

================================================================================
== DATASET  2 ==================================================================
-   nproc =    1

 Exchange-correlation functional for the present dataset will be:
  LDA: new Teter (4/93) with spin-polarized option - ixc=1
 Citation for XC functional:
  S. Goedecker, M. Teter, J. Huetter, PRB 54, 1703 (1996)

 Real(R)+Recip(G) space primitive vectors, cartesian coordinates (Bohr,Bohr^-1):
 R(1)= 12.0000000  0.0000000  0.0000000  G(1)=  0.0833333  0.0000000  0.0000000
 R(2)=  0.0000000  8.0000000  0.0000000  G(2)=  0.0000000  0.1250000  0.0000000
 R(3)=  0.0000000  0.0000000  8.0000000  G(3)=  0.0000000  0.0000000  0.1250000
 Unit cell volume ucvol=  7.6800000E+02 bohr^3
 Angles (23,13,12)=  9.00000000E+01  9.00000000E+01  9.00000000E+01 degrees

 getcut: wavevector=  0.0000  0.0000  0.0000  ngfft=  27  18  18
         ecut(hartree)=      5.000   => boxcut(ratio)=   2.15249
--------------------------------------------------------------------------------

P newkpt: treating      5 bands with npw=     203 for ikpt=   1 by node    0
P newkpt: treating      3 bands with npw=     203 for ikpt=   1 by node    0

_setup2: Arith. and geom. avg. npw (full set) are     405.000     405.000

================================================================================

=== [ionmov= 7] Verlet algorithm blocking every atom where dot(vel,force)<0 
================================================================================

--- Iteration: ( 1/10) Internal Cycle: (1/1)
--------------------------------------------------------------------------------

---SELF-CONSISTENT-FIELD CONVERGENCE--------------------------------------------

     iter   Etot(hartree)      deltaE(h)  residm     vres2    diffor    maxfor
 ETOT  1  -8.6206278506853    -8.621E+00 1.624E-02 1.020E+01 2.422E-02 2.422E-02
 ETOT  2  -8.6534339039235    -3.281E-02 1.049E-05 4.678E+00 1.809E-02 6.136E-03
 ETOT  3  -8.6560164403786    -2.583E-03 6.799E-05 8.786E-01 8.439E-03 1.457E-02
 ETOT  4  -8.6564335713551    -4.171E-04 7.592E-06 1.485E-01 3.612E-03 1.819E-02
 ETOT  5  -8.6564961891839    -6.262E-05 1.191E-06 1.399E-02 1.381E-03 1.957E-02
 ETOT  6  -8.6565015657481    -5.377E-06 5.822E-08 3.170E-03 3.666E-05 1.961E-02
 ETOT  7  -8.6565029951446    -1.429E-06 3.100E-08 2.738E-04 5.792E-05 1.955E-02
 ETOT  8  -8.6565031620785    -1.669E-07 2.042E-09 5.182E-05 6.731E-05 1.948E-02
 ETOT  9  -8.6565031894453    -2.737E-08 3.006E-10 1.469E-05 3.116E-05 1.945E-02
 ETOT 10  -8.6565031950880    -5.643E-09 8.568E-11 5.030E-06 1.400E-05 1.943E-02
 ETOT 11  -8.6565031964010    -1.313E-09 3.080E-11 2.150E-06 2.553E-06 1.943E-02
 ETOT 12  -8.6565031970040    -6.030E-10 1.169E-11 8.246E-07 1.194E-06 1.943E-02

 At SCF step   12, forces are converged : 
  for the second time, max diff in force=  1.194E-06 < toldff=  1.000E-05

 Cartesian components of stress tensor (hartree/bohr^3)
  sigma(1 1)=  1.65287637E-04  sigma(3 2)= -9.94792191E-11
  sigma(2 2)=  1.66576066E-04  sigma(3 1)= -1.00042176E-09
  sigma(3 3)=  1.66576220E-04  sigma(2 1)= -3.05607461E-10


---OUTPUT-----------------------------------------------------------------------

 Cartesian coordinates (xcart) [bohr]
 -2.12200000000000E+00  0.00000000000000E+00  0.00000000000000E+00
  2.12200000000000E+00  0.00000000000000E+00  0.00000000000000E+00
 Reduced coordinates (xred)
 -1.76833333333333E-01  0.00000000000000E+00  0.00000000000000E+00
  1.76833333333333E-01  0.00000000000000E+00  0.00000000000000E+00
 Cartesian forces (fcart) [Ha/bohr]; max,rms= 1.94310E-02 1.12185E-02 (free atoms)
 -1.94309707142488E-02 -7.66471584678152E-08 -2.42970520622959E-07
  1.94309707142488E-02  7.66471584678152E-08  2.42970520622959E-07
 Reduced forces (fred)
  2.33169392535780E-01  3.37912494979667E-07  1.92109088883382E-06
 -2.33173904606191E-01 -8.88442040505377E-07 -1.96643744113352E-06
 Cartesian velocities (vel) [bohr*Ha/hbar]; max,rms= 0.00000E+00 0.00000E+00 (free atoms)
  0.00000000000000E+00  0.00000000000000E+00  0.00000000000000E+00
  0.00000000000000E+00  0.00000000000000E+00  0.00000000000000E+00
 Kinetic energy of ions (ekin) [Ha]=  0.00000000000000E+00
 Total energy (etotal) [Ha]= -8.65650319700397E+00

--- Iteration: ( 2/10) Internal Cycle: (1/1)
--------------------------------------------------------------------------------

---SELF-CONSISTENT-FIELD CONVERGENCE--------------------------------------------

     iter   Etot(hartree)      deltaE(h)  residm     vres2    diffor    maxfor
 ETOT  1  -8.6571000338076    -8.657E+00 3.396E-09 6.958E-03 3.329E-03 1.610E-02
 ETOT  2  -8.6571041240998    -4.090E-06 6.819E-11 1.502E-03 2.665E-04 1.584E-02
 ETOT  3  -8.6571045689865    -4.449E-07 1.564E-08 3.469E-04 8.923E-05 1.575E-02
 ETOT  4  -8.6571046436695    -7.468E-08 5.604E-09 6.552E-06 3.846E-05 1.571E-02
 ETOT  5  -8.6571046459659    -2.296E-09 4.342E-11 2.113E-06 8.472E-06 1.572E-02
 ETOT  6  -8.6571046467630    -7.971E-10 3.182E-11 6.517E-08 1.018E-05 1.573E-02
 ETOT  7  -8.6571046467939    -3.093E-11 1.030E-12 5.559E-09 1.133E-06 1.573E-02
 ETOT  8  -8.6571046467969    -2.993E-12 6.961E-14 1.647E-09 1.138E-07 1.573E-02

 At SCF step    8, forces are converged : 
  for the second time, max diff in force=  1.138E-07 < toldff=  1.000E-05

 Cartesian components of stress tensor (hartree/bohr^3)
  sigma(1 1)=  1.89339567E-04  sigma(3 2)= -1.94173801E-14
  sigma(2 2)=  1.66779249E-04  sigma(3 1)=  1.37696117E-11
  sigma(3 3)=  1.66779249E-04  sigma(2 1)=  4.92748976E-12


---OUTPUT-----------------------------------------------------------------------

 Cartesian coordinates (xcart) [bohr]
 -2.13913116023637E+00 -5.24077971532278E-08 -2.12964693371701E-07
  2.13913132598846E+00  8.27435676342289E-08  2.15463419577857E-07
 Reduced coordinates (xred)
 -1.78260930019698E-01 -6.55097464415348E-09 -2.66205866714626E-08
  1.78260943832372E-01  1.03429459542786E-08  2.69329274472322E-08
 Cartesian forces (fcart) [Ha/bohr]; max,rms= 1.57280E-02 9.08055E-03 (free atoms)
 -1.57279780508958E-02  1.80262823773790E-09  5.36283108510989E-09
  1.57279780508958E-02 -1.80262823773790E-09 -5.36283108510989E-09
 Reduced forces (fred)
  1.88735808605005E-01 -1.68866044320721E-08 -3.79215571826349E-08
 -1.88735664616494E-01  1.19554473717343E-08  4.78837401791234E-08
 Cartesian velocities (vel) [bohr*Ha/hbar]; max,rms= 0.00000E+00 0.00000E+00 (free atoms)
  0.00000000000000E+00  0.00000000000000E+00  0.00000000000000E+00
  0.00000000000000E+00  0.00000000000000E+00  0.00000000000000E+00
 Kinetic energy of ions (ekin) [Ha]=  0.00000000000000E+00
 Total energy (etotal) [Ha]= -8.65710464679692E+00

 Difference of energy with previous step (new-old):
           Absolute (Ha)=-6.01450E-04
           Relative     =-6.94771E-05

--- Iteration: ( 3/10) Internal Cycle: (1/1)
--------------------------------------------------------------------------------

---SELF-CONSISTENT-FIELD CONVERGENCE--------------------------------------------

     iter   Etot(hartree)      deltaE(h)  residm     vres2    diffor    maxfor
 ETOT  1  -8.6580983771757    -8.658E+00 4.884E-08 4.371E-02 7.665E-03 8.063E-03
 ETOT  2  -8.6581226946464    -2.432E-05 4.281E-10 9.709E-03 5.399E-04 7.523E-03
 ETOT  3  -8.6581254823648    -2.788E-06 9.733E-08 2.146E-03 1.760E-04 7.347E-03
 ETOT  4  -8.6581259284783    -4.461E-07 3.382E-08 4.213E-05 6.329E-05 7.283E-03
 ETOT  5  -8.6581259437511    -1.527E-08 2.677E-10 1.374E-05 2.189E-05 7.305E-03
 ETOT  6  -8.6581259491391    -5.388E-09 2.114E-10 3.044E-07 2.606E-05 7.331E-03
 ETOT  7  -8.6581259492973    -1.582E-10 5.665E-12 3.475E-08 2.006E-06 7.333E-03
 ETOT  8  -8.6581259493201    -2.278E-11 5.913E-13 9.986E-09 3.695E-07 7.334E-03

 At SCF step    8, forces are converged : 
  for the second time, max diff in force=  3.695E-07 < toldff=  1.000E-05

 Cartesian components of stress tensor (hartree/bohr^3)
  sigma(1 1)=  2.46445847E-04  sigma(3 2)=  0.00000000E+00
  sigma(2 2)=  1.67392610E-04  sigma(3 1)=  5.05090914E-11
  sigma(3 3)=  1.67392610E-04  sigma(2 1)=  1.59128992E-11


---OUTPUT-----------------------------------------------------------------------

 Cartesian coordinates (xcart) [bohr]
 -2.18399535254907E+00 -1.01365312315837E-07 -4.17022091655203E-07
  2.18399567347434E+00  1.62580295314707E-07  4.20921653865883E-07
 Reduced coordinates (xred)
 -1.81999612712423E-01 -1.26706640394796E-08 -5.21277614569004E-08
  1.81999639456195E-01  2.03225369143383E-08  5.26152067332353E-08
 Cartesian forces (fcart) [Ha/bohr]; max,rms= 7.33370E-03 4.23411E-03 (free atoms)
 -7.33369700282114E-03  4.73522212725103E-09  1.50310502101280E-08
  7.33369700282114E-03 -4.73522212725103E-09 -1.50310502101280E-08
 Reduced forces (fred)
  8.80043642126239E-02 -3.78935200770312E-08 -1.20198785143248E-07
 -8.80043638550835E-02  3.78700339589853E-08  1.20298018218801E-07
 Cartesian velocities (vel) [bohr*Ha/hbar]; max,rms= 1.03326E-04 5.96552E-05 (free atoms)
 -1.03325587581785E-04 -1.68942187193061E-10 -6.95036819425339E-10
  1.03326122457226E-04  2.70967158857844E-10  7.01536089776471E-10
 Kinetic energy of ions (ekin) [Ha]=  5.44924266442974E-04
 Total energy (etotal) [Ha]= -8.65812594932007E+00

 Difference of energy with previous step (new-old):
           Absolute (Ha)=-1.02130E-03
           Relative     =-1.17966E-04

--- Iteration: ( 4/10) Internal Cycle: (1/1)
--------------------------------------------------------------------------------

---SELF-CONSISTENT-FIELD CONVERGENCE--------------------------------------------

     iter   Etot(hartree)      deltaE(h)  residm     vres2    diffor    maxfor
 ETOT  1  -8.6584279007904    -8.658E+00 9.229E-08 6.129E-02 7.904E-03 5.701E-04
 ETOT  2  -8.6584583337470    -3.043E-05 5.770E-10 1.479E-02 4.402E-04 1.010E-03
 ETOT  3  -8.6584623220906    -3.988E-06 1.447E-07 2.897E-03 1.312E-04 1.141E-03
 ETOT  4  -8.6584628655939    -5.435E-07 4.322E-08 6.454E-05 1.849E-05 1.160E-03
 ETOT  5  -8.6584628899306    -2.434E-08 3.736E-10 2.110E-05 2.866E-05 1.131E-03
 ETOT  6  -8.6584628984522    -8.522E-09 2.983E-10 3.338E-07 3.105E-05 1.100E-03
 ETOT  7  -8.6584628986519    -1.998E-10 6.727E-12 5.340E-08 2.128E-06 1.098E-03
 ETOT  8  -8.6584628986924    -4.052E-11 1.284E-12 1.372E-08 5.108E-07 1.098E-03

 At SCF step    8, forces are converged : 
  for the second time, max diff in force=  5.108E-07 < toldff=  1.000E-05

 Cartesian components of stress tensor (hartree/bohr^3)
  sigma(1 1)=  3.08932819E-04  sigma(3 2)=  0.00000000E+00
  sigma(2 2)=  1.68352578E-04  sigma(3 1)=  8.17708714E-11
  sigma(3 3)=  1.68352578E-04  sigma(2 1)=  2.57433607E-11


---OUTPUT-----------------------------------------------------------------------

 Cartesian coordinates (xcart) [bohr]
 -2.24179099828665E+00 -1.41971951346594E-07 -5.94580818862521E-07
  2.24179147435882E+00  2.34068735169419E-07  5.99870281018692E-07
 Reduced coordinates (xred)
 -1.86815916523887E-01 -1.77464939183243E-08 -7.43226023578151E-08
  1.86815956196568E-01  2.92585918961773E-08  7.49837851273365E-08
 Cartesian forces (fcart) [Ha/bohr]; max,rms= 1.09757E-03 6.33683E-04 (free atoms)
  1.09757145571578E-03  7.50931669031911E-09  2.38524973169928E-08
 -1.09757145571578E-03 -7.50931669031911E-09 -2.38524973169928E-08
 Reduced forces (fred)
 -1.31708574574066E-02 -6.00747175991110E-08 -1.90819723193980E-07
  1.31708574797720E-02  6.00743494459948E-08  1.90820233877905E-07
 Cartesian velocities (vel) [bohr*Ha/hbar]; max,rms= 1.71100E-04 9.87846E-05 (free atoms)
 -1.71099730083796E-04 -1.49273590322277E-10 -6.36026875818033E-10
  1.71100247283937E-04  2.52208612558650E-10  6.40678102401391E-10
 Kinetic energy of ions (ekin) [Ha]=  1.49423221151263E-03
 Total energy (etotal) [Ha]= -8.65846289869245E+00

 Difference of energy with previous step (new-old):
           Absolute (Ha)=-3.36949E-04
           Relative     =-3.89164E-05
 List of stopped atoms (ionmov=7) :
   1   2

--- Iteration: ( 5/10) Internal Cycle: (1/1)
--------------------------------------------------------------------------------

---SELF-CONSISTENT-FIELD CONVERGENCE--------------------------------------------

     iter   Etot(hartree)      deltaE(h)  residm     vres2    diffor    maxfor
 ETOT  1  -8.6584648850467    -8.658E+00 8.111E-12 4.008E-05 1.097E-04 9.879E-04
 ETOT  2  -8.6584649038000    -1.875E-08 1.703E-13 3.514E-06 1.062E-05 9.773E-04
 ETOT  3  -8.6584649047332    -9.332E-10 3.201E-11 8.838E-07 2.193E-06 9.751E-04
 ETOT  4  -8.6584649049165    -1.833E-10 8.457E-12 4.348E-08 3.715E-07 9.747E-04

 At SCF step    4, forces are converged : 
  for the second time, max diff in force=  3.715E-07 < toldff=  1.000E-05

 Cartesian components of stress tensor (hartree/bohr^3)
  sigma(1 1)=  3.07979485E-04  sigma(3 2)=  0.00000000E+00
  sigma(2 2)=  1.68337873E-04  sigma(3 1)=  7.87315624E-11
  sigma(3 3)=  1.68337873E-04  sigma(2 1)=  2.47865076E-11


---OUTPUT-----------------------------------------------------------------------

 Cartesian coordinates (xcart) [bohr]
 -2.24082332849240E+00 -1.35351380052804E-07 -5.73551367324073E-07
  2.24082380456375E+00  2.27448184161930E-07  5.78840801340083E-07
 Reduced coordinates (xred)
 -1.86735277374367E-01 -1.69189225066005E-08 -7.16939209155091E-08
  1.86735317046979E-01  2.84310230202413E-08  7.23551001675104E-08
 Cartesian forces (fcart) [Ha/bohr]; max,rms= 9.74720E-04 5.62755E-04 (free atoms)
  9.74719895350159E-04  7.22816775142407E-09  2.29594639981235E-08
 -9.74719895350159E-04 -7.22816775142407E-09 -2.29594639981235E-08
 Reduced forces (fred)
 -1.16966387493526E-02 -5.78253088811643E-08 -1.83675671793868E-07
  1.16966387390512E-02  5.78253751416208E-08  1.83675752176108E-07
 Cartesian velocities (vel) [bohr*Ha/hbar]; max,rms= 0.00000E+00 0.00000E+00 (free atoms)
  0.00000000000000E+00  0.00000000000000E+00  0.00000000000000E+00
  0.00000000000000E+00  0.00000000000000E+00  0.00000000000000E+00
 Kinetic energy of ions (ekin) [Ha]=  0.00000000000000E+00
 Total energy (etotal) [Ha]= -8.65846490491646E+00

 Difference of energy with previous step (new-old):
           Absolute (Ha)=-2.00622E-06
           Relative     =-2.31707E-07

--- Iteration: ( 6/10) Internal Cycle: (1/1)
--------------------------------------------------------------------------------

---SELF-CONSISTENT-FIELD CONVERGENCE--------------------------------------------

     iter   Etot(hartree)      deltaE(h)  residm     vres2    diffor    maxfor
 ETOT  1  -8.6584690769213    -8.658E+00 6.499E-11 3.126E-04 3.057E-04 6.690E-04
 ETOT  2  -8.6584692234547    -1.465E-07 1.319E-12 2.718E-05 3.004E-05 6.390E-04
 ETOT  3  -8.6584692307204    -7.266E-09 2.550E-10 6.841E-06 6.231E-06 6.328E-04
 ETOT  4  -8.6584692321580    -1.438E-09 6.825E-11 3.395E-07 1.098E-06 6.317E-04

 At SCF step    4, forces are converged : 
  for the second time, max diff in force=  1.098E-06 < toldff=  1.000E-05

 Cartesian components of stress tensor (hartree/bohr^3)
  sigma(1 1)=  3.05317201E-04  sigma(3 2)=  0.00000000E+00
  sigma(2 2)=  1.68300134E-04  sigma(3 1)=  6.99699262E-11
  sigma(3 3)=  1.68300134E-04  sigma(2 1)=  2.20281428E-11


---OUTPUT-----------------------------------------------------------------------

 Cartesian coordinates (xcart) [bohr]
 -2.23813694235165E+00 -1.15985437942976E-07 -5.12037668010868E-07
  2.23813741842294E+00  2.08082255036118E-07  5.17327065028129E-07
 Reduced coordinates (xred)
 -1.86511411862638E-01 -1.44981797428720E-08 -6.40047085013585E-08
  1.86511451535245E-01  2.60102818795147E-08  6.46658831285161E-08
 Cartesian forces (fcart) [Ha/bohr]; max,rms= 6.31676E-04 3.64698E-04 (free atoms)
  6.31675899944442E-04  6.41868670740195E-09  2.03882400315995E-08
 -6.31675899944442E-04 -6.41868670740195E-09 -2.03882400315995E-08
 Reduced forces (fred)
 -7.58011080447793E-03 -5.13494271612917E-08 -1.63105911483646E-07
  7.58011079418869E-03  5.13495601571395E-08  1.63105929021946E-07
 Cartesian velocities (vel) [bohr*Ha/hbar]; max,rms= 6.09009E-06 3.51612E-06 (free atoms)
  6.09009322499225E-06  4.33108556726976E-11  1.37571918086088E-10
 -6.09009322646921E-06 -4.33108002221681E-11 -1.37572026650939E-10
 Kinetic energy of ions (ekin) [Ha]=  1.89306712889185E-06
 Total energy (etotal) [Ha]= -8.65846923215803E+00

 Difference of energy with previous step (new-old):
           Absolute (Ha)=-4.32724E-06
           Relative     =-4.99770E-07

--- Iteration: ( 7/10) Internal Cycle: (1/1)
--------------------------------------------------------------------------------

---SELF-CONSISTENT-FIELD CONVERGENCE--------------------------------------------

     iter   Etot(hartree)      deltaE(h)  residm     vres2    diffor    maxfor
 ETOT  1  -8.6584718756406    -8.658E+00 1.334E-10 6.368E-04 4.371E-04 1.945E-04
 ETOT  2  -8.6584721758417    -3.002E-07 2.701E-12 5.473E-05 4.392E-05 1.506E-04
 ETOT  3  -8.6584721906452    -1.480E-08 5.211E-10 1.379E-05 9.251E-06 1.414E-04
 ETOT  4  -8.6584721935695    -2.924E-09 1.388E-10 6.951E-07 1.816E-06 1.395E-04

 At SCF step    4, forces are converged : 
  for the second time, max diff in force=  1.816E-06 < toldff=  1.000E-05

 Cartesian components of stress tensor (hartree/bohr^3)
  sigma(1 1)=  3.01511764E-04  sigma(3 2)=  0.00000000E+00
  sigma(2 2)=  1.68239337E-04  sigma(3 1)=  5.63042714E-11
  sigma(3 3)=  1.68239337E-04  sigma(2 1)=  1.77258798E-11


---OUTPUT-----------------------------------------------------------------------

 Cartesian coordinates (xcart) [bohr]
 -2.23433672679157E+00 -8.53014806022577E-08 -4.14573537567600E-07
  2.23433720286355E+00  1.77398296022504E-07  4.19862895653289E-07
 Reduced coordinates (xred)
 -1.86194727232631E-01 -1.06626850752822E-08 -5.18216921959500E-08
  1.86194766905296E-01  2.21747870028130E-08  5.24828619566612E-08
 Cartesian forces (fcart) [Ha/bohr]; max,rms= 1.39549E-04 8.05687E-05 (free atoms)
  1.39549094037312E-04  5.15945863432824E-09  1.63884427426049E-08
 -1.39549094037312E-04 -5.15945863432824E-09 -1.63884427426049E-08
 Reduced forces (fred)
 -1.67458913456506E-03 -4.12755852868835E-08 -1.31107539062315E-07
  1.67458912233043E-03  4.12757528623683E-08  1.31107544819364E-07
 Cartesian velocities (vel) [bohr*Ha/hbar]; max,rms= 1.08110E-05 6.24174E-06 (free atoms)
  1.08110028347082E-05  8.34164990842438E-11  2.64963049594122E-10
 -1.08110028336639E-05 -8.34164802323768E-11 -2.64963176144656E-10
 Kinetic energy of ions (ekin) [Ha]=  5.96554457874679E-06
 Total energy (etotal) [Ha]= -8.65847219356946E+00

 Difference of energy with previous step (new-old):
           Absolute (Ha)=-2.96141E-06
           Relative     =-3.42025E-07

--- Iteration: ( 8/10) Internal Cycle: (1/1)
--------------------------------------------------------------------------------

---SELF-CONSISTENT-FIELD CONVERGENCE--------------------------------------------

     iter   Etot(hartree)      deltaE(h)  residm     vres2    diffor    maxfor
 ETOT  1  -8.6584708323175    -8.658E+00 1.534E-10 7.366E-04 4.725E-04 3.330E-04
 ETOT  2  -8.6584711817891    -3.495E-07 3.144E-12 6.244E-05 4.854E-05 3.815E-04
 ETOT  3  -8.6584711989040    -1.711E-08 6.041E-10 1.575E-05 1.040E-05 3.919E-04
 ETOT  4  -8.6584712022815    -3.377E-09 1.598E-10 8.071E-07 2.278E-06 3.942E-04
 ETOT  5  -8.6584712024331    -1.516E-10 5.173E-12 7.990E-08 1.855E-06 3.923E-04

 At SCF step    5, forces are converged : 
  for the second time, max diff in force=  1.855E-06 < toldff=  1.000E-05

 Cartesian components of stress tensor (hartree/bohr^3)
  sigma(1 1)=  2.97391276E-04  sigma(3 2)=  0.00000000E+00
  sigma(2 2)=  1.68161164E-04  sigma(3 1)=  3.89928510E-11
  sigma(3 3)=  1.68161165E-04  sigma(2 1)=  1.22758462E-11


---OUTPUT-----------------------------------------------------------------------

 Cartesian coordinates (xcart) [bohr]
 -2.23029044535083E+00 -4.55198974371595E-08 -2.88211788173207E-07
  2.23029092142440E+00  1.37616692716722E-07  2.93501106692865E-07
 Reduced coordinates (xred)
 -1.85857537112570E-01 -5.68998717964494E-09 -3.60264735216509E-08
  1.85857576785367E-01  1.72020865895903E-08  3.66876383366082E-08
 Cartesian forces (fcart) [Ha/bohr]; max,rms= 3.92314E-04 2.26503E-04 (free atoms)
 -3.92314011517589E-04  3.58302359869366E-09  1.13810737858579E-08
  3.92314011517589E-04 -3.58302359869366E-09 -1.13810737858579E-08
 Reduced forces (fred)
  4.70776814028013E-03 -2.86641489805797E-08 -9.10485920602849E-08
 -4.70776813614202E-03  2.86642285985189E-08  9.10485885134413E-08
 Cartesian velocities (vel) [bohr*Ha/hbar]; max,rms= 1.30775E-05 7.55030E-06 (free atoms)
  1.30774950013635E-05  1.17442567509694E-10  3.73043133062769E-10
 -1.30774949975621E-05 -1.17442603865660E-10 -3.73043263892106E-10
 Kinetic energy of ions (ekin) [Ha]=  8.72905557231309E-06
 Total energy (etotal) [Ha]= -8.65847120243307E+00

 Difference of energy with previous step (new-old):
           Absolute (Ha)= 9.91136E-07
           Relative     = 1.14470E-07
 List of stopped atoms (ionmov=7) :
   1   2

--- Iteration: ( 9/10) Internal Cycle: (1/1)
--------------------------------------------------------------------------------

---SELF-CONSISTENT-FIELD CONVERGENCE--------------------------------------------

     iter   Etot(hartree)      deltaE(h)  residm     vres2    diffor    maxfor
 ETOT  1  -8.6584714554710    -8.658E+00 1.216E-12 1.912E-06 4.564E-05 3.467E-04
 ETOT  2  -8.6584714563146    -8.436E-10 1.638E-14 5.051E-07 2.211E-06 3.445E-04
 ETOT  3  -8.6584714564378    -1.232E-10 5.024E-12 8.836E-08 6.866E-07 3.438E-04

 At SCF step    3, forces are converged : 
  for the second time, max diff in force=  6.866E-07 < toldff=  1.000E-05

 Cartesian components of stress tensor (hartree/bohr^3)
  sigma(1 1)=  2.97748666E-04  sigma(3 2)=  0.00000000E+00
  sigma(2 2)=  1.68154039E-04  sigma(3 1)=  3.76794688E-11
  sigma(3 3)=  1.68154039E-04  sigma(2 1)=  1.18623628E-11


---OUTPUT-----------------------------------------------------------------------

 Cartesian coordinates (xcart) [bohr]
 -2.23063632754108E+00 -4.23609401917473E-08 -2.78177706671469E-07
  2.23063680361449E+00  1.34457731084131E-07  2.83467025386568E-07
 Reduced coordinates (xred)
 -1.85886360628423E-01 -5.29511752396841E-09 -3.47722133339336E-08
  1.85886400301208E-01  1.68072163855164E-08  3.54333781733210E-08
 Cartesian forces (fcart) [Ha/bohr]; max,rms= 3.43777E-04 1.98480E-04 (free atoms)
 -3.43777207999740E-04  3.46056517357438E-09  1.09920981050203E-08
  3.43777207999740E-04 -3.46056517357438E-09 -1.09920981050203E-08
 Reduced forces (fred)
  4.12532649497149E-03 -2.76845162507112E-08 -8.79367856799639E-08
 -4.12532649702227E-03  2.76845265264789E-08  8.79367840003608E-08
 Cartesian velocities (vel) [bohr*Ha/hbar]; max,rms= 0.00000E+00 0.00000E+00 (free atoms)
  0.00000000000000E+00  0.00000000000000E+00  0.00000000000000E+00
  0.00000000000000E+00  0.00000000000000E+00  0.00000000000000E+00
 Kinetic energy of ions (ekin) [Ha]=  0.00000000000000E+00
 Total energy (etotal) [Ha]= -8.65847145643776E+00

 Difference of energy with previous step (new-old):
           Absolute (Ha)=-2.54005E-07
           Relative     =-2.93360E-08

--- Iteration: (10/10) Internal Cycle: (1/1)
--------------------------------------------------------------------------------

---SELF-CONSISTENT-FIELD CONVERGENCE--------------------------------------------

     iter   Etot(hartree)      deltaE(h)  residm     vres2    diffor    maxfor
 ETOT  1  -8.6584719832449    -8.658E+00 8.734E-12 1.532E-05 1.183E-04 2.255E-04
 ETOT  2  -8.6584719902169    -6.972E-09 1.318E-13 3.989E-06 6.524E-06 2.189E-04
 ETOT  3  -8.6584719912386    -1.022E-09 4.165E-11 6.921E-07 2.044E-06 2.169E-04

 At SCF step    3, forces are converged : 
  for the second time, max diff in force=  2.044E-06 < toldff=  1.000E-05

 Cartesian components of stress tensor (hartree/bohr^3)
  sigma(1 1)=  2.98696316E-04  sigma(3 2)=  0.00000000E+00
  sigma(2 2)=  1.68175923E-04  sigma(3 1)=  3.37281903E-11
  sigma(3 3)=  1.68175922E-04  sigma(2 1)=  1.06184100E-11


---OUTPUT-----------------------------------------------------------------------

 Cartesian coordinates (xcart) [bohr]
 -2.23158838952672E+00 -3.30999946653029E-08 -2.48761340195804E-07
  2.23158886560014E+00  1.25196780038059E-07  2.54050659291447E-07
 Reduced coordinates (xred)
 -1.85965699127227E-01 -4.13749933316287E-09 -3.10951675244755E-08
  1.85965738800011E-01  1.56495975047574E-08  3.17563324114308E-08
 Cartesian forces (fcart) [Ha/bohr]; max,rms= 2.16885E-04 1.25219E-04 (free atoms)
 -2.16884987526393E-04  3.08500065063828E-09  9.79915909388729E-09
  2.16884987526393E-04 -3.08500065063828E-09 -9.79915909388729E-09
 Reduced forces (fred)
  2.60261985189801E-03 -2.46800530542277E-08 -7.83932743802942E-08
 -2.60261984873541E-03  2.46799573559847E-08  7.83932711219025E-08
 Cartesian velocities (vel) [bohr*Ha/hbar]; max,rms= 2.16324E-06 1.24895E-06 (free atoms)
 -2.16324029314781E-06  2.06998379530943E-11  6.57507466290059E-11
  2.16324029289172E-06 -2.06998544644386E-11 -6.57507456690314E-11
 Kinetic energy of ions (ekin) [Ha]=  2.38851328052217E-07
 Total energy (etotal) [Ha]= -8.65847199123862E+00

 Difference of energy with previous step (new-old):
           Absolute (Ha)=-5.34801E-07
           Relative     =-6.17662E-08

 fconv : WARNING -
  ntime=   10 was not enough Broyd/MD steps to converge gradients: 
  max grad (force/stress) = 2.1688E-04 > tolmxf= 5.0000E-05 ha/bohr (free atoms)

================================================================================

 ----iterations are completed or convergence reached----

 Mean square residual over all n,k,spin=   1.2068E-11; max=  4.1649E-11
   0.0000  0.0000  0.0000    1  1.31942E-11 kpt; spin; max resid(k); each band:
  1.32E-11 9.86E-13 6.88E-12 2.15E-13 2.15E-13
   0.0000  0.0000  0.0000    2  4.16485E-11 kpt; spin; max resid(k); each band:
  4.16E-11 9.16E-13 3.25E-11
 reduced coordinates (array xred) for    2 atoms
      -0.185965699127     -0.000000004137     -0.000000031095
       0.185965738800      0.000000015650      0.000000031756
 rms dE/dt=  1.5026E-03; max dE/dt=  2.6026E-03; dE/dt below (all hartree)
    1       0.002602619852     -0.000000024680     -0.000000078393
    2      -0.002602619849      0.000000024680      0.000000078393

 cartesian coordinates (angstrom) at end:
    1     -1.18090571469160    -0.00000001751576    -0.00000013163883
    2      1.18090596661881     0.00000006625128     0.00000013443782

 cartesian forces (hartree/bohr) at end:
    1     -0.00021688498753     0.00000000308500     0.00000000979916
    2      0.00021688498753    -0.00000000308500    -0.00000000979916
 frms,max,avg= 1.2521861E-04 2.1688499E-04  -1.318E-13  0.000E+00  0.000E+00 h/b

 cartesian forces (eV/Angstrom) at end:
    1     -0.01115267353403     0.00000015863710     0.00000050389298
    2      0.01115267353403    -0.00000015863710    -0.00000050389298
 frms,max,avg= 6.4389991E-03 1.1152674E-02  -6.776E-12  0.000E+00  0.000E+00 e/A
 length scales= 12.000000000000  8.000000000000  8.000000000000 bohr
              =  6.350126503080  4.233417668720  4.233417668720 angstroms
 prteigrs : about to open file t21o_DS2_EIG
 Fermi (or HOMO) energy (hartree) =  -0.03796   Average Vxc (hartree)=  -0.22421
 Eigenvalues (hartree) for nkpt=   1  k points, SPIN UP:
 kpt#   1, nband=  5, wtk=  1.00000, kpt=  0.0000  0.0000  0.0000 (reduced coord)
  -0.35490  -0.22007  -0.09806  -0.03796  -0.03796
 Eigenvalues (hartree) for nkpt=   1  k points, SPIN DOWN:
 kpt#   1, nband=  3, wtk=  1.00000, kpt=  0.0000  0.0000  0.0000 (reduced coord)
  -0.31982  -0.19067  -0.08189
 Fermi (or HOMO) energy (eV) =  -1.03302   Average Vxc (eV)=  -6.10109
 Eigenvalues (   eV  ) for nkpt=   1  k points, SPIN UP:
 kpt#   1, nband=  5, wtk=  1.00000, kpt=  0.0000  0.0000  0.0000 (reduced coord)
  -9.65731  -5.98850  -2.66843  -1.03302  -1.03302
 Eigenvalues (   eV  ) for nkpt=   1  k points, SPIN DOWN:
 kpt#   1, nband=  3, wtk=  1.00000, kpt=  0.0000  0.0000  0.0000 (reduced coord)
  -8.70262  -5.18852  -2.22829
 Total charge density [el/Bohr^3]
,     Maximum=    8.0101E-02  at reduced coord.    0.0000    0.0000    0.0000
,Next maximum=    7.9240E-02  at reduced coord.    0.0370    0.0000    0.0000
,     Minimum=    2.1925E-04  at reduced coord.    0.9630    0.5000    0.5000
,Next minimum=    2.1925E-04  at reduced coord.    0.0370    0.5000    0.5000
,  Integrated=    8.0000E+00
 Spin up density      [el/Bohr^3]
,     Maximum=    3.9508E-02  at reduced coord.    0.0000    0.0000    0.0000
,Next maximum=    3.9133E-02  at reduced coord.    0.0370    0.0000    0.0000
,     Minimum=    1.0374E-04  at reduced coord.    0.9630    0.5000    0.5000
,Next minimum=    1.0374E-04  at reduced coord.    0.0370    0.5000    0.5000
,  Integrated=    5.0000E+00
 Spin down density    [el/Bohr^3]
,     Maximum=    4.0593E-02  at reduced coord.    0.0000    0.0000    0.0000
,Next maximum=    4.0107E-02  at reduced coord.    0.0370    0.0000    0.0000
,     Minimum=    1.1551E-04  at reduced coord.    0.9630    0.5000    0.5000
,Next minimum=    1.1551E-04  at reduced coord.    0.0370    0.5000    0.5000
,  Integrated=    3.0000E+00
 Magnetization (spin up - spin down) [el/Bohr^3]
,     Maximum=    1.8358E-02  at reduced coord.    0.8519    0.9444    0.1667
,Next maximum=    1.8358E-02  at reduced coord.    0.8519    0.1667    0.0556
,     Minimum=   -1.6046E-03  at reduced coord.    0.3333    0.0000    0.0000
,Next minimum=   -1.6046E-03  at reduced coord.    0.6667    0.0000    0.0000
,  Integrated=    2.0000E+00
 Relative magnetization (=zeta, between -1 and 1)
,     Maximum=    6.0715E-01  at reduced coord.    0.0000    0.3333    0.3333
,Next maximum=    6.0715E-01  at reduced coord.    0.0000    0.3333    0.6667
,     Minimum=   -7.3193E-02  at reduced coord.    0.5185    0.5000    0.5000
,Next minimum=   -7.3193E-02  at reduced coord.    0.4815    0.5000    0.5000

--------------------------------------------------------------------------------
 Components of total free energy (in Hartree) :

    Kinetic energy  =  2.49534734319995E+00
    Hartree energy  =  1.43502692362858E+00
    XC energy       = -3.21356192937743E+00
    Ewald energy    = -5.60959400340010E+00
    PspCore energy  =  2.98722879454542E-02
    Loc. psp. energy= -5.82582970466569E+00
    NL   psp  energy=  2.03026709143064E+00
    >>>>>>>>> Etotal= -8.65847199123861E+00

 Other information on the energy :
    Total energy(eV)= -2.35609004994652E+02 ; Band energy (Ha)=  -1.3413395741E+00
--------------------------------------------------------------------------------
 rms coord change=  5.2726E-03   atom, delta coord (reduced):
     1       -0.009132365794     -0.000000004137     -0.000000031095
     2        0.009132405467      0.000000015650      0.000000031756

 Cartesian components of stress tensor (hartree/bohr^3)
  sigma(1 1)=  2.98696316E-04  sigma(3 2)=  0.00000000E+00
  sigma(2 2)=  1.68175923E-04  sigma(3 1)=  3.37281903E-11
  sigma(3 3)=  1.68175922E-04  sigma(2 1)=  1.06184100E-11

-Cartesian components of stress tensor (GPa)         [Pressure= -6.2279E+00 GPa]
- sigma(1 1)=  8.78794754E+00  sigma(3 2)=  0.00000000E+00
- sigma(2 2)=  4.94790564E+00  sigma(3 1)=  9.92317452E-07
- sigma(3 3)=  4.94790562E+00  sigma(2 1)=  3.12404355E-07

== END DATASET(S) ==============================================================
================================================================================
  
 -outvars: echo values of variables after computation  --------
            acell      1.2000000000E+01  8.0000000000E+00  8.0000000000E+00 Bohr
              amu      2.80000000E+01
           diemac      1.00000000E+00
           diemix      4.00000000E-01
            dtion1     5.00000000E+01
            dtion2     3.00000000E+02
             ecut      5.00000000E+00 Hartree
           enunit           2
           etotal1    -8.6576235178E+00
           etotal2    -8.6584719912E+00
            fcart1    -1.1999553934E-02  7.0244890007E-10  2.3241861822E-09
                       1.1999553934E-02 -7.0244890007E-10 -2.3241861822E-09
            fcart2    -2.1688498753E-04  3.0850006506E-09  9.7991590939E-09
                       2.1688498753E-04 -3.0850006506E-09 -9.7991590939E-09
-          fftalg         112
            intxc           1
           ionmov1          6
           ionmov2          7
             iscf           3
           istwfk        2
           jdtset        1    2
           kptopt           0
P           mkmem           1
            natom           2
            nband           5       3
           nctime           4
           ndtset           2
            ngfft          27      18      18
             nkpt           1
            nline           3
           nspden           2
           nsppol           2
            nstep          20
             nsym           1
            ntime          10
           ntypat           1
              occ      1.000000  1.000000  1.000000  1.000000  1.000000
                       1.000000  1.000000  1.000000
           occopt           2
        optforces           1
          spgroup           1
           strten1     2.1410301090E-04  1.6703659620E-04  1.6703659614E-04
                       0.0000000000E+00  7.6293957886E-12  2.3058940829E-12
           strten2     2.9869631594E-04  1.6817592261E-04  1.6817592213E-04
                       0.0000000000E+00  3.3728190320E-11  1.0618409976E-11
           toldff      1.00000000E-05
            typat      1  1
              vel1    -1.3554107311E-04 -3.5706795123E-11 -1.5145045341E-10
                       1.3554076684E-04  5.6716245188E-11  1.5574216701E-10
              vel2    -2.1632402931E-06  2.0699837953E-11  6.5750746629E-11
                       2.1632402929E-06 -2.0699854464E-11 -6.5750745669E-11
           xangst1    -1.1419008374E+00 -8.5696244069E-09 -3.5955049291E-08
                       1.1419007769E+00  1.3449973435E-08  3.6899556079E-08
           xangst2    -1.1809057147E+00 -1.7515762781E-08 -1.3163883161E-07
                       1.1809059666E+00  6.6251282585E-08  1.3443781872E-07
            xcart1    -2.1578798536E+00 -1.6194243191E-08 -6.7945196255E-08
                       2.1578797393E+00  2.5416766287E-08  6.9730055415E-08
            xcart2    -2.2315883895E+00 -3.3099994665E-08 -2.4876134020E-07
                       2.2315888656E+00  1.2519678004E-07  2.5405065929E-07
             xred1    -1.7982332113E-01 -2.0242803988E-09 -8.4931495318E-09
                       1.7982331161E-01  3.1770957859E-09  8.7162569269E-09
             xred2    -1.8596569913E-01 -4.1374993332E-09 -3.1095167524E-08
                       1.8596573880E-01  1.5649597505E-08  3.1756332411E-08
            znucl       14.00000

================================================================================


- Timing analysis has been suppressed with timopt=0



================================================================================

 Suggested references for the acknowledgment of ABINIT usage.

 The users of ABINIT have little formal obligations with respect to the ABINIT group
 (those specified in the GNU General Public License, http://www.gnu.org/copyleft/gpl.txt).
 However, it is common practice in the scientific literature,
 to acknowledge the efforts of people that have made the research possible.
 In this spirit, please find below suggested citations of work written by ABINIT developers,
 corresponding to implementations inside of ABINIT that you have used in the present run.
 Note also that it will be of great value to readers of publications presenting these results,
 to read papers enabling them to understand the theoretical formalism and details
 of the ABINIT implementation.
 For information on why they are suggested, see also http://www.abinit.org/about/?text=acknowledgments.

 [1] ABINIT : First-principles approach of materials and nanosystem properties.
 X. Gonze, B. Amadon, P.-M. Anglade, J.-M. Beuken, F. Bottin, P. Boulanger, F. Bruneval,
 D. Caliste, R. Caracas, M. Cote, T. Deutsch, L. Genovese, Ph. Ghosez, M. Giantomassi
 S. Goedecker, D.R. Hamann, P. Hermet, F. Jollet, G. Jomard, S. Leroux, M. Mancini, S. Mazevet,
 M.J.T. Oliveira, G. Onida, Y. Pouillon, T. Rangel, G.-M. Rignanese, D. Sangalli, R. Shaltaf,
 M. Torrent, M.J. Verstraete, G. Zerah, J.W. Zwanziger
 Computer Phys. Comm. 180, 2582-2615 (2009).
 Comment : the third generic paper describing the ABINIT project.
 Note that a version of this paper, that is not formatted for Computer Phys. Comm. 
 is available at http://www.abinit.org/about/ABINIT_CPC_v10.pdf .
 The licence allows the authors to put it on the Web.

 [2] A brief introduction to the ABINIT software package.
 X. Gonze, G.-M. Rignanese, M. Verstraete, J.-M. Beuken, Y. Pouillon, R. Caracas, F. Jollet,
 M. Torrent, G. Zerah, M. Mikami, Ph. Ghosez, M. Veithen, J.-Y. Raty, V. Olevano, F. Bruneval,
 L. Reining, R. Godby, G. Onida, D.R. Hamann, and D.C. Allan.
 Z. Kristallogr. 220, 558-562 (2005).
 Comment : the second generic paper describing the ABINIT project. Note that this paper
 should be cited especially if you are using the GW part of ABINIT, as several authors
 of this part are not in the list of authors of the first or third paper.
 The .pdf of the latter paper is available at http://www.abinit.org/about/zfk_0505-06_558-562.pdf.
 Note that it should not redistributed (Copyright by Oldenburg Wissenshaftverlag,
 the licence allows the authors to put it on the Web).


 And optionally :

 [3] First-principles computation of material properties : the ABINIT software project. 
 X. Gonze, J.-M. Beuken, R. Caracas, F. Detraux, M. Fuchs, G.-M. Rignanese, L. Sindic,
 M. Verstraete, G. Zerah, F. Jollet, M. Torrent, A. Roy, M. Mikami, Ph. Ghosez, J.-Y. Raty, D.C. Allan.
 Computational Materials Science 25, 478-492 (2002). http://dx.doi.org/10.1016/S0927-0256(02)00325-7
 Comment : the original paper describing the ABINIT project.

 [4] Fast radix 2, 3, 4 and 5 kernels for Fast Fourier Transformations
 on computers with overlapping multiply-add instructions.
 S. Goedecker, SIAM J. on Scientific Computing 18, 1605 (1997).
-
- Proc.   0 individual time (sec): cpu=          2.9  wall=          2.9

================================================================================

 Calculation completed.
.Delivered   13 WARNINGs and   4 COMMENTs to log file.
+Overall time at end (sec) : cpu=          2.9  wall=          2.9
