
.Version 7.9.3 of ABINIT 
.(MPI version, prepared for a x86_64_linux_gnu4.7 computer) 

.Copyright (C) 1998-2014 ABINIT group . 
 ABINIT comes with ABSOLUTELY NO WARRANTY.
 It is free software, and you are welcome to redistribute it
 under certain conditions (GNU General Public License,
 see ~abinit/COPYING or http://www.gnu.org/copyleft/gpl.txt).

 ABINIT is a project of the Universite Catholique de Louvain,
 Corning Inc. and other collaborators, see ~abinit/doc/developers/contributors.txt .
 Please read ~abinit/doc/users/acknowledgments.html for suggested
 acknowledgments of the ABINIT effort.
 For more information, see http://www.abinit.org .

.Starting date : Sat 30 Aug 2014.
- ( at 22h20 )
  
- input  file    -> t05.in
- output file    -> t05.out
- root for input  files -> t05i
- root for output files -> t05o


 DATASET    1 : space group Pm -3 m (#221); Bravais cP (primitive cubic)
================================================================================
 Values of the parameters that define the memory need for DATASET  1.
   intxc =         0  ionmov =         0    iscf =         7 xclevel =         1
  lmnmax =         6   lnmax =         6   mband =         4  mffmem =         1
P  mgfft =        30   mkmem =         1 mpssoang=         3     mpw =       752
  mqgrid =      3001   natom =         1    nfft =     27000    nkpt =         1
  nloalg =         4  nspden =         2 nspinor =         1  nsppol =         2
    nsym =        48  n1xccc =         0  ntypat =         1  occopt =         2
================================================================================
P This job should need less than                      12.367 Mbytes of memory.
  Rough estimation (10% accuracy) of disk space for files :
_ WF disk file :      0.094 Mbytes ; DEN or POT disk file :      0.414 Mbytes.
================================================================================


 DATASET    2 : space group Pm -3 m (#221); Bravais cP (primitive cubic)
================================================================================
 Values of the parameters that define the memory need for DATASET  2.
   intxc =         0  ionmov =         0    iscf =         7 xclevel =         1
  lmnmax =         6   lnmax =         6   mband =         4  mffmem =         1
P  mgfft =        30   mkmem =         1 mpssoang=         3     mpw =       752
  mqgrid =      3001   natom =         1    nfft =     27000    nkpt =         1
  nloalg =         4  nspden =         2 nspinor =         1  nsppol =         2
    nsym =        48  n1xccc =         0  ntypat =         1  occopt =         2
================================================================================
P This job should need less than                      12.367 Mbytes of memory.
  Rough estimation (10% accuracy) of disk space for files :
_ WF disk file :      0.094 Mbytes ; DEN or POT disk file :      0.414 Mbytes.
================================================================================


 DATASET    3 : space group Pm -3 m (#221); Bravais cP (primitive cubic)
================================================================================
 Values of the parameters that define the memory need for DATASET  3.
   intxc =         0  ionmov =         0    iscf =         7 xclevel =         1
  lmnmax =         6   lnmax =         6   mband =         4  mffmem =         1
P  mgfft =        30   mkmem =         1 mpssoang=         3     mpw =       752
  mqgrid =      3001   natom =         1    nfft =     27000    nkpt =         1
  nloalg =         4  nspden =         2 nspinor =         1  nsppol =         2
    nsym =        48  n1xccc =         0  ntypat =         1  occopt =         2
================================================================================
P This job should need less than                      12.367 Mbytes of memory.
  Rough estimation (10% accuracy) of disk space for files :
_ WF disk file :      0.094 Mbytes ; DEN or POT disk file :      0.414 Mbytes.
================================================================================


 DATASET    4 : space group Pm -3 m (#221); Bravais cP (primitive cubic)
================================================================================
 Values of the parameters that define the memory need for DATASET  4.
   intxc =         0  ionmov =         0    iscf =         7 xclevel =         1
  lmnmax =         6   lnmax =         6   mband =         4  mffmem =         1
P  mgfft =        30   mkmem =         1 mpssoang=         3     mpw =       752
  mqgrid =      3001   natom =         1    nfft =     27000    nkpt =         1
  nloalg =         4  nspden =         2 nspinor =         1  nsppol =         2
    nsym =        48  n1xccc =         0  ntypat =         1  occopt =         2
================================================================================
P This job should need less than                      12.367 Mbytes of memory.
  Rough estimation (10% accuracy) of disk space for files :
_ WF disk file :      0.094 Mbytes ; DEN or POT disk file :      0.414 Mbytes.
================================================================================


 DATASET    5 : space group Pm -3 m (#221); Bravais cP (primitive cubic)
================================================================================
 Values of the parameters that define the memory need for DATASET  5.
   intxc =         0  ionmov =         0    iscf =         7 xclevel =         1
  lmnmax =         6   lnmax =         6   mband =         4  mffmem =         1
P  mgfft =        30   mkmem =         1 mpssoang=         3     mpw =       752
  mqgrid =      3001   natom =         1    nfft =     27000    nkpt =         1
  nloalg =         4  nspden =         2 nspinor =         1  nsppol =         2
    nsym =        48  n1xccc =         0  ntypat =         1  occopt =         2
================================================================================
P This job should need less than                      12.367 Mbytes of memory.
  Rough estimation (10% accuracy) of disk space for files :
_ WF disk file :      0.094 Mbytes ; DEN or POT disk file :      0.414 Mbytes.
================================================================================


 DATASET    6 : space group Pm -3 m (#221); Bravais cP (primitive cubic)
================================================================================
 Values of the parameters that define the memory need for DATASET  6.
   intxc =         0  ionmov =         0    iscf =         7 xclevel =         1
  lmnmax =         6   lnmax =         6   mband =         4  mffmem =         1
P  mgfft =        30   mkmem =         1 mpssoang=         3     mpw =       752
  mqgrid =      3001   natom =         1    nfft =     27000    nkpt =         1
  nloalg =         4  nspden =         2 nspinor =         1  nsppol =         2
    nsym =        48  n1xccc =         0  ntypat =         1  occopt =         2
================================================================================
P This job should need less than                      12.367 Mbytes of memory.
  Rough estimation (10% accuracy) of disk space for files :
_ WF disk file :      0.094 Mbytes ; DEN or POT disk file :      0.414 Mbytes.
================================================================================


 DATASET    7 : space group Pm -3 m (#221); Bravais cP (primitive cubic)
================================================================================
 Values of the parameters that define the memory need for DATASET  7.
   intxc =         0  ionmov =         0    iscf =         7 xclevel =         1
  lmnmax =         6   lnmax =         6   mband =         4  mffmem =         1
P  mgfft =        30   mkmem =         1 mpssoang=         3     mpw =       752
  mqgrid =      3001   natom =         1    nfft =     27000    nkpt =         1
  nloalg =         4  nspden =         2 nspinor =         1  nsppol =         2
    nsym =        48  n1xccc =         0  ntypat =         1  occopt =         2
================================================================================
P This job should need less than                      12.367 Mbytes of memory.
  Rough estimation (10% accuracy) of disk space for files :
_ WF disk file :      0.094 Mbytes ; DEN or POT disk file :      0.414 Mbytes.
================================================================================


 DATASET    8 : space group Pm -3 m (#221); Bravais cP (primitive cubic)
================================================================================
 Values of the parameters that define the memory need for DATASET  8.
   intxc =         0  ionmov =         0    iscf =         7 xclevel =         1
  lmnmax =         6   lnmax =         6   mband =         4  mffmem =         1
P  mgfft =        30   mkmem =         1 mpssoang=         3     mpw =       752
  mqgrid =      3001   natom =         1    nfft =     27000    nkpt =         1
  nloalg =         4  nspden =         2 nspinor =         1  nsppol =         2
    nsym =        48  n1xccc =         0  ntypat =         1  occopt =         2
================================================================================
P This job should need less than                      12.367 Mbytes of memory.
  Rough estimation (10% accuracy) of disk space for files :
_ WF disk file :      0.094 Mbytes ; DEN or POT disk file :      0.414 Mbytes.
================================================================================


 DATASET    9 : space group Pm -3 m (#221); Bravais cP (primitive cubic)
================================================================================
 Values of the parameters that define the memory need for DATASET  9.
   intxc =         0  ionmov =         0    iscf =         7 xclevel =         1
  lmnmax =         6   lnmax =         6   mband =         4  mffmem =         1
P  mgfft =        30   mkmem =         1 mpssoang=         3     mpw =       752
  mqgrid =      3001   natom =         1    nfft =     27000    nkpt =         1
  nloalg =         4  nspden =         2 nspinor =         1  nsppol =         2
    nsym =        48  n1xccc =         0  ntypat =         1  occopt =         2
================================================================================
P This job should need less than                      12.367 Mbytes of memory.
  Rough estimation (10% accuracy) of disk space for files :
_ WF disk file :      0.094 Mbytes ; DEN or POT disk file :      0.414 Mbytes.
================================================================================


 DATASET   10 : space group Pm -3 m (#221); Bravais cP (primitive cubic)
================================================================================
 Values of the parameters that define the memory need for DATASET 10.
   intxc =         0  ionmov =         0    iscf =         7 xclevel =         1
  lmnmax =         6   lnmax =         6   mband =         4  mffmem =         1
P  mgfft =        30   mkmem =         1 mpssoang=         3     mpw =       752
  mqgrid =      3001   natom =         1    nfft =     27000    nkpt =         1
  nloalg =         4  nspden =         2 nspinor =         1  nsppol =         2
    nsym =        48  n1xccc =         0  ntypat =         1  occopt =         2
================================================================================
P This job should need less than                      12.367 Mbytes of memory.
  Rough estimation (10% accuracy) of disk space for files :
_ WF disk file :      0.094 Mbytes ; DEN or POT disk file :      0.414 Mbytes.
================================================================================


 DATASET   11 : space group Pm -3 m (#221); Bravais cP (primitive cubic)
================================================================================
 Values of the parameters that define the memory need for DATASET 11.
   intxc =         0  ionmov =         0    iscf =         7 xclevel =         1
  lmnmax =         6   lnmax =         6   mband =         4  mffmem =         1
P  mgfft =        30   mkmem =         1 mpssoang=         3     mpw =       752
  mqgrid =      3001   natom =         1    nfft =     27000    nkpt =         1
  nloalg =         4  nspden =         2 nspinor =         1  nsppol =         2
    nsym =        48  n1xccc =         0  ntypat =         1  occopt =         2
================================================================================
P This job should need less than                      12.367 Mbytes of memory.
  Rough estimation (10% accuracy) of disk space for files :
_ WF disk file :      0.094 Mbytes ; DEN or POT disk file :      0.414 Mbytes.
================================================================================


 DATASET   12 : space group Pm -3 m (#221); Bravais cP (primitive cubic)
================================================================================
 Values of the parameters that define the memory need for DATASET 12.
   intxc =         0  ionmov =         0    iscf =         7 xclevel =         1
  lmnmax =         6   lnmax =         6   mband =         4  mffmem =         1
P  mgfft =        30   mkmem =         1 mpssoang=         3     mpw =       752
  mqgrid =      3001   natom =         1    nfft =     27000    nkpt =         1
  nloalg =         4  nspden =         2 nspinor =         1  nsppol =         2
    nsym =        48  n1xccc =         0  ntypat =         1  occopt =         2
================================================================================
P This job should need less than                      12.367 Mbytes of memory.
  Rough estimation (10% accuracy) of disk space for files :
_ WF disk file :      0.094 Mbytes ; DEN or POT disk file :      0.414 Mbytes.
================================================================================


 DATASET   13 : space group Pm -3 m (#221); Bravais cP (primitive cubic)
================================================================================
 Values of the parameters that define the memory need for DATASET 13.
   intxc =         0  ionmov =         0    iscf =         7 xclevel =         1
  lmnmax =         6   lnmax =         6   mband =         4  mffmem =         1
P  mgfft =        30   mkmem =         1 mpssoang=         3     mpw =       752
  mqgrid =      3001   natom =         1    nfft =     27000    nkpt =         1
  nloalg =         4  nspden =         2 nspinor =         1  nsppol =         2
    nsym =        48  n1xccc =         0  ntypat =         1  occopt =         2
================================================================================
P This job should need less than                      12.367 Mbytes of memory.
  Rough estimation (10% accuracy) of disk space for files :
_ WF disk file :      0.094 Mbytes ; DEN or POT disk file :      0.414 Mbytes.
================================================================================


 DATASET   14 : space group Pm -3 m (#221); Bravais cP (primitive cubic)
================================================================================
 Values of the parameters that define the memory need for DATASET 14.
   intxc =         0  ionmov =         0    iscf =         7 xclevel =         1
  lmnmax =         6   lnmax =         6   mband =         4  mffmem =         1
P  mgfft =        30   mkmem =         1 mpssoang=         3     mpw =       752
  mqgrid =      3001   natom =         1    nfft =     27000    nkpt =         1
  nloalg =         4  nspden =         2 nspinor =         1  nsppol =         2
    nsym =        48  n1xccc =         0  ntypat =         1  occopt =         2
================================================================================
P This job should need less than                      12.367 Mbytes of memory.
  Rough estimation (10% accuracy) of disk space for files :
_ WF disk file :      0.094 Mbytes ; DEN or POT disk file :      0.414 Mbytes.
================================================================================


 DATASET   15 : space group Pm -3 m (#221); Bravais cP (primitive cubic)
================================================================================
 Values of the parameters that define the memory need for DATASET 15.
   intxc =         0  ionmov =         0    iscf =         7 xclevel =         1
  lmnmax =         6   lnmax =         6   mband =         4  mffmem =         1
P  mgfft =        30   mkmem =         1 mpssoang=         3     mpw =       752
  mqgrid =      3001   natom =         1    nfft =     27000    nkpt =         1
  nloalg =         4  nspden =         2 nspinor =         1  nsppol =         2
    nsym =        48  n1xccc =         0  ntypat =         1  occopt =         2
================================================================================
P This job should need less than                      12.367 Mbytes of memory.
  Rough estimation (10% accuracy) of disk space for files :
_ WF disk file :      0.094 Mbytes ; DEN or POT disk file :      0.414 Mbytes.
================================================================================


 DATASET   16 : space group Pm -3 m (#221); Bravais cP (primitive cubic)
================================================================================
 Values of the parameters that define the memory need for DATASET 16.
   intxc =         0  ionmov =         0    iscf =         7 xclevel =         2
  lmnmax =         6   lnmax =         6   mband =         4  mffmem =         1
P  mgfft =        30   mkmem =         1 mpssoang=         3     mpw =       752
  mqgrid =      3001   natom =         1    nfft =     27000    nkpt =         1
  nloalg =         4  nspden =         2 nspinor =         1  nsppol =         2
    nsym =        48  n1xccc =         0  ntypat =         1  occopt =         2
================================================================================
P This job should need less than                      14.531 Mbytes of memory.
  Rough estimation (10% accuracy) of disk space for files :
_ WF disk file :      0.094 Mbytes ; DEN or POT disk file :      0.414 Mbytes.
================================================================================


 DATASET   17 : space group Pm -3 m (#221); Bravais cP (primitive cubic)
================================================================================
 Values of the parameters that define the memory need for DATASET 17.
   intxc =         0  ionmov =         0    iscf =         7 xclevel =         2
  lmnmax =         6   lnmax =         6   mband =         4  mffmem =         1
P  mgfft =        30   mkmem =         1 mpssoang=         3     mpw =       752
  mqgrid =      3001   natom =         1    nfft =     27000    nkpt =         1
  nloalg =         4  nspden =         2 nspinor =         1  nsppol =         2
    nsym =        48  n1xccc =         0  ntypat =         1  occopt =         2
================================================================================
P This job should need less than                      14.531 Mbytes of memory.
  Rough estimation (10% accuracy) of disk space for files :
_ WF disk file :      0.094 Mbytes ; DEN or POT disk file :      0.414 Mbytes.
================================================================================


 DATASET   18 : space group Pm -3 m (#221); Bravais cP (primitive cubic)
================================================================================
 Values of the parameters that define the memory need for DATASET 18.
   intxc =         0  ionmov =         0    iscf =         7 xclevel =         2
  lmnmax =         6   lnmax =         6   mband =         4  mffmem =         1
P  mgfft =        30   mkmem =         1 mpssoang=         3     mpw =       752
  mqgrid =      3001   natom =         1    nfft =     27000    nkpt =         1
  nloalg =         4  nspden =         2 nspinor =         1  nsppol =         2
    nsym =        48  n1xccc =         0  ntypat =         1  occopt =         2
================================================================================
P This job should need less than                      14.531 Mbytes of memory.
  Rough estimation (10% accuracy) of disk space for files :
_ WF disk file :      0.094 Mbytes ; DEN or POT disk file :      0.414 Mbytes.
================================================================================


 DATASET   19 : space group Pm -3 m (#221); Bravais cP (primitive cubic)
================================================================================
 Values of the parameters that define the memory need for DATASET 19.
   intxc =         0  ionmov =         0    iscf =         7 xclevel =         2
  lmnmax =         6   lnmax =         6   mband =         4  mffmem =         1
P  mgfft =        30   mkmem =         1 mpssoang=         3     mpw =       752
  mqgrid =      3001   natom =         1    nfft =     27000    nkpt =         1
  nloalg =         4  nspden =         2 nspinor =         1  nsppol =         2
    nsym =        48  n1xccc =         0  ntypat =         1  occopt =         2
================================================================================
P This job should need less than                      14.531 Mbytes of memory.
  Rough estimation (10% accuracy) of disk space for files :
_ WF disk file :      0.094 Mbytes ; DEN or POT disk file :      0.414 Mbytes.
================================================================================


 DATASET   20 : space group Pm -3 m (#221); Bravais cP (primitive cubic)
================================================================================
 Values of the parameters that define the memory need for DATASET 20.
   intxc =         0  ionmov =         0    iscf =         7 xclevel =         2
  lmnmax =         6   lnmax =         6   mband =         4  mffmem =         1
P  mgfft =        30   mkmem =         1 mpssoang=         3     mpw =       752
  mqgrid =      3001   natom =         1    nfft =     27000    nkpt =         1
  nloalg =         4  nspden =         2 nspinor =         1  nsppol =         2
    nsym =        48  n1xccc =         0  ntypat =         1  occopt =         2
================================================================================
P This job should need less than                      14.531 Mbytes of memory.
  Rough estimation (10% accuracy) of disk space for files :
_ WF disk file :      0.094 Mbytes ; DEN or POT disk file :      0.414 Mbytes.
================================================================================


 DATASET   21 : space group Pm -3 m (#221); Bravais cP (primitive cubic)
================================================================================
 Values of the parameters that define the memory need for DATASET 21.
   intxc =         0  ionmov =         0    iscf =         7 xclevel =         2
  lmnmax =         6   lnmax =         6   mband =         4  mffmem =         1
P  mgfft =        30   mkmem =         1 mpssoang=         3     mpw =       752
  mqgrid =      3001   natom =         1    nfft =     27000    nkpt =         1
  nloalg =         4  nspden =         2 nspinor =         1  nsppol =         2
    nsym =        48  n1xccc =         0  ntypat =         1  occopt =         2
================================================================================
P This job should need less than                      14.531 Mbytes of memory.
  Rough estimation (10% accuracy) of disk space for files :
_ WF disk file :      0.094 Mbytes ; DEN or POT disk file :      0.414 Mbytes.
================================================================================


 DATASET   22 : space group Pm -3 m (#221); Bravais cP (primitive cubic)
================================================================================
 Values of the parameters that define the memory need for DATASET 22.
   intxc =         0  ionmov =         0    iscf =         7 xclevel =         2
  lmnmax =         6   lnmax =         6   mband =         4  mffmem =         1
P  mgfft =        30   mkmem =         1 mpssoang=         3     mpw =       752
  mqgrid =      3001   natom =         1    nfft =     27000    nkpt =         1
  nloalg =         4  nspden =         2 nspinor =         1  nsppol =         2
    nsym =        48  n1xccc =         0  ntypat =         1  occopt =         2
================================================================================
P This job should need less than                      14.531 Mbytes of memory.
  Rough estimation (10% accuracy) of disk space for files :
_ WF disk file :      0.094 Mbytes ; DEN or POT disk file :      0.414 Mbytes.
================================================================================


 DATASET   23 : space group Pm -3 m (#221); Bravais cP (primitive cubic)
================================================================================
 Values of the parameters that define the memory need for DATASET 23.
   intxc =         0  ionmov =         0    iscf =         7 xclevel =         2
  lmnmax =         6   lnmax =         6   mband =         4  mffmem =         1
P  mgfft =        30   mkmem =         1 mpssoang=         3     mpw =       752
  mqgrid =      3001   natom =         1    nfft =     27000    nkpt =         1
  nloalg =         4  nspden =         2 nspinor =         1  nsppol =         2
    nsym =        48  n1xccc =         0  ntypat =         1  occopt =         2
================================================================================
P This job should need less than                      14.531 Mbytes of memory.
  Rough estimation (10% accuracy) of disk space for files :
_ WF disk file :      0.094 Mbytes ; DEN or POT disk file :      0.414 Mbytes.
================================================================================


 DATASET   24 : space group Pm -3 m (#221); Bravais cP (primitive cubic)
================================================================================
 Values of the parameters that define the memory need for DATASET 24.
   intxc =         0  ionmov =         0    iscf =         7 xclevel =         2
  lmnmax =         6   lnmax =         6   mband =         4  mffmem =         1
P  mgfft =        30   mkmem =         1 mpssoang=         3     mpw =       752
  mqgrid =      3001   natom =         1    nfft =     27000    nkpt =         1
  nloalg =         4  nspden =         2 nspinor =         1  nsppol =         2
    nsym =        48  n1xccc =         0  ntypat =         1  occopt =         2
================================================================================
P This job should need less than                      14.531 Mbytes of memory.
  Rough estimation (10% accuracy) of disk space for files :
_ WF disk file :      0.094 Mbytes ; DEN or POT disk file :      0.414 Mbytes.
================================================================================


 DATASET   25 : space group Pm -3 m (#221); Bravais cP (primitive cubic)
================================================================================
 Values of the parameters that define the memory need for DATASET 25.
   intxc =         0  ionmov =         0    iscf =         7 xclevel =         2
  lmnmax =         6   lnmax =         6   mband =         4  mffmem =         1
P  mgfft =        30   mkmem =         1 mpssoang=         3     mpw =       752
  mqgrid =      3001   natom =         1    nfft =     27000    nkpt =         1
  nloalg =         4  nspden =         2 nspinor =         1  nsppol =         2
    nsym =        48  n1xccc =         0  ntypat =         1  occopt =         2
================================================================================
P This job should need less than                      14.531 Mbytes of memory.
  Rough estimation (10% accuracy) of disk space for files :
_ WF disk file :      0.094 Mbytes ; DEN or POT disk file :      0.414 Mbytes.
================================================================================


 DATASET   26 : space group Pm -3 m (#221); Bravais cP (primitive cubic)
================================================================================
 Values of the parameters that define the memory need for DATASET 26.
   intxc =         0  ionmov =         0    iscf =         7 xclevel =         2
  lmnmax =         6   lnmax =         6   mband =         4  mffmem =         1
P  mgfft =        30   mkmem =         1 mpssoang=         3     mpw =       752
  mqgrid =      3001   natom =         1    nfft =     27000    nkpt =         1
  nloalg =         4  nspden =         2 nspinor =         1  nsppol =         2
    nsym =        48  n1xccc =         0  ntypat =         1  occopt =         2
================================================================================
P This job should need less than                      14.531 Mbytes of memory.
  Rough estimation (10% accuracy) of disk space for files :
_ WF disk file :      0.094 Mbytes ; DEN or POT disk file :      0.414 Mbytes.
================================================================================


 DATASET   27 : space group Pm -3 m (#221); Bravais cP (primitive cubic)
================================================================================
 Values of the parameters that define the memory need for DATASET 27.
   intxc =         0  ionmov =         0    iscf =         7 xclevel =         2
  lmnmax =         6   lnmax =         6   mband =         4  mffmem =         1
P  mgfft =        30   mkmem =         1 mpssoang=         3     mpw =       752
  mqgrid =      3001   natom =         1    nfft =     27000    nkpt =         1
  nloalg =         4  nspden =         2 nspinor =         1  nsppol =         2
    nsym =        48  n1xccc =         0  ntypat =         1  occopt =         2
================================================================================
P This job should need less than                      14.531 Mbytes of memory.
  Rough estimation (10% accuracy) of disk space for files :
_ WF disk file :      0.094 Mbytes ; DEN or POT disk file :      0.414 Mbytes.
================================================================================


 DATASET   28 : space group Pm -3 m (#221); Bravais cP (primitive cubic)
================================================================================
 Values of the parameters that define the memory need for DATASET 28.
   intxc =         0  ionmov =         0    iscf =         7 xclevel =         2
  lmnmax =         6   lnmax =         6   mband =         4  mffmem =         1
P  mgfft =        30   mkmem =         1 mpssoang=         3     mpw =       752
  mqgrid =      3001   natom =         1    nfft =     27000    nkpt =         1
  nloalg =         4  nspden =         2 nspinor =         1  nsppol =         2
    nsym =        48  n1xccc =         0  ntypat =         1  occopt =         2
================================================================================
P This job should need less than                      14.531 Mbytes of memory.
  Rough estimation (10% accuracy) of disk space for files :
_ WF disk file :      0.094 Mbytes ; DEN or POT disk file :      0.414 Mbytes.
================================================================================


 DATASET   29 : space group Pm -3 m (#221); Bravais cP (primitive cubic)
================================================================================
 Values of the parameters that define the memory need for DATASET 29.
   intxc =         0  ionmov =         0    iscf =         7 xclevel =         2
  lmnmax =         6   lnmax =         6   mband =         4  mffmem =         1
P  mgfft =        30   mkmem =         1 mpssoang=         3     mpw =       752
  mqgrid =      3001   natom =         1    nfft =     27000    nkpt =         1
  nloalg =         4  nspden =         2 nspinor =         1  nsppol =         2
    nsym =        48  n1xccc =         0  ntypat =         1  occopt =         2
================================================================================
P This job should need less than                      14.531 Mbytes of memory.
  Rough estimation (10% accuracy) of disk space for files :
_ WF disk file :      0.094 Mbytes ; DEN or POT disk file :      0.414 Mbytes.
================================================================================


 DATASET   30 : space group Pm -3 m (#221); Bravais cP (primitive cubic)
================================================================================
 Values of the parameters that define the memory need for DATASET 30.
   intxc =         0  ionmov =         0    iscf =         7 xclevel =         2
  lmnmax =         6   lnmax =         6   mband =         4  mffmem =         1
P  mgfft =        30   mkmem =         1 mpssoang=         3     mpw =       752
  mqgrid =      3001   natom =         1    nfft =     27000    nkpt =         1
  nloalg =         4  nspden =         2 nspinor =         1  nsppol =         2
    nsym =        48  n1xccc =         0  ntypat =         1  occopt =         2
================================================================================
P This job should need less than                      14.531 Mbytes of memory.
  Rough estimation (10% accuracy) of disk space for files :
_ WF disk file :      0.094 Mbytes ; DEN or POT disk file :      0.414 Mbytes.
================================================================================


 DATASET   31 : space group Pm -3 m (#221); Bravais cP (primitive cubic)
================================================================================
 Values of the parameters that define the memory need for DATASET 31.
   intxc =         0  ionmov =         0    iscf =         7 xclevel =         2
  lmnmax =         6   lnmax =         6   mband =         4  mffmem =         1
P  mgfft =        30   mkmem =         1 mpssoang=         3     mpw =       752
  mqgrid =      3001   natom =         1    nfft =     27000    nkpt =         1
  nloalg =         4  nspden =         2 nspinor =         1  nsppol =         2
    nsym =        48  n1xccc =         0  ntypat =         1  occopt =         2
================================================================================
P This job should need less than                      14.531 Mbytes of memory.
  Rough estimation (10% accuracy) of disk space for files :
_ WF disk file :      0.094 Mbytes ; DEN or POT disk file :      0.414 Mbytes.
================================================================================


 DATASET   32 : space group Pm -3 m (#221); Bravais cP (primitive cubic)
================================================================================
 Values of the parameters that define the memory need for DATASET 32.
   intxc =         0  ionmov =         0    iscf =         7 xclevel =         2
  lmnmax =         6   lnmax =         6   mband =         4  mffmem =         1
P  mgfft =        30   mkmem =         1 mpssoang=         3     mpw =       752
  mqgrid =      3001   natom =         1    nfft =     27000    nkpt =         1
  nloalg =         4  nspden =         2 nspinor =         1  nsppol =         2
    nsym =        48  n1xccc =         0  ntypat =         1  occopt =         2
================================================================================
P This job should need less than                      14.531 Mbytes of memory.
  Rough estimation (10% accuracy) of disk space for files :
_ WF disk file :      0.094 Mbytes ; DEN or POT disk file :      0.414 Mbytes.
================================================================================


 DATASET   33 : space group Pm -3 m (#221); Bravais cP (primitive cubic)
================================================================================
 Values of the parameters that define the memory need for DATASET 33.
   intxc =         0  ionmov =         0    iscf =         7 xclevel =         2
  lmnmax =         6   lnmax =         6   mband =         4  mffmem =         1
P  mgfft =        30   mkmem =         1 mpssoang=         3     mpw =       752
  mqgrid =      3001   natom =         1    nfft =     27000    nkpt =         1
  nloalg =         4  nspden =         2 nspinor =         1  nsppol =         2
    nsym =        48  n1xccc =         0  ntypat =         1  occopt =         2
================================================================================
P This job should need less than                      14.531 Mbytes of memory.
  Rough estimation (10% accuracy) of disk space for files :
_ WF disk file :      0.094 Mbytes ; DEN or POT disk file :      0.414 Mbytes.
================================================================================


 DATASET   34 : space group Pm -3 m (#221); Bravais cP (primitive cubic)
================================================================================
 Values of the parameters that define the memory need for DATASET 34.
   intxc =         0  ionmov =         0    iscf =         7 xclevel =         2
  lmnmax =         6   lnmax =         6   mband =         4  mffmem =         1
P  mgfft =        30   mkmem =         1 mpssoang=         3     mpw =       752
  mqgrid =      3001   natom =         1    nfft =     27000    nkpt =         1
  nloalg =         4  nspden =         2 nspinor =         1  nsppol =         2
    nsym =        48  n1xccc =         0  ntypat =         1  occopt =         2
================================================================================
P This job should need less than                      14.531 Mbytes of memory.
  Rough estimation (10% accuracy) of disk space for files :
_ WF disk file :      0.094 Mbytes ; DEN or POT disk file :      0.414 Mbytes.
================================================================================


 DATASET   35 : space group Pm -3 m (#221); Bravais cP (primitive cubic)
================================================================================
 Values of the parameters that define the memory need for DATASET 35.
   intxc =         0  ionmov =         0    iscf =         7 xclevel =         2
  lmnmax =         6   lnmax =         6   mband =         4  mffmem =         1
P  mgfft =        30   mkmem =         1 mpssoang=         3     mpw =       752
  mqgrid =      3001   natom =         1    nfft =     27000    nkpt =         1
  nloalg =         4  nspden =         2 nspinor =         1  nsppol =         2
    nsym =        48  n1xccc =         0  ntypat =         1  occopt =         2
================================================================================
P This job should need less than                      14.531 Mbytes of memory.
  Rough estimation (10% accuracy) of disk space for files :
_ WF disk file :      0.094 Mbytes ; DEN or POT disk file :      0.414 Mbytes.
================================================================================


 DATASET   36 : space group Pm -3 m (#221); Bravais cP (primitive cubic)
================================================================================
 Values of the parameters that define the memory need for DATASET 36.
   intxc =         0  ionmov =         0    iscf =         7 xclevel =         2
  lmnmax =         6   lnmax =         6   mband =         4  mffmem =         1
P  mgfft =        30   mkmem =         1 mpssoang=         3     mpw =       752
  mqgrid =      3001   natom =         1    nfft =     27000    nkpt =         1
  nloalg =         4  nspden =         2 nspinor =         1  nsppol =         2
    nsym =        48  n1xccc =         0  ntypat =         1  occopt =         2
================================================================================
P This job should need less than                      14.531 Mbytes of memory.
  Rough estimation (10% accuracy) of disk space for files :
_ WF disk file :      0.094 Mbytes ; DEN or POT disk file :      0.414 Mbytes.
================================================================================


 DATASET   37 : space group Pm -3 m (#221); Bravais cP (primitive cubic)
================================================================================
 Values of the parameters that define the memory need for DATASET 37.
   intxc =         0  ionmov =         0    iscf =         7 xclevel =         2
  lmnmax =         6   lnmax =         6   mband =         4  mffmem =         1
P  mgfft =        30   mkmem =         1 mpssoang=         3     mpw =       752
  mqgrid =      3001   natom =         1    nfft =     27000    nkpt =         1
  nloalg =         4  nspden =         2 nspinor =         1  nsppol =         2
    nsym =        48  n1xccc =         0  ntypat =         1  occopt =         2
================================================================================
P This job should need less than                      14.531 Mbytes of memory.
  Rough estimation (10% accuracy) of disk space for files :
_ WF disk file :      0.094 Mbytes ; DEN or POT disk file :      0.414 Mbytes.
================================================================================


 DATASET   38 : space group Pm -3 m (#221); Bravais cP (primitive cubic)
================================================================================
 Values of the parameters that define the memory need for DATASET 38.
   intxc =         0  ionmov =         0    iscf =         7 xclevel =         2
  lmnmax =         6   lnmax =         6   mband =         4  mffmem =         1
P  mgfft =        30   mkmem =         1 mpssoang=         3     mpw =       752
  mqgrid =      3001   natom =         1    nfft =     27000    nkpt =         1
  nloalg =         4  nspden =         2 nspinor =         1  nsppol =         2
    nsym =        48  n1xccc =         0  ntypat =         1  occopt =         2
================================================================================
P This job should need less than                      14.531 Mbytes of memory.
  Rough estimation (10% accuracy) of disk space for files :
_ WF disk file :      0.094 Mbytes ; DEN or POT disk file :      0.414 Mbytes.
================================================================================


 DATASET   39 : space group Pm -3 m (#221); Bravais cP (primitive cubic)
================================================================================
 Values of the parameters that define the memory need for DATASET 39.
   intxc =         0  ionmov =         0    iscf =         7 xclevel =         2
  lmnmax =         6   lnmax =         6   mband =         4  mffmem =         1
P  mgfft =        30   mkmem =         1 mpssoang=         3     mpw =       752
  mqgrid =      3001   natom =         1    nfft =     27000    nkpt =         1
  nloalg =         4  nspden =         2 nspinor =         1  nsppol =         2
    nsym =        48  n1xccc =         0  ntypat =         1  occopt =         2
================================================================================
P This job should need less than                      14.531 Mbytes of memory.
  Rough estimation (10% accuracy) of disk space for files :
_ WF disk file :      0.094 Mbytes ; DEN or POT disk file :      0.414 Mbytes.
================================================================================


 DATASET   40 : space group Pm -3 m (#221); Bravais cP (primitive cubic)
================================================================================
 Values of the parameters that define the memory need for DATASET 40.
   intxc =         0  ionmov =         0    iscf =         7 xclevel =         2
  lmnmax =         6   lnmax =         6   mband =         4  mffmem =         1
P  mgfft =        30   mkmem =         1 mpssoang=         3     mpw =       752
  mqgrid =      3001   natom =         1    nfft =     27000    nkpt =         1
  nloalg =         4  nspden =         2 nspinor =         1  nsppol =         2
    nsym =        48  n1xccc =         0  ntypat =         1  occopt =         2
================================================================================
P This job should need less than                      14.531 Mbytes of memory.
  Rough estimation (10% accuracy) of disk space for files :
_ WF disk file :      0.094 Mbytes ; DEN or POT disk file :      0.414 Mbytes.
================================================================================


 DATASET   41 : space group Pm -3 m (#221); Bravais cP (primitive cubic)
================================================================================
 Values of the parameters that define the memory need for DATASET 41.
   intxc =         0  ionmov =         0    iscf =         7 xclevel =         2
  lmnmax =         6   lnmax =         6   mband =         4  mffmem =         1
P  mgfft =        30   mkmem =         1 mpssoang=         3     mpw =       752
  mqgrid =      3001   natom =         1    nfft =     27000    nkpt =         1
  nloalg =         4  nspden =         2 nspinor =         1  nsppol =         2
    nsym =        48  n1xccc =         0  ntypat =         1  occopt =         2
================================================================================
P This job should need less than                      14.531 Mbytes of memory.
  Rough estimation (10% accuracy) of disk space for files :
_ WF disk file :      0.094 Mbytes ; DEN or POT disk file :      0.414 Mbytes.
================================================================================


 DATASET   42 : space group Pm -3 m (#221); Bravais cP (primitive cubic)
================================================================================
 Values of the parameters that define the memory need for DATASET 42.
   intxc =         0  ionmov =         0    iscf =         7 xclevel =         2
  lmnmax =         6   lnmax =         6   mband =         4  mffmem =         1
P  mgfft =        30   mkmem =         1 mpssoang=         3     mpw =       752
  mqgrid =      3001   natom =         1    nfft =     27000    nkpt =         1
  nloalg =         4  nspden =         2 nspinor =         1  nsppol =         2
    nsym =        48  n1xccc =         0  ntypat =         1  occopt =         2
================================================================================
P This job should need less than                      14.531 Mbytes of memory.
  Rough estimation (10% accuracy) of disk space for files :
_ WF disk file :      0.094 Mbytes ; DEN or POT disk file :      0.414 Mbytes.
================================================================================


 DATASET   43 : space group Pm -3 m (#221); Bravais cP (primitive cubic)
================================================================================
 Values of the parameters that define the memory need for DATASET 43.
   intxc =         0  ionmov =         0    iscf =         7 xclevel =         2
  lmnmax =         6   lnmax =         6   mband =         4  mffmem =         1
P  mgfft =        30   mkmem =         1 mpssoang=         3     mpw =       752
  mqgrid =      3001   natom =         1    nfft =     27000    nkpt =         1
  nloalg =         4  nspden =         2 nspinor =         1  nsppol =         2
    nsym =        48  n1xccc =         0  ntypat =         1  occopt =         2
================================================================================
P This job should need less than                      14.531 Mbytes of memory.
  Rough estimation (10% accuracy) of disk space for files :
_ WF disk file :      0.094 Mbytes ; DEN or POT disk file :      0.414 Mbytes.
================================================================================


 DATASET   44 : space group Pm -3 m (#221); Bravais cP (primitive cubic)
================================================================================
 Values of the parameters that define the memory need for DATASET 44.
   intxc =         0  ionmov =         0    iscf =         7 xclevel =         2
  lmnmax =         6   lnmax =         6   mband =         4  mffmem =         1
P  mgfft =        30   mkmem =         1 mpssoang=         3     mpw =       752
  mqgrid =      3001   natom =         1    nfft =     27000    nkpt =         1
  nloalg =         4  nspden =         2 nspinor =         1  nsppol =         2
    nsym =        48  n1xccc =         0  ntypat =         1  occopt =         2
================================================================================
P This job should need less than                      14.531 Mbytes of memory.
  Rough estimation (10% accuracy) of disk space for files :
_ WF disk file :      0.094 Mbytes ; DEN or POT disk file :      0.414 Mbytes.
================================================================================


 DATASET   45 : space group Pm -3 m (#221); Bravais cP (primitive cubic)
================================================================================
 Values of the parameters that define the memory need for DATASET 45.
   intxc =         0  ionmov =         0    iscf =         7 xclevel =         2
  lmnmax =         6   lnmax =         6   mband =         4  mffmem =         1
P  mgfft =        30   mkmem =         1 mpssoang=         3     mpw =       752
  mqgrid =      3001   natom =         1    nfft =     27000    nkpt =         1
  nloalg =         4  nspden =         2 nspinor =         1  nsppol =         2
    nsym =        48  n1xccc =         0  ntypat =         1  occopt =         2
================================================================================
P This job should need less than                      14.531 Mbytes of memory.
  Rough estimation (10% accuracy) of disk space for files :
_ WF disk file :      0.094 Mbytes ; DEN or POT disk file :      0.414 Mbytes.
================================================================================

--------------------------------------------------------------------------------
------------- Echo of variables that govern the present computation ------------
--------------------------------------------------------------------------------
-
- outvars: echo of selected default values                                      
-   accesswff0 =  0 , fftalg0 =112 , wfoptalg0 =  0
-
- outvars: echo of global parameters not present in the input file              
-  max_nthreads =    0
-
 -outvars: echo values of preprocessed input variables --------
            acell      1.0000000000E+01  1.0000000000E+01  1.0000000000E+01 Bohr
              amu      2.08980370E+02
           diemac      2.00000000E+00
           diemix      5.00000000E-01
             ecut      1.00000000E+01 Hartree
-          fftalg         112
           istwfk        2
              ixc1      -1002
              ixc2      -1003
              ixc3      -1004
              ixc4      -1005
              ixc5      -1006
              ixc6      -1007
              ixc7      -1008
              ixc8      -1009
              ixc9      -1010
              ixc10     -1011
              ixc11     -1012
              ixc12     -1013
              ixc13     -1014
              ixc14     -1017
              ixc15       -20
              ixc16   -106130
              ixc17   -106131
              ixc18   -106132
              ixc19   -106133
              ixc20   -106134
              ixc21   -106135
              ixc22   -106136
              ixc23   -106137
              ixc24   -101131
              ixc25   -102131
              ixc26   -103131
              ixc27   -104131
              ixc28   -105131
              ixc29   -107131
              ixc30   -108131
              ixc31   -109131
              ixc32   -110131
              ixc33   -111131
              ixc34   -112131
              ixc35   -113131
              ixc36   -114131
              ixc37   -115131
              ixc38   -116131
              ixc39   -117131
              ixc40   -118131
              ixc41   -119131
              ixc42   -120131
              ixc43   -121131
              ixc44   -122131
              ixc45   -123131
           jdtset        1    2    3    4    5    6    7    8    9   10
                        11   12   13   14   15   16   17   18   19   20
                        21   22   23   24   25   26   27   28   29   30
                        31   32   33   34   35   36   37   38   39   40
                        41   42   43   44   45
           kptopt           0
P           mkmem           1
            natom           1
            nband           4       4
           ndtset          45
            ngfft          30      30      30
             nkpt           1
            nline           1
           nspden           2
           nsppol           2
            nstep           1
             nsym          48
           ntypat           1
              occ      1.000000  1.000000  1.000000  1.000000
                       1.000000  0.000000  0.000000  0.000000
           occopt           2
           prtden           0
           prteig           0
            prtwf           0
          spgroup         221
           spinat      1.0000000000E+00  0.0000000000E+00  0.0000000000E+00
           symrel      1  0  0   0  1  0   0  0  1      -1  0  0   0 -1  0   0  0 -1
                      -1  0  0   0  1  0   0  0 -1       1  0  0   0 -1  0   0  0  1
                      -1  0  0   0 -1  0   0  0  1       1  0  0   0  1  0   0  0 -1
                       1  0  0   0 -1  0   0  0 -1      -1  0  0   0  1  0   0  0  1
                       0  1  0   1  0  0   0  0  1       0 -1  0  -1  0  0   0  0 -1
                       0 -1  0   1  0  0   0  0 -1       0  1  0  -1  0  0   0  0  1
                       0 -1  0  -1  0  0   0  0  1       0  1  0   1  0  0   0  0 -1
                       0  1  0  -1  0  0   0  0 -1       0 -1  0   1  0  0   0  0  1
                       0  0  1   1  0  0   0  1  0       0  0 -1  -1  0  0   0 -1  0
                       0  0 -1   1  0  0   0 -1  0       0  0  1  -1  0  0   0  1  0
                       0  0 -1  -1  0  0   0  1  0       0  0  1   1  0  0   0 -1  0
                       0  0  1  -1  0  0   0 -1  0       0  0 -1   1  0  0   0  1  0
                       1  0  0   0  0  1   0  1  0      -1  0  0   0  0 -1   0 -1  0
                      -1  0  0   0  0  1   0 -1  0       1  0  0   0  0 -1   0  1  0
                      -1  0  0   0  0 -1   0  1  0       1  0  0   0  0  1   0 -1  0
                       1  0  0   0  0 -1   0 -1  0      -1  0  0   0  0  1   0  1  0
                       0  1  0   0  0  1   1  0  0       0 -1  0   0  0 -1  -1  0  0
                       0 -1  0   0  0  1  -1  0  0       0  1  0   0  0 -1   1  0  0
                       0 -1  0   0  0 -1   1  0  0       0  1  0   0  0  1  -1  0  0
                       0  1  0   0  0 -1  -1  0  0       0 -1  0   0  0  1   1  0  0
                       0  0  1   0  1  0   1  0  0       0  0 -1   0 -1  0  -1  0  0
                       0  0 -1   0  1  0  -1  0  0       0  0  1   0 -1  0   1  0  0
                       0  0 -1   0 -1  0   1  0  0       0  0  1   0  1  0  -1  0  0
                       0  0  1   0 -1  0  -1  0  0       0  0 -1   0  1  0   1  0  0
           tolwfr      1.00000000E-14
            typat      1
            znucl       83.00000

================================================================================

 chkinp: Checking input parameters for consistency, jdtset=   1.

 chkinp: Checking input parameters for consistency, jdtset=   2.

 chkinp: Checking input parameters for consistency, jdtset=   3.

 chkinp: Checking input parameters for consistency, jdtset=   4.

 chkinp: Checking input parameters for consistency, jdtset=   5.

 chkinp: Checking input parameters for consistency, jdtset=   6.

 chkinp: Checking input parameters for consistency, jdtset=   7.

 chkinp: Checking input parameters for consistency, jdtset=   8.

 chkinp: Checking input parameters for consistency, jdtset=   9.

 chkinp: Checking input parameters for consistency, jdtset=  10.

 chkinp: Checking input parameters for consistency, jdtset=  11.

 chkinp: Checking input parameters for consistency, jdtset=  12.

 chkinp: Checking input parameters for consistency, jdtset=  13.

 chkinp: Checking input parameters for consistency, jdtset=  14.

 chkinp: Checking input parameters for consistency, jdtset=  15.

 chkinp: Checking input parameters for consistency, jdtset=  16.

 chkinp: Checking input parameters for consistency, jdtset=  17.

 chkinp: Checking input parameters for consistency, jdtset=  18.

 chkinp: Checking input parameters for consistency, jdtset=  19.

 chkinp: Checking input parameters for consistency, jdtset=  20.

 chkinp: Checking input parameters for consistency, jdtset=  21.

 chkinp: Checking input parameters for consistency, jdtset=  22.

 chkinp: Checking input parameters for consistency, jdtset=  23.

 chkinp: Checking input parameters for consistency, jdtset=  24.

 chkinp: Checking input parameters for consistency, jdtset=  25.

 chkinp: Checking input parameters for consistency, jdtset=  26.

 chkinp: Checking input parameters for consistency, jdtset=  27.

 chkinp: Checking input parameters for consistency, jdtset=  28.

 chkinp: Checking input parameters for consistency, jdtset=  29.

 chkinp: Checking input parameters for consistency, jdtset=  30.

 chkinp: Checking input parameters for consistency, jdtset=  31.

 chkinp: Checking input parameters for consistency, jdtset=  32.

 chkinp: Checking input parameters for consistency, jdtset=  33.

 chkinp: Checking input parameters for consistency, jdtset=  34.

 chkinp: Checking input parameters for consistency, jdtset=  35.

 chkinp: Checking input parameters for consistency, jdtset=  36.

 chkinp: Checking input parameters for consistency, jdtset=  37.

 chkinp: Checking input parameters for consistency, jdtset=  38.

 chkinp: Checking input parameters for consistency, jdtset=  39.

 chkinp: Checking input parameters for consistency, jdtset=  40.

 chkinp: Checking input parameters for consistency, jdtset=  41.

 chkinp: Checking input parameters for consistency, jdtset=  42.

 chkinp: Checking input parameters for consistency, jdtset=  43.

 chkinp: Checking input parameters for consistency, jdtset=  44.

 chkinp: Checking input parameters for consistency, jdtset=  45.

================================================================================
== DATASET  1 ==================================================================
-   nproc =    1

 Real(R)+Recip(G) space primitive vectors, cartesian coordinates (Bohr,Bohr^-1):
 R(1)= 10.0000000  0.0000000  0.0000000  G(1)=  0.1000000  0.0000000  0.0000000
 R(2)=  0.0000000 10.0000000  0.0000000  G(2)=  0.0000000  0.1000000  0.0000000
 R(3)=  0.0000000  0.0000000 10.0000000  G(3)=  0.0000000  0.0000000  0.1000000
 Unit cell volume ucvol=  1.0000000E+03 bohr^3
 Angles (23,13,12)=  9.00000000E+01  9.00000000E+01  9.00000000E+01 degrees

 getcut: wavevector=  0.0000  0.0000  0.0000  ngfft=  30  30  30
         ecut(hartree)=     10.000   => boxcut(ratio)=   2.10744

--- Pseudopotential description ------------------------------------------------
- pspini: atom type   1  psp file is /home/gonze/ABINIT/ABINITv7.9.3/trunk/7.9.3-private/tests/Psps_for_tests/83bi.psphgh
- pspatm: opening atomic psp file    /home/gonze/ABINIT/ABINITv7.9.3/trunk/7.9.3-private/tests/Psps_for_tests/83bi.psphgh
- Hartwigsen-Goedecker-Hutter psp for Bismuth,  from PRB58, 3641 (1998) paper
- 83.00000   5.00000    980509                znucl, zion, pspdat
    3    1    2    0      2001   0.00000      pspcod,pspxc,lmax,lloc,mmax,r2well
 rloc=   0.6050000
 cc1 =   6.6794370; cc2 =   0.0000000; cc3 =   0.0000000; cc4 =   0.0000000
 rrs =   0.6788580; h11s=   1.3776340; h22s=  -0.5136970; h33s=  -0.4710280
 rrp =   0.7986730; h11p=   0.6555780; h22p=  -0.4029320; h33p=   0.0000000
                    k11p=   0.3053140; k22p=  -0.0231340; k33p=   0.0000000
 rrd =   0.9346830; h11d=   0.3784760; h22d=   0.0000000; h33d=   0.0000000
                    k11d=   0.0292170; k22d=   0.0000000; k33d=   0.0000000
-  Local part computed in reciprocal space.

 pspatm : COMMENT -
  the projectors are not normalized,
  so that the KB energies are not consistent with 
  definition in PRB44, 8503 (1991). 
  However, this does not influence the results obtained hereafter.
 pspatm: epsatm=   34.79471556
         --- l  ekb(1:nproj) -->
             0   -0.901401   -0.217891    1.555038
             1   -0.989901    1.571994
             2    3.344673
 pspatm: atomic psp has been read  and splines computed

   1.73973578E+02                                ecore*ucvol(ha*bohr**3)
--------------------------------------------------------------------------------

P newkpt: treating      4 bands with npw=     752 for ikpt=   1 by node    0
P newkpt: treating      4 bands with npw=     752 for ikpt=   1 by node    0

_setup2: Arith. and geom. avg. npw (full set) are    1503.000    1503.000

================================================================================

     iter   Etot(hartree)      deltaE(h)  residm     vres2
 ETOT  1  -5.0559894143754    -5.056E+00 1.638E-01 1.727E+02

 Cartesian components of stress tensor (hartree/bohr^3)
  sigma(1 1)=  2.89708330E-04  sigma(3 2)=  0.00000000E+00
  sigma(2 2)=  2.89708330E-04  sigma(3 1)=  0.00000000E+00
  sigma(3 3)=  2.89708330E-04  sigma(2 1)=  0.00000000E+00


 scprqt:  WARNING -
  nstep=    1 was not enough SCF cycles to converge;
  maximum residual=  1.638E-01 exceeds tolwfr=  1.000E-14

================================================================================

 ----iterations are completed or convergence reached----

 Mean square residual over all n,k,spin=   1.0960E-01; max=  1.6377E-01
   0.0000  0.0000  0.0000    1  1.63770E-01 kpt; spin; max resid(k); each band:
  1.64E-01 1.02E-01 5.18E-02 1.21E-01
   0.0000  0.0000  0.0000    2  1.63770E-01 kpt; spin; max resid(k); each band:
  1.64E-01 1.02E-01 5.18E-02 1.21E-01
 reduced coordinates (array xred) for    1 atoms
       0.000000000000      0.000000000000      0.000000000000
 rms dE/dt=  0.0000E+00; max dE/dt=  0.0000E+00; dE/dt below (all hartree)
    1       0.000000000000      0.000000000000      0.000000000000

 cartesian coordinates (angstrom) at end:
    1      0.00000000000000     0.00000000000000     0.00000000000000

 cartesian forces (hartree/bohr) at end:
    1     -0.00000000000000    -0.00000000000000    -0.00000000000000
 frms,max,avg= 0.0000000E+00 0.0000000E+00   0.000E+00  0.000E+00  0.000E+00 h/b

 cartesian forces (eV/Angstrom) at end:
    1     -0.00000000000000    -0.00000000000000    -0.00000000000000
 frms,max,avg= 0.0000000E+00 0.0000000E+00   0.000E+00  0.000E+00  0.000E+00 e/A
 length scales= 10.000000000000 10.000000000000 10.000000000000 bohr
              =  5.291772085900  5.291772085900  5.291772085900 angstroms
 Fermi (or HOMO) energy (hartree) =   0.13017   Average Vxc (hartree)=  -0.16696
 Eigenvalues (hartree) for nkpt=   1  k points, SPIN UP:
 kpt#   1, nband=  4, wtk=  1.00000, kpt=  0.0000  0.0000  0.0000 (reduced coord)
  -0.43344  -0.06602  -0.05305   0.13017
 Eigenvalues (hartree) for nkpt=   1  k points, SPIN DOWN:
 kpt#   1, nband=  4, wtk=  1.00000, kpt=  0.0000  0.0000  0.0000 (reduced coord)
  -0.43344  -0.06602  -0.05305   0.13017
 Total charge density [el/Bohr^3]
,     Maximum=    3.4822E-02  at reduced coord.    0.9000    0.9000    0.9333
,Next maximum=    3.4822E-02  at reduced coord.    0.1000    0.9000    0.9333
,     Minimum=    2.0592E-04  at reduced coord.    0.5000    0.5000    0.5000
,Next minimum=    2.1439E-04  at reduced coord.    0.5000    0.5000    0.4667
,  Integrated=    5.0000E+00
 Spin up density      [el/Bohr^3]
,     Maximum=    2.1036E-02  at reduced coord.    0.8667    0.9333    0.9333
,Next maximum=    2.1036E-02  at reduced coord.    0.1333    0.9333    0.9333
,     Minimum=    2.0582E-04  at reduced coord.    0.5000    0.5000    0.5000
,Next minimum=    2.1424E-04  at reduced coord.    0.5000    0.5000    0.4667
,  Integrated=    4.0000E+00
 Spin down density    [el/Bohr^3]
,     Maximum=    1.3995E-02  at reduced coord.    0.9000    0.9000    0.9667
,Next maximum=    1.3995E-02  at reduced coord.    0.1000    0.9000    0.9667
,     Minimum=    1.0011E-07  at reduced coord.    0.5000    0.5000    0.5000
,Next minimum=    1.4982E-07  at reduced coord.    0.5000    0.5000    0.4667
,  Integrated=    1.0000E+00
 Magnetization (spin up - spin down) [el/Bohr^3]
,     Maximum=    8.9180E-03  at reduced coord.    0.8667    0.8667    0.9000
,Next maximum=    8.9180E-03  at reduced coord.    0.1333    0.8667    0.9000
,     Minimum=    2.0572E-04  at reduced coord.    0.5000    0.5000    0.5000
,Next minimum=    2.1409E-04  at reduced coord.    0.5000    0.5000    0.4667
,  Integrated=    3.0000E+00
 Relative magnetization (=zeta, between -1 and 1)
,     Maximum=    9.9903E-01  at reduced coord.    0.5000    0.5000    0.5000
,Next maximum=    9.9860E-01  at reduced coord.    0.5000    0.5000    0.5333
,     Minimum=    1.4126E-01  at reduced coord.    0.1000    0.0000    0.0000
,Next minimum=    1.4126E-01  at reduced coord.    0.9000    0.0000    0.0000

--------------------------------------------------------------------------------
 Components of total free energy (in Hartree) :

    Kinetic energy  =  1.25940426161046E+00
    Hartree energy  =  5.45825591051690E-01
    XC energy       = -1.08378584570192E+00
    Ewald energy    = -3.54662184935089E+00
    PspCore energy  =  1.73973577808835E-01
    Loc. psp. energy= -2.49089755283079E+00
    NL   psp  energy=  8.61124030371804E-02
    >>>>>>>>> Etotal= -5.05598941437544E+00

 Other information on the energy :
    Total energy(eV)= -1.37580468746667E+02 ; Band energy (Ha)=  -8.5577971231E-01
--------------------------------------------------------------------------------

 Cartesian components of stress tensor (hartree/bohr^3)
  sigma(1 1)=  2.89708330E-04  sigma(3 2)=  0.00000000E+00
  sigma(2 2)=  2.89708330E-04  sigma(3 1)=  0.00000000E+00
  sigma(3 3)=  2.89708330E-04  sigma(2 1)=  0.00000000E+00

-Cartesian components of stress tensor (GPa)         [Pressure= -8.5235E+00 GPa]
- sigma(1 1)=  8.52351190E+00  sigma(3 2)=  0.00000000E+00
- sigma(2 2)=  8.52351190E+00  sigma(3 1)=  0.00000000E+00
- sigma(3 3)=  8.52351190E+00  sigma(2 1)=  0.00000000E+00

================================================================================
== DATASET  2 ==================================================================
-   nproc =    1

 Real(R)+Recip(G) space primitive vectors, cartesian coordinates (Bohr,Bohr^-1):
 R(1)= 10.0000000  0.0000000  0.0000000  G(1)=  0.1000000  0.0000000  0.0000000
 R(2)=  0.0000000 10.0000000  0.0000000  G(2)=  0.0000000  0.1000000  0.0000000
 R(3)=  0.0000000  0.0000000 10.0000000  G(3)=  0.0000000  0.0000000  0.1000000
 Unit cell volume ucvol=  1.0000000E+03 bohr^3
 Angles (23,13,12)=  9.00000000E+01  9.00000000E+01  9.00000000E+01 degrees

 getcut: wavevector=  0.0000  0.0000  0.0000  ngfft=  30  30  30
         ecut(hartree)=     10.000   => boxcut(ratio)=   2.10744

--- Pseudopotential description ------------------------------------------------
- pspini: atom type   1  psp file is /home/gonze/ABINIT/ABINITv7.9.3/trunk/7.9.3-private/tests/Psps_for_tests/83bi.psphgh
- pspatm: opening atomic psp file    /home/gonze/ABINIT/ABINITv7.9.3/trunk/7.9.3-private/tests/Psps_for_tests/83bi.psphgh
- Hartwigsen-Goedecker-Hutter psp for Bismuth,  from PRB58, 3641 (1998) paper
- 83.00000   5.00000    980509                znucl, zion, pspdat
    3    1    2    0      2001   0.00000      pspcod,pspxc,lmax,lloc,mmax,r2well
 rloc=   0.6050000
 cc1 =   6.6794370; cc2 =   0.0000000; cc3 =   0.0000000; cc4 =   0.0000000
 rrs =   0.6788580; h11s=   1.3776340; h22s=  -0.5136970; h33s=  -0.4710280
 rrp =   0.7986730; h11p=   0.6555780; h22p=  -0.4029320; h33p=   0.0000000
                    k11p=   0.3053140; k22p=  -0.0231340; k33p=   0.0000000
 rrd =   0.9346830; h11d=   0.3784760; h22d=   0.0000000; h33d=   0.0000000
                    k11d=   0.0292170; k22d=   0.0000000; k33d=   0.0000000
-  Local part computed in reciprocal space.

 pspatm : COMMENT -
  the projectors are not normalized,
  so that the KB energies are not consistent with 
  definition in PRB44, 8503 (1991). 
  However, this does not influence the results obtained hereafter.
 pspatm: epsatm=   34.79471556
         --- l  ekb(1:nproj) -->
             0   -0.901401   -0.217891    1.555038
             1   -0.989901    1.571994
             2    3.344673
 pspatm: atomic psp has been read  and splines computed

--------------------------------------------------------------------------------

P newkpt: treating      4 bands with npw=     752 for ikpt=   1 by node    0
P newkpt: treating      4 bands with npw=     752 for ikpt=   1 by node    0

_setup2: Arith. and geom. avg. npw (full set) are    1503.000    1503.000

================================================================================

     iter   Etot(hartree)      deltaE(h)  residm     vres2
 ETOT  1  -5.0303425431670    -5.030E+00 1.574E-01 4.745E+02

 Cartesian components of stress tensor (hartree/bohr^3)
  sigma(1 1)=  3.07507341E-04  sigma(3 2)=  0.00000000E+00
  sigma(2 2)=  3.07507341E-04  sigma(3 1)=  0.00000000E+00
  sigma(3 3)=  3.07507341E-04  sigma(2 1)=  0.00000000E+00


 scprqt:  WARNING -
  nstep=    1 was not enough SCF cycles to converge;
  maximum residual=  1.574E-01 exceeds tolwfr=  1.000E-14

================================================================================

 ----iterations are completed or convergence reached----

 Mean square residual over all n,k,spin=   1.1309E-01; max=  1.5735E-01
   0.0000  0.0000  0.0000    1  1.57354E-01 kpt; spin; max resid(k); each band:
  1.57E-01 1.32E-01 7.49E-02 8.79E-02
   0.0000  0.0000  0.0000    2  1.57354E-01 kpt; spin; max resid(k); each band:
  1.57E-01 1.32E-01 7.49E-02 8.79E-02
 reduced coordinates (array xred) for    1 atoms
       0.000000000000      0.000000000000      0.000000000000
 rms dE/dt=  0.0000E+00; max dE/dt=  0.0000E+00; dE/dt below (all hartree)
    1       0.000000000000      0.000000000000      0.000000000000

 cartesian coordinates (angstrom) at end:
    1      0.00000000000000     0.00000000000000     0.00000000000000

 cartesian forces (hartree/bohr) at end:
    1     -0.00000000000000    -0.00000000000000    -0.00000000000000
 frms,max,avg= 0.0000000E+00 0.0000000E+00   0.000E+00  0.000E+00  0.000E+00 h/b

 cartesian forces (eV/Angstrom) at end:
    1     -0.00000000000000    -0.00000000000000    -0.00000000000000
 frms,max,avg= 0.0000000E+00 0.0000000E+00   0.000E+00  0.000E+00  0.000E+00 e/A
 length scales= 10.000000000000 10.000000000000 10.000000000000 bohr
              =  5.291772085900  5.291772085900  5.291772085900 angstroms
 Fermi (or HOMO) energy (hartree) =   0.14427   Average Vxc (hartree)=  -0.15632
 Eigenvalues (hartree) for nkpt=   1  k points, SPIN UP:
 kpt#   1, nband=  4, wtk=  1.00000, kpt=  0.0000  0.0000  0.0000 (reduced coord)
  -0.43932  -0.06034  -0.04686   0.14427
 Eigenvalues (hartree) for nkpt=   1  k points, SPIN DOWN:
 kpt#   1, nband=  4, wtk=  1.00000, kpt=  0.0000  0.0000  0.0000 (reduced coord)
  -0.43932  -0.06034  -0.04686   0.14427
 Total charge density [el/Bohr^3]
,     Maximum=    3.5310E-02  at reduced coord.    0.9000    0.9000    0.9333
,Next maximum=    3.5310E-02  at reduced coord.    0.1000    0.9000    0.9333
,     Minimum=    2.4061E-04  at reduced coord.    0.5000    0.5000    0.2667
,Next minimum=    2.4061E-04  at reduced coord.    0.5000    0.2667    0.5000
,  Integrated=    5.0000E+00
 Spin up density      [el/Bohr^3]
,     Maximum=    2.1476E-02  at reduced coord.    0.8667    0.9333    0.9333
,Next maximum=    2.1476E-02  at reduced coord.    0.1333    0.9333    0.9333
,     Minimum=    2.3149E-04  at reduced coord.    0.5000    0.5000    0.2667
,Next minimum=    2.3149E-04  at reduced coord.    0.5000    0.2667    0.5000
,  Integrated=    4.0000E+00
 Spin down density    [el/Bohr^3]
,     Maximum=    1.4065E-02  at reduced coord.    0.0000    0.8667    0.9333
,Next maximum=    1.4065E-02  at reduced coord.    0.0000    0.1333    0.9333
,     Minimum=    1.3309E-06  at reduced coord.    0.3667    0.3333    0.3333
,Next minimum=    1.3309E-06  at reduced coord.    0.6333    0.3333    0.3333
,  Integrated=    1.0000E+00
 Magnetization (spin up - spin down) [el/Bohr^3]
,     Maximum=    9.4479E-03  at reduced coord.    0.8667    0.8667    0.9000
,Next maximum=    9.4479E-03  at reduced coord.    0.1333    0.8667    0.9000
,     Minimum=    2.2237E-04  at reduced coord.    0.5000    0.5000    0.2667
,Next minimum=    2.2237E-04  at reduced coord.    0.5000    0.2667    0.5000
,  Integrated=    3.0000E+00
 Relative magnetization (=zeta, between -1 and 1)
,     Maximum=    9.9469E-01  at reduced coord.    0.6333    0.6667    0.6667
,Next maximum=    9.9469E-01  at reduced coord.    0.3667    0.6667    0.6667
,     Minimum=    1.4645E-01  at reduced coord.    0.1000    0.0000    0.0000
,Next minimum=    1.4645E-01  at reduced coord.    0.9000    0.0000    0.0000

--------------------------------------------------------------------------------
 Components of total free energy (in Hartree) :

    Kinetic energy  =  1.31593474181462E+00
    Hartree energy  =  6.04237322915466E-01
    XC energy       = -1.07128505772705E+00
    Ewald energy    = -3.54662184935089E+00
    PspCore energy  =  1.73973577808835E-01
    Loc. psp. energy= -2.59564853829644E+00
    NL   psp  energy=  8.90672596684495E-02
    >>>>>>>>> Etotal= -5.03034254316702E+00

 Other information on the energy :
    Total energy(eV)= -1.36882581889406E+02 ; Band energy (Ha)=  -8.4155902148E-01
--------------------------------------------------------------------------------

 Cartesian components of stress tensor (hartree/bohr^3)
  sigma(1 1)=  3.07507341E-04  sigma(3 2)=  0.00000000E+00
  sigma(2 2)=  3.07507341E-04  sigma(3 1)=  0.00000000E+00
  sigma(3 3)=  3.07507341E-04  sigma(2 1)=  0.00000000E+00

-Cartesian components of stress tensor (GPa)         [Pressure= -9.0472E+00 GPa]
- sigma(1 1)=  9.04717680E+00  sigma(3 2)=  0.00000000E+00
- sigma(2 2)=  9.04717680E+00  sigma(3 1)=  0.00000000E+00
- sigma(3 3)=  9.04717680E+00  sigma(2 1)=  0.00000000E+00

================================================================================
== DATASET  3 ==================================================================
-   nproc =    1

 Real(R)+Recip(G) space primitive vectors, cartesian coordinates (Bohr,Bohr^-1):
 R(1)= 10.0000000  0.0000000  0.0000000  G(1)=  0.1000000  0.0000000  0.0000000
 R(2)=  0.0000000 10.0000000  0.0000000  G(2)=  0.0000000  0.1000000  0.0000000
 R(3)=  0.0000000  0.0000000 10.0000000  G(3)=  0.0000000  0.0000000  0.1000000
 Unit cell volume ucvol=  1.0000000E+03 bohr^3
 Angles (23,13,12)=  9.00000000E+01  9.00000000E+01  9.00000000E+01 degrees

 getcut: wavevector=  0.0000  0.0000  0.0000  ngfft=  30  30  30
         ecut(hartree)=     10.000   => boxcut(ratio)=   2.10744

--- Pseudopotential description ------------------------------------------------
- pspini: atom type   1  psp file is /home/gonze/ABINIT/ABINITv7.9.3/trunk/7.9.3-private/tests/Psps_for_tests/83bi.psphgh
- pspatm: opening atomic psp file    /home/gonze/ABINIT/ABINITv7.9.3/trunk/7.9.3-private/tests/Psps_for_tests/83bi.psphgh
- Hartwigsen-Goedecker-Hutter psp for Bismuth,  from PRB58, 3641 (1998) paper
- 83.00000   5.00000    980509                znucl, zion, pspdat
    3    1    2    0      2001   0.00000      pspcod,pspxc,lmax,lloc,mmax,r2well
 rloc=   0.6050000
 cc1 =   6.6794370; cc2 =   0.0000000; cc3 =   0.0000000; cc4 =   0.0000000
 rrs =   0.6788580; h11s=   1.3776340; h22s=  -0.5136970; h33s=  -0.4710280
 rrp =   0.7986730; h11p=   0.6555780; h22p=  -0.4029320; h33p=   0.0000000
                    k11p=   0.3053140; k22p=  -0.0231340; k33p=   0.0000000
 rrd =   0.9346830; h11d=   0.3784760; h22d=   0.0000000; h33d=   0.0000000
                    k11d=   0.0292170; k22d=   0.0000000; k33d=   0.0000000
-  Local part computed in reciprocal space.

 pspatm : COMMENT -
  the projectors are not normalized,
  so that the KB energies are not consistent with 
  definition in PRB44, 8503 (1991). 
  However, this does not influence the results obtained hereafter.
 pspatm: epsatm=   34.79471556
         --- l  ekb(1:nproj) -->
             0   -0.901401   -0.217891    1.555038
             1   -0.989901    1.571994
             2    3.344673
 pspatm: atomic psp has been read  and splines computed

--------------------------------------------------------------------------------

P newkpt: treating      4 bands with npw=     752 for ikpt=   1 by node    0
P newkpt: treating      4 bands with npw=     752 for ikpt=   1 by node    0

_setup2: Arith. and geom. avg. npw (full set) are    1503.000    1503.000

================================================================================

     iter   Etot(hartree)      deltaE(h)  residm     vres2
 ETOT  1  -5.0653626293893    -5.065E+00 1.638E-01 1.615E+02

 Cartesian components of stress tensor (hartree/bohr^3)
  sigma(1 1)=  2.94117217E-04  sigma(3 2)=  0.00000000E+00
  sigma(2 2)=  2.94117217E-04  sigma(3 1)=  0.00000000E+00
  sigma(3 3)=  2.94117217E-04  sigma(2 1)=  0.00000000E+00


 scprqt:  WARNING -
  nstep=    1 was not enough SCF cycles to converge;
  maximum residual=  1.638E-01 exceeds tolwfr=  1.000E-14

================================================================================

 ----iterations are completed or convergence reached----

 Mean square residual over all n,k,spin=   1.1000E-01; max=  1.6379E-01
   0.0000  0.0000  0.0000    1  1.63794E-01 kpt; spin; max resid(k); each band:
  1.64E-01 1.06E-01 5.21E-02 1.18E-01
   0.0000  0.0000  0.0000    2  1.63794E-01 kpt; spin; max resid(k); each band:
  1.64E-01 1.06E-01 5.21E-02 1.18E-01
 reduced coordinates (array xred) for    1 atoms
       0.000000000000      0.000000000000      0.000000000000
 rms dE/dt=  0.0000E+00; max dE/dt=  0.0000E+00; dE/dt below (all hartree)
    1       0.000000000000      0.000000000000      0.000000000000

 cartesian coordinates (angstrom) at end:
    1      0.00000000000000     0.00000000000000     0.00000000000000

 cartesian forces (hartree/bohr) at end:
    1     -0.00000000000000    -0.00000000000000    -0.00000000000000
 frms,max,avg= 0.0000000E+00 0.0000000E+00   0.000E+00  0.000E+00  0.000E+00 h/b

 cartesian forces (eV/Angstrom) at end:
    1     -0.00000000000000    -0.00000000000000    -0.00000000000000
 frms,max,avg= 0.0000000E+00 0.0000000E+00   0.000E+00  0.000E+00  0.000E+00 e/A
 length scales= 10.000000000000 10.000000000000 10.000000000000 bohr
              =  5.291772085900  5.291772085900  5.291772085900 angstroms
 Fermi (or HOMO) energy (hartree) =   0.13127   Average Vxc (hartree)=  -0.16593
 Eigenvalues (hartree) for nkpt=   1  k points, SPIN UP:
 kpt#   1, nband=  4, wtk=  1.00000, kpt=  0.0000  0.0000  0.0000 (reduced coord)
  -0.44020  -0.06997  -0.05626   0.13127
 Eigenvalues (hartree) for nkpt=   1  k points, SPIN DOWN:
 kpt#   1, nband=  4, wtk=  1.00000, kpt=  0.0000  0.0000  0.0000 (reduced coord)
  -0.44020  -0.06997  -0.05626   0.13127
 Total charge density [el/Bohr^3]
,     Maximum=    3.5100E-02  at reduced coord.    0.9000    0.9000    0.9333
,Next maximum=    3.5100E-02  at reduced coord.    0.1000    0.9000    0.9333
,     Minimum=    1.9019E-04  at reduced coord.    0.5000    0.5000    0.5000
,Next minimum=    1.9834E-04  at reduced coord.    0.5000    0.5000    0.4667
,  Integrated=    5.0000E+00
 Spin up density      [el/Bohr^3]
,     Maximum=    2.1249E-02  at reduced coord.    0.8667    0.9333    0.9333
[...]
           etotal19   -5.0637781481E+00
           etotal20   -5.0540658957E+00
           etotal21   -5.0886308755E+00
           etotal22   -5.0463479464E+00
           etotal23   -4.5717311606E+00
           etotal24   -4.9684207113E+00
           etotal25   -4.9751393692E+00
           etotal26   -4.9744395379E+00
           etotal27   -4.5789078849E+00
           etotal28   -4.9776571084E+00
           etotal29   -5.0021137507E+00
           etotal30   -4.9787703422E+00
           etotal31   -4.9606349812E+00
           etotal32   -4.9977296675E+00
           etotal33   -4.9863105697E+00
           etotal34   -4.9856087301E+00
           etotal35   -4.9730592156E+00
           etotal36   -4.9902682461E+00
           etotal37   -4.9899826316E+00
           etotal38   -4.9478046887E+00
           etotal39   -4.9715008623E+00
           etotal40   -4.9623889376E+00
           etotal41   -4.9713375120E+00
           etotal42   -4.9298239407E+00
           etotal43   -4.9651600304E+00
           etotal44   -4.9694034398E+00
           etotal45   -4.9730279081E+00
            fcart1    -0.0000000000E+00 -0.0000000000E+00 -0.0000000000E+00
            fcart2    -0.0000000000E+00 -0.0000000000E+00 -0.0000000000E+00
            fcart3    -0.0000000000E+00 -0.0000000000E+00 -0.0000000000E+00
            fcart4    -0.0000000000E+00 -0.0000000000E+00 -0.0000000000E+00
            fcart5    -0.0000000000E+00 -0.0000000000E+00 -0.0000000000E+00
            fcart6    -0.0000000000E+00 -0.0000000000E+00 -0.0000000000E+00
            fcart7    -0.0000000000E+00 -0.0000000000E+00 -0.0000000000E+00
            fcart8    -0.0000000000E+00 -0.0000000000E+00 -0.0000000000E+00
            fcart9    -0.0000000000E+00 -0.0000000000E+00 -0.0000000000E+00
            fcart10   -0.0000000000E+00 -0.0000000000E+00 -0.0000000000E+00
            fcart11   -0.0000000000E+00 -0.0000000000E+00 -0.0000000000E+00
            fcart12   -0.0000000000E+00 -0.0000000000E+00 -0.0000000000E+00
            fcart13   -0.0000000000E+00 -0.0000000000E+00 -0.0000000000E+00
            fcart14   -0.0000000000E+00 -0.0000000000E+00 -0.0000000000E+00
            fcart15   -0.0000000000E+00 -0.0000000000E+00 -0.0000000000E+00
            fcart16   -0.0000000000E+00 -0.0000000000E+00 -0.0000000000E+00
            fcart17   -0.0000000000E+00 -0.0000000000E+00 -0.0000000000E+00
            fcart18   -0.0000000000E+00 -0.0000000000E+00 -0.0000000000E+00
            fcart19   -0.0000000000E+00 -0.0000000000E+00 -0.0000000000E+00
            fcart20   -0.0000000000E+00 -0.0000000000E+00 -0.0000000000E+00
            fcart21   -0.0000000000E+00 -0.0000000000E+00 -0.0000000000E+00
            fcart22   -0.0000000000E+00 -0.0000000000E+00 -0.0000000000E+00
            fcart23   -0.0000000000E+00 -0.0000000000E+00 -0.0000000000E+00
            fcart24   -0.0000000000E+00 -0.0000000000E+00 -0.0000000000E+00
            fcart25   -0.0000000000E+00 -0.0000000000E+00 -0.0000000000E+00
            fcart26   -0.0000000000E+00 -0.0000000000E+00 -0.0000000000E+00
            fcart27   -0.0000000000E+00 -0.0000000000E+00 -0.0000000000E+00
            fcart28   -0.0000000000E+00 -0.0000000000E+00 -0.0000000000E+00
            fcart29   -0.0000000000E+00 -0.0000000000E+00 -0.0000000000E+00
            fcart30   -0.0000000000E+00 -0.0000000000E+00 -0.0000000000E+00
            fcart31   -0.0000000000E+00 -0.0000000000E+00 -0.0000000000E+00
            fcart32   -0.0000000000E+00 -0.0000000000E+00 -0.0000000000E+00
            fcart33   -0.0000000000E+00 -0.0000000000E+00 -0.0000000000E+00
            fcart34   -0.0000000000E+00 -0.0000000000E+00 -0.0000000000E+00
            fcart35   -0.0000000000E+00 -0.0000000000E+00 -0.0000000000E+00
            fcart36   -0.0000000000E+00 -0.0000000000E+00 -0.0000000000E+00
            fcart37   -0.0000000000E+00 -0.0000000000E+00 -0.0000000000E+00
            fcart38   -0.0000000000E+00 -0.0000000000E+00 -0.0000000000E+00
            fcart39   -0.0000000000E+00 -0.0000000000E+00 -0.0000000000E+00
            fcart40   -0.0000000000E+00 -0.0000000000E+00 -0.0000000000E+00
            fcart41   -0.0000000000E+00 -0.0000000000E+00 -0.0000000000E+00
            fcart42   -0.0000000000E+00 -0.0000000000E+00 -0.0000000000E+00
            fcart43   -0.0000000000E+00 -0.0000000000E+00 -0.0000000000E+00
            fcart44   -0.0000000000E+00 -0.0000000000E+00 -0.0000000000E+00
            fcart45   -0.0000000000E+00 -0.0000000000E+00 -0.0000000000E+00
-          fftalg         112
           istwfk        2
              ixc1      -1002
              ixc2      -1003
              ixc3      -1004
              ixc4      -1005
              ixc5      -1006
              ixc6      -1007
              ixc7      -1008
              ixc8      -1009
              ixc9      -1010
              ixc10     -1011
              ixc11     -1012
              ixc12     -1013
              ixc13     -1014
              ixc14     -1017
              ixc15       -20
              ixc16   -106130
              ixc17   -106131
              ixc18   -106132
              ixc19   -106133
              ixc20   -106134
              ixc21   -106135
              ixc22   -106136
              ixc23   -106137
              ixc24   -101131
              ixc25   -102131
              ixc26   -103131
              ixc27   -104131
              ixc28   -105131
              ixc29   -107131
              ixc30   -108131
              ixc31   -109131
              ixc32   -110131
              ixc33   -111131
              ixc34   -112131
              ixc35   -113131
              ixc36   -114131
              ixc37   -115131
              ixc38   -116131
              ixc39   -117131
              ixc40   -118131
              ixc41   -119131
              ixc42   -120131
              ixc43   -121131
              ixc44   -122131
              ixc45   -123131
           jdtset        1    2    3    4    5    6    7    8    9   10
                        11   12   13   14   15   16   17   18   19   20
                        21   22   23   24   25   26   27   28   29   30
                        31   32   33   34   35   36   37   38   39   40
                        41   42   43   44   45
           kptopt           0
P           mkmem           1
            natom           1
            nband           4       4
           ndtset          45
            ngfft          30      30      30
             nkpt           1
            nline           1
           nspden           2
           nsppol           2
            nstep           1
             nsym          48
           ntypat           1
              occ      1.000000  1.000000  1.000000  1.000000
                       1.000000  0.000000  0.000000  0.000000
           occopt           2
           prtden           0
           prteig           0
            prtwf           0
          spgroup         221
           spinat      1.0000000000E+00  0.0000000000E+00  0.0000000000E+00
           strten1     2.8970832988E-04  2.8970832988E-04  2.8970832988E-04
                       0.0000000000E+00  0.0000000000E+00  0.0000000000E+00
           strten2     3.0750734094E-04  3.0750734094E-04  3.0750734094E-04
                       0.0000000000E+00  0.0000000000E+00  0.0000000000E+00
           strten3     2.9411721654E-04  2.9411721654E-04  2.9411721654E-04
                       0.0000000000E+00  0.0000000000E+00  0.0000000000E+00
           strten4     2.9257124026E-04  2.9257124026E-04  2.9257124026E-04
                       0.0000000000E+00  0.0000000000E+00  0.0000000000E+00
           strten5     1.7062963872E-04  1.7062963872E-04  1.7062963872E-04
                       0.0000000000E+00  0.0000000000E+00  0.0000000000E+00
           strten6     2.8872654175E-04  2.8872654175E-04  2.8872654175E-04
                       0.0000000000E+00  0.0000000000E+00  0.0000000000E+00
           strten7     2.9018495192E-04  2.9018495192E-04  2.9018495192E-04
                       0.0000000000E+00  0.0000000000E+00  0.0000000000E+00
           strten8     2.8829384908E-04  2.8829384908E-04  2.8829384908E-04
                       0.0000000000E+00  0.0000000000E+00  0.0000000000E+00
           strten9     2.8829384908E-04  2.8829384908E-04  2.8829384908E-04
                       0.0000000000E+00  0.0000000000E+00  0.0000000000E+00
           strten10    2.8742348788E-04  2.8742348788E-04  2.8742348788E-04
                       0.0000000000E+00  0.0000000000E+00  0.0000000000E+00
           strten11    2.8868781676E-04  2.8868781676E-04  2.8868781676E-04
                       0.0000000000E+00  0.0000000000E+00  0.0000000000E+00
           strten12    2.8868782250E-04  2.8868782250E-04  2.8868782250E-04
                       0.0000000000E+00  0.0000000000E+00  0.0000000000E+00
           strten13    2.8806509923E-04  2.8806509923E-04  2.8806509923E-04
                       0.0000000000E+00  0.0000000000E+00  0.0000000000E+00
           strten14    2.8986198640E-04  2.8986198640E-04  2.8986198640E-04
                       0.0000000000E+00  0.0000000000E+00  0.0000000000E+00
           strten15    2.8863788946E-04  2.8863788946E-04  2.8863788946E-04
                       0.0000000000E+00  0.0000000000E+00  0.0000000000E+00
           strten16    2.8056059869E-04  2.8056059869E-04  2.8056059869E-04
                       0.0000000000E+00  0.0000000000E+00  0.0000000000E+00
           strten17    2.8081973610E-04  2.8081973610E-04  2.8081973610E-04
                       0.0000000000E+00  0.0000000000E+00  0.0000000000E+00
           strten18    2.7836461691E-04  2.7836461691E-04  2.7836461691E-04
                       0.0000000000E+00  0.0000000000E+00  0.0000000000E+00
           strten19    2.8050145322E-04  2.8050145322E-04  2.8050145322E-04
                       0.0000000000E+00  0.0000000000E+00  0.0000000000E+00
           strten20    2.8071739623E-04  2.8071739623E-04  2.8071739623E-04
                       0.0000000000E+00  0.0000000000E+00  0.0000000000E+00
           strten21    2.8458935991E-04  2.8458935991E-04  2.8458935991E-04
                       0.0000000000E+00  0.0000000000E+00  0.0000000000E+00
           strten22    2.8096792707E-04  2.8096792707E-04  2.8096792707E-04
                       0.0000000000E+00  0.0000000000E+00  0.0000000000E+00
           strten23   -1.2046530835E-04 -1.2046530835E-04 -1.2046530835E-04
                       0.0000000000E+00  0.0000000000E+00  0.0000000000E+00
           strten24    2.9072609927E-04  2.9072609927E-04  2.9072609927E-04
                       0.0000000000E+00  0.0000000000E+00  0.0000000000E+00
           strten25    2.9131765355E-04  2.9131765355E-04  2.9131765355E-04
                       0.0000000000E+00  0.0000000000E+00  0.0000000000E+00
           strten26    2.9135617897E-04  2.9135617897E-04  2.9135617897E-04
                       0.0000000000E+00  0.0000000000E+00  0.0000000000E+00
           strten27    7.5527354343E-05  7.5527354343E-05  7.5527354343E-05
                       0.0000000000E+00  0.0000000000E+00  0.0000000000E+00
           strten28    2.8847624414E-04  2.8847624414E-04  2.8847624414E-04
                       0.0000000000E+00  0.0000000000E+00  0.0000000000E+00
           strten29    2.6479080759E-04  2.6479080759E-04  2.6479080759E-04
                       0.0000000000E+00  0.0000000000E+00  0.0000000000E+00
           strten30    2.8325235499E-04  2.8325235499E-04  2.8325235499E-04
                       0.0000000000E+00  0.0000000000E+00  0.0000000000E+00
           strten31    2.9812189683E-04  2.9812189683E-04  2.9812189683E-04
                       0.0000000000E+00  0.0000000000E+00  0.0000000000E+00
           strten32    2.9785799493E-04  2.9785799493E-04  2.9785799493E-04
                       0.0000000000E+00  0.0000000000E+00  0.0000000000E+00
           strten33    2.7887287426E-04  2.7887287426E-04  2.7887287426E-04
                       0.0000000000E+00  0.0000000000E+00  0.0000000000E+00
           strten34    2.7934733263E-04  2.7934733263E-04  2.7934733263E-04
                       0.0000000000E+00  0.0000000000E+00  0.0000000000E+00
           strten35    2.8624153781E-04  2.8624153781E-04  2.8624153781E-04
                       0.0000000000E+00  0.0000000000E+00  0.0000000000E+00
           strten36    2.8164165294E-04  2.8164165294E-04  2.8164165294E-04
                       0.0000000000E+00  0.0000000000E+00  0.0000000000E+00
           strten37    2.8159833974E-04  2.8159833974E-04  2.8159833974E-04
                       0.0000000000E+00  0.0000000000E+00  0.0000000000E+00
           strten38    2.8876562479E-04  2.8876562479E-04  2.8876562479E-04
                       0.0000000000E+00  0.0000000000E+00  0.0000000000E+00
           strten39    2.9369569175E-04  2.9369569175E-04  2.9369569175E-04
                       0.0000000000E+00  0.0000000000E+00  0.0000000000E+00
           strten40    2.8935500122E-04  2.8935500122E-04  2.8935500122E-04
                       0.0000000000E+00  0.0000000000E+00  0.0000000000E+00
           strten41    2.9369403174E-04  2.9369403174E-04  2.9369403174E-04
                       0.0000000000E+00  0.0000000000E+00  0.0000000000E+00
           strten42    2.8032189449E-04  2.8032189449E-04  2.8032189449E-04
                       0.0000000000E+00  0.0000000000E+00  0.0000000000E+00
           strten43    2.8937412974E-04  2.8937412974E-04  2.8937412974E-04
                       0.0000000000E+00  0.0000000000E+00  0.0000000000E+00
           strten44    2.9152679293E-04  2.9152679293E-04  2.9152679293E-04
                       0.0000000000E+00  0.0000000000E+00  0.0000000000E+00
           strten45    2.9120490711E-04  2.9120490711E-04  2.9120490711E-04
                       0.0000000000E+00  0.0000000000E+00  0.0000000000E+00
           symrel      1  0  0   0  1  0   0  0  1      -1  0  0   0 -1  0   0  0 -1
                      -1  0  0   0  1  0   0  0 -1       1  0  0   0 -1  0   0  0  1
                      -1  0  0   0 -1  0   0  0  1       1  0  0   0  1  0   0  0 -1
                       1  0  0   0 -1  0   0  0 -1      -1  0  0   0  1  0   0  0  1
                       0  1  0   1  0  0   0  0  1       0 -1  0  -1  0  0   0  0 -1
                       0 -1  0   1  0  0   0  0 -1       0  1  0  -1  0  0   0  0  1
                       0 -1  0  -1  0  0   0  0  1       0  1  0   1  0  0   0  0 -1
                       0  1  0  -1  0  0   0  0 -1       0 -1  0   1  0  0   0  0  1
                       0  0  1   1  0  0   0  1  0       0  0 -1  -1  0  0   0 -1  0
                       0  0 -1   1  0  0   0 -1  0       0  0  1  -1  0  0   0  1  0
                       0  0 -1  -1  0  0   0  1  0       0  0  1   1  0  0   0 -1  0
                       0  0  1  -1  0  0   0 -1  0       0  0 -1   1  0  0   0  1  0
                       1  0  0   0  0  1   0  1  0      -1  0  0   0  0 -1   0 -1  0
                      -1  0  0   0  0  1   0 -1  0       1  0  0   0  0 -1   0  1  0
                      -1  0  0   0  0 -1   0  1  0       1  0  0   0  0  1   0 -1  0
                       1  0  0   0  0 -1   0 -1  0      -1  0  0   0  0  1   0  1  0
                       0  1  0   0  0  1   1  0  0       0 -1  0   0  0 -1  -1  0  0
                       0 -1  0   0  0  1  -1  0  0       0  1  0   0  0 -1   1  0  0
                       0 -1  0   0  0 -1   1  0  0       0  1  0   0  0  1  -1  0  0
                       0  1  0   0  0 -1  -1  0  0       0 -1  0   0  0  1   1  0  0
                       0  0  1   0  1  0   1  0  0       0  0 -1   0 -1  0  -1  0  0
                       0  0 -1   0  1  0  -1  0  0       0  0  1   0 -1  0   1  0  0
                       0  0 -1   0 -1  0   1  0  0       0  0  1   0  1  0  -1  0  0
                       0  0  1   0 -1  0  -1  0  0       0  0 -1   0  1  0   1  0  0
           tolwfr      1.00000000E-14
            typat      1
            znucl       83.00000

================================================================================


- Timing analysis has been suppressed with timopt=0



================================================================================

 Suggested references for the acknowledgment of ABINIT usage.

 The users of ABINIT have little formal obligations with respect to the ABINIT group
 (those specified in the GNU General Public License, http://www.gnu.org/copyleft/gpl.txt).
 However, it is common practice in the scientific literature,
 to acknowledge the efforts of people that have made the research possible.
 In this spirit, please find below suggested citations of work written by ABINIT developers,
 corresponding to implementations inside of ABINIT that you have used in the present run.
 Note also that it will be of great value to readers of publications presenting these results,
 to read papers enabling them to understand the theoretical formalism and details
 of the ABINIT implementation.
 For information on why they are suggested, see also http://www.abinit.org/about/?text=acknowledgments.

 [1] Libxc: A library of exchange and correlation functionals for density functional theory.
 M.A.L. Marques, M.J.T. Oliveira, T. Burnus, Computer Physics Communications 183, 2227 (2012).
 Comment : to be cited when LibXC is used (negative value of ixc)
 Strong suggestion to cite this paper.

 [2] ABINIT : First-principles approach of materials and nanosystem properties.
 X. Gonze, B. Amadon, P.-M. Anglade, J.-M. Beuken, F. Bottin, P. Boulanger, F. Bruneval,
 D. Caliste, R. Caracas, M. Cote, T. Deutsch, L. Genovese, Ph. Ghosez, M. Giantomassi
 S. Goedecker, D.R. Hamann, P. Hermet, F. Jollet, G. Jomard, S. Leroux, M. Mancini, S. Mazevet,
 M.J.T. Oliveira, G. Onida, Y. Pouillon, T. Rangel, G.-M. Rignanese, D. Sangalli, R. Shaltaf,
 M. Torrent, M.J. Verstraete, G. Zerah, J.W. Zwanziger
 Computer Phys. Comm. 180, 2582-2615 (2009).
 Comment : the third generic paper describing the ABINIT project.
 Note that a version of this paper, that is not formatted for Computer Phys. Comm. 
 is available at http://www.abinit.org/about/ABINIT_CPC_v10.pdf .
 The licence allows the authors to put it on the Web.

 [3] A brief introduction to the ABINIT software package.
 X. Gonze, G.-M. Rignanese, M. Verstraete, J.-M. Beuken, Y. Pouillon, R. Caracas, F. Jollet,
 M. Torrent, G. Zerah, M. Mikami, Ph. Ghosez, M. Veithen, J.-Y. Raty, V. Olevano, F. Bruneval,
 L. Reining, R. Godby, G. Onida, D.R. Hamann, and D.C. Allan.
 Z. Kristallogr. 220, 558-562 (2005).
 Comment : the second generic paper describing the ABINIT project. Note that this paper
 should be cited especially if you are using the GW part of ABINIT, as several authors
 of this part are not in the list of authors of the first or third paper.
 The .pdf of the latter paper is available at http://www.abinit.org/about/zfk_0505-06_558-562.pdf.
 Note that it should not redistributed (Copyright by Oldenburg Wissenshaftverlag,
 the licence allows the authors to put it on the Web).


 And optionally :

 [4] First-principles computation of material properties : the ABINIT software project. 
 X. Gonze, J.-M. Beuken, R. Caracas, F. Detraux, M. Fuchs, G.-M. Rignanese, L. Sindic,
 M. Verstraete, G. Zerah, F. Jollet, M. Torrent, A. Roy, M. Mikami, Ph. Ghosez, J.-Y. Raty, D.C. Allan.
 Computational Materials Science 25, 478-492 (2002). http://dx.doi.org/10.1016/S0927-0256(02)00325-7
 Comment : the original paper describing the ABINIT project.

 [5] Fast radix 2, 3, 4 and 5 kernels for Fast Fourier Transformations
 on computers with overlapping multiply-add instructions.
 S. Goedecker, SIAM J. on Scientific Computing 18, 1605 (1997).
-
- Proc.   0 individual time (sec): cpu=         12.8  wall=         12.9

================================================================================

 Calculation completed.
.Delivered  140 WARNINGs and  45 COMMENTs to log file.
+Overall time at end (sec) : cpu=         12.8  wall=         12.9
