
.Version 7.10.4 of ABINIT 
.(MPI version, prepared for a x86_64_linux_gnu4.7 computer) 

.Copyright (C) 1998-2014 ABINIT group . 
 ABINIT comes with ABSOLUTELY NO WARRANTY.
 It is free software, and you are welcome to redistribute it
 under certain conditions (GNU General Public License,
 see ~abinit/COPYING or http://www.gnu.org/copyleft/gpl.txt).

 ABINIT is a project of the Universite Catholique de Louvain,
 Corning Inc. and other collaborators, see ~abinit/doc/developers/contributors.txt .
 Please read ~abinit/doc/users/acknowledgments.html for suggested
 acknowledgments of the ABINIT effort.
 For more information, see http://www.abinit.org .

.Starting date : Sun  1 Feb 2015.
- ( at 15h01 )
  
- input  file    -> t81.in
- output file    -> t81.out
- root for input  files -> t81i
- root for output files -> t81o


 DATASET   11 : space group Fd -3 m (#227); Bravais cF (face-center cubic)
================================================================================
 Values of the parameters that define the memory need for DATASET 11.
   intxc =         0  ionmov =         0    iscf =         7 xclevel =         1
  lmnmax =         4   lnmax =         4   mband =         5  mffmem =         1
P  mgfft =        12   mkmem =         2 mpssoang=         4     mpw =        69
  mqgrid =      3001   natom =         2    nfft =      1728    nkpt =         2
  nloalg =         4  nspden =         1 nspinor =         1  nsppol =         1
    nsym =        48  n1xccc =      2501  ntypat =         1  occopt =         1
================================================================================
P This job should need less than                       1.157 Mbytes of memory.
  Rough estimation (10% accuracy) of disk space for files :
_ WF disk file :      0.013 Mbytes ; DEN or POT disk file :      0.015 Mbytes.
================================================================================


 DATASET   12 : space group Fd -3 m (#227); Bravais cF (face-center cubic)
================================================================================
 Values of the parameters that define the memory need for DATASET 12.
   intxc =         0  ionmov =         0    iscf =         7 xclevel =         1
  lmnmax =         4   lnmax =         4   mband =         5  mffmem =         1
P  mgfft =        12   mkmem =         2 mpssoang=         4     mpw =        69
  mqgrid =      3001   natom =         2    nfft =      1728    nkpt =         2
  nloalg =         4  nspden =         1 nspinor =         1  nsppol =         1
    nsym =        48  n1xccc =      2501  ntypat =         1  occopt =         1
================================================================================
P This job should need less than                       1.157 Mbytes of memory.
  Rough estimation (10% accuracy) of disk space for files :
_ WF disk file :      0.013 Mbytes ; DEN or POT disk file :      0.015 Mbytes.
================================================================================


 DATASET   13 : space group Fd -3 m (#227); Bravais cF (face-center cubic)
================================================================================
 Values of the parameters that define the memory need for DATASET 13.
   intxc =         0  ionmov =         0    iscf =         7 xclevel =         2
  lmnmax =         4   lnmax =         4   mband =         5  mffmem =         1
P  mgfft =        12   mkmem =         2 mpssoang=         4     mpw =        69
  mqgrid =      3001   natom =         2    nfft =      1728    nkpt =         2
  nloalg =         4  nspden =         1 nspinor =         1  nsppol =         1
    nsym =        48  n1xccc =      2501  ntypat =         1  occopt =         1
================================================================================
P This job should need less than                       1.201 Mbytes of memory.
  Rough estimation (10% accuracy) of disk space for files :
_ WF disk file :      0.013 Mbytes ; DEN or POT disk file :      0.015 Mbytes.
================================================================================


 DATASET   14 : space group Fd -3 m (#227); Bravais cF (face-center cubic)
================================================================================
 Values of the parameters that define the memory need for DATASET 14.
   intxc =         0  ionmov =         0    iscf =         7 xclevel =         2
  lmnmax =         4   lnmax =         4   mband =         5  mffmem =         1
P  mgfft =        12   mkmem =         2 mpssoang=         4     mpw =        69
  mqgrid =      3001   natom =         2    nfft =      1728    nkpt =         2
  nloalg =         4  nspden =         1 nspinor =         1  nsppol =         1
    nsym =        48  n1xccc =      2501  ntypat =         1  occopt =         1
================================================================================
P This job should need less than                       1.201 Mbytes of memory.
  Rough estimation (10% accuracy) of disk space for files :
_ WF disk file :      0.013 Mbytes ; DEN or POT disk file :      0.015 Mbytes.
================================================================================


 DATASET   15 : space group Fd -3 m (#227); Bravais cF (face-center cubic)
================================================================================
 Values of the parameters that define the memory need for DATASET 15.
   intxc =         0  ionmov =         0    iscf =         7 xclevel =         1
  lmnmax =         4   lnmax =         4   mband =         5  mffmem =         1
P  mgfft =        12   mkmem =         2 mpssoang=         4     mpw =        69
  mqgrid =      3001   natom =         2    nfft =      1728    nkpt =         2
  nloalg =         4  nspden =         1 nspinor =         1  nsppol =         1
    nsym =        48  n1xccc =      2501  ntypat =         1  occopt =         1
================================================================================
P This job should need less than                       1.157 Mbytes of memory.
  Rough estimation (10% accuracy) of disk space for files :
_ WF disk file :      0.013 Mbytes ; DEN or POT disk file :      0.015 Mbytes.
================================================================================


 DATASET   16 : space group Fd -3 m (#227); Bravais cF (face-center cubic)
================================================================================
 Values of the parameters that define the memory need for DATASET 16.
   intxc =         0  ionmov =         0    iscf =         7 xclevel =         1
  lmnmax =         4   lnmax =         4   mband =         5  mffmem =         1
P  mgfft =        12   mkmem =         2 mpssoang=         4     mpw =        69
  mqgrid =      3001   natom =         2    nfft =      1728    nkpt =         2
  nloalg =         4  nspden =         1 nspinor =         1  nsppol =         1
    nsym =        48  n1xccc =      2501  ntypat =         1  occopt =         1
================================================================================
P This job should need less than                       1.157 Mbytes of memory.
  Rough estimation (10% accuracy) of disk space for files :
_ WF disk file :      0.013 Mbytes ; DEN or POT disk file :      0.015 Mbytes.
================================================================================


 DATASET   17 : space group Fd -3 m (#227); Bravais cF (face-center cubic)
================================================================================
 Values of the parameters that define the memory need for DATASET 17.
   intxc =         0  ionmov =         0    iscf =         7 xclevel =         1
  lmnmax =         4   lnmax =         4   mband =         5  mffmem =         1
P  mgfft =        12   mkmem =         2 mpssoang=         4     mpw =        69
  mqgrid =      3001   natom =         2    nfft =      1728    nkpt =         2
  nloalg =         4  nspden =         1 nspinor =         1  nsppol =         1
    nsym =        48  n1xccc =      2501  ntypat =         1  occopt =         1
================================================================================
P This job should need less than                       1.157 Mbytes of memory.
  Rough estimation (10% accuracy) of disk space for files :
_ WF disk file :      0.013 Mbytes ; DEN or POT disk file :      0.015 Mbytes.
================================================================================


 DATASET   21 : space group Fd -3 m (#227); Bravais cF (face-center cubic)
================================================================================
 Values of the parameters that define the memory need for DATASET 21 (RF).
   intxc =         0    iscf =        -3 xclevel =         1  lmnmax =         4
   lnmax =         4   mband =         5  mffmem =         1   mgfft =        12
P  mkmem =        16  mkqmem =        16  mk1mem =        16 mpssoang=         4
     mpw =        69  mqgrid =      3001   natom =         2    nfft =      1728
    nkpt =        16  nloalg =         4  nspden =         1 nspinor =         1
  nsppol =         1    nsym =        48  n1xccc =      2501  ntypat =         1
  occopt =         1
================================================================================
P This job should need less than                       1.290 Mbytes of memory.
  Rough estimation (10% accuracy) of disk space for files :
_ WF disk file :      0.086 Mbytes ; DEN or POT disk file :      0.015 Mbytes.
================================================================================


 DATASET   22 : space group Fd -3 m (#227); Bravais cF (face-center cubic)
================================================================================
 Values of the parameters that define the memory need for DATASET 22 (RF).
   intxc =         0    iscf =        -3 xclevel =         1  lmnmax =         4
   lnmax =         4   mband =         5  mffmem =         1   mgfft =        12
P  mkmem =        16  mkqmem =        16  mk1mem =        16 mpssoang=         4
     mpw =        69  mqgrid =      3001   natom =         2    nfft =      1728
    nkpt =        16  nloalg =         4  nspden =         1 nspinor =         1
  nsppol =         1    nsym =        48  n1xccc =      2501  ntypat =         1
  occopt =         1
================================================================================
P This job should need less than                       1.290 Mbytes of memory.
  Rough estimation (10% accuracy) of disk space for files :
_ WF disk file :      0.086 Mbytes ; DEN or POT disk file :      0.015 Mbytes.
================================================================================


 DATASET   23 : space group Fd -3 m (#227); Bravais cF (face-center cubic)
================================================================================
 Values of the parameters that define the memory need for DATASET 23 (RF).
   intxc =         0    iscf =        -3 xclevel =         2  lmnmax =         4
   lnmax =         4   mband =         5  mffmem =         1   mgfft =        12
P  mkmem =        16  mkqmem =        16  mk1mem =        16 mpssoang=         4
     mpw =        69  mqgrid =      3001   natom =         2    nfft =      1728
    nkpt =        16  nloalg =         4  nspden =         1 nspinor =         1
  nsppol =         1    nsym =        48  n1xccc =      2501  ntypat =         1
  occopt =         1
================================================================================
P This job should need less than                       1.290 Mbytes of memory.
  Rough estimation (10% accuracy) of disk space for files :
_ WF disk file :      0.086 Mbytes ; DEN or POT disk file :      0.015 Mbytes.
================================================================================


 DATASET   24 : space group Fd -3 m (#227); Bravais cF (face-center cubic)
================================================================================
 Values of the parameters that define the memory need for DATASET 24 (RF).
   intxc =         0    iscf =        -3 xclevel =         2  lmnmax =         4
   lnmax =         4   mband =         5  mffmem =         1   mgfft =        12
P  mkmem =        16  mkqmem =        16  mk1mem =        16 mpssoang=         4
     mpw =        69  mqgrid =      3001   natom =         2    nfft =      1728
    nkpt =        16  nloalg =         4  nspden =         1 nspinor =         1
  nsppol =         1    nsym =        48  n1xccc =      2501  ntypat =         1
  occopt =         1
================================================================================
P This job should need less than                       1.290 Mbytes of memory.
  Rough estimation (10% accuracy) of disk space for files :
_ WF disk file :      0.086 Mbytes ; DEN or POT disk file :      0.015 Mbytes.
================================================================================


 DATASET   25 : space group Fd -3 m (#227); Bravais cF (face-center cubic)
================================================================================
 Values of the parameters that define the memory need for DATASET 25 (RF).
   intxc =         0    iscf =        -3 xclevel =         1  lmnmax =         4
   lnmax =         4   mband =         5  mffmem =         1   mgfft =        12
P  mkmem =        16  mkqmem =        16  mk1mem =        16 mpssoang=         4
     mpw =        69  mqgrid =      3001   natom =         2    nfft =      1728
    nkpt =        16  nloalg =         4  nspden =         1 nspinor =         1
  nsppol =         1    nsym =        48  n1xccc =      2501  ntypat =         1
  occopt =         1
================================================================================
P This job should need less than                       1.290 Mbytes of memory.
  Rough estimation (10% accuracy) of disk space for files :
_ WF disk file :      0.086 Mbytes ; DEN or POT disk file :      0.015 Mbytes.
================================================================================


 DATASET   26 : space group Fd -3 m (#227); Bravais cF (face-center cubic)
================================================================================
 Values of the parameters that define the memory need for DATASET 26 (RF).
   intxc =         0    iscf =        -3 xclevel =         1  lmnmax =         4
   lnmax =         4   mband =         5  mffmem =         1   mgfft =        12
P  mkmem =        16  mkqmem =        16  mk1mem =        16 mpssoang=         4
     mpw =        69  mqgrid =      3001   natom =         2    nfft =      1728
    nkpt =        16  nloalg =         4  nspden =         1 nspinor =         1
  nsppol =         1    nsym =        48  n1xccc =      2501  ntypat =         1
  occopt =         1
================================================================================
P This job should need less than                       1.290 Mbytes of memory.
  Rough estimation (10% accuracy) of disk space for files :
_ WF disk file :      0.086 Mbytes ; DEN or POT disk file :      0.015 Mbytes.
================================================================================


 DATASET   27 : space group Fd -3 m (#227); Bravais cF (face-center cubic)
================================================================================
 Values of the parameters that define the memory need for DATASET 27 (RF).
   intxc =         0    iscf =        -3 xclevel =         1  lmnmax =         4
   lnmax =         4   mband =         5  mffmem =         1   mgfft =        12
P  mkmem =        16  mkqmem =        16  mk1mem =        16 mpssoang=         4
     mpw =        69  mqgrid =      3001   natom =         2    nfft =      1728
    nkpt =        16  nloalg =         4  nspden =         1 nspinor =         1
  nsppol =         1    nsym =        48  n1xccc =      2501  ntypat =         1
  occopt =         1
================================================================================
P This job should need less than                       1.290 Mbytes of memory.
  Rough estimation (10% accuracy) of disk space for files :
_ WF disk file :      0.086 Mbytes ; DEN or POT disk file :      0.015 Mbytes.
================================================================================


 DATASET   31 : space group Fd -3 m (#227); Bravais cF (face-center cubic)
================================================================================
 Values of the parameters that define the memory need for DATASET 31 (RF).
   intxc =         0    iscf =         7 xclevel =         1  lmnmax =         4
   lnmax =         4   mband =         5  mffmem =         1   mgfft =        12
P  mkmem =        16  mkqmem =        16  mk1mem =        16 mpssoang=         4
     mpw =        69  mqgrid =      3001   natom =         2    nfft =      1728
    nkpt =        16  nloalg =         4  nspden =         1 nspinor =         1
  nsppol =         1    nsym =        48  n1xccc =      2501  ntypat =         1
  occopt =         1
================================================================================
P This job should need less than                       1.304 Mbytes of memory.
  Rough estimation (10% accuracy) of disk space for files :
_ WF disk file :      0.086 Mbytes ; DEN or POT disk file :      0.015 Mbytes.
================================================================================


 DATASET   32 : space group Fd -3 m (#227); Bravais cF (face-center cubic)
================================================================================
 Values of the parameters that define the memory need for DATASET 32 (RF).
   intxc =         0    iscf =         7 xclevel =         1  lmnmax =         4
   lnmax =         4   mband =         5  mffmem =         1   mgfft =        12
P  mkmem =        16  mkqmem =        16  mk1mem =        16 mpssoang=         4
     mpw =        69  mqgrid =      3001   natom =         2    nfft =      1728
    nkpt =        16  nloalg =         4  nspden =         1 nspinor =         1
  nsppol =         1    nsym =        48  n1xccc =      2501  ntypat =         1
  occopt =         1
================================================================================
P This job should need less than                       1.304 Mbytes of memory.
  Rough estimation (10% accuracy) of disk space for files :
_ WF disk file :      0.086 Mbytes ; DEN or POT disk file :      0.015 Mbytes.
================================================================================


 DATASET   33 : space group Fd -3 m (#227); Bravais cF (face-center cubic)
================================================================================
 Values of the parameters that define the memory need for DATASET 33 (RF).
   intxc =         0    iscf =         7 xclevel =         2  lmnmax =         4
   lnmax =         4   mband =         5  mffmem =         1   mgfft =        12
P  mkmem =        16  mkqmem =        16  mk1mem =        16 mpssoang=         4
     mpw =        69  mqgrid =      3001   natom =         2    nfft =      1728
    nkpt =        16  nloalg =         4  nspden =         1 nspinor =         1
  nsppol =         1    nsym =        48  n1xccc =      2501  ntypat =         1
  occopt =         1
================================================================================
P This job should need less than                       1.304 Mbytes of memory.
  Rough estimation (10% accuracy) of disk space for files :
_ WF disk file :      0.086 Mbytes ; DEN or POT disk file :      0.015 Mbytes.
================================================================================


 DATASET   34 : space group Fd -3 m (#227); Bravais cF (face-center cubic)
================================================================================
 Values of the parameters that define the memory need for DATASET 34 (RF).
   intxc =         0    iscf =         7 xclevel =         2  lmnmax =         4
   lnmax =         4   mband =         5  mffmem =         1   mgfft =        12
P  mkmem =        16  mkqmem =        16  mk1mem =        16 mpssoang=         4
     mpw =        69  mqgrid =      3001   natom =         2    nfft =      1728
    nkpt =        16  nloalg =         4  nspden =         1 nspinor =         1
  nsppol =         1    nsym =        48  n1xccc =      2501  ntypat =         1
  occopt =         1
================================================================================
P This job should need less than                       1.304 Mbytes of memory.
  Rough estimation (10% accuracy) of disk space for files :
_ WF disk file :      0.086 Mbytes ; DEN or POT disk file :      0.015 Mbytes.
================================================================================


 DATASET   35 : space group Fd -3 m (#227); Bravais cF (face-center cubic)
================================================================================
 Values of the parameters that define the memory need for DATASET 35 (RF).
   intxc =         0    iscf =         7 xclevel =         1  lmnmax =         4
   lnmax =         4   mband =         5  mffmem =         1   mgfft =        12
P  mkmem =        16  mkqmem =        16  mk1mem =        16 mpssoang=         4
     mpw =        69  mqgrid =      3001   natom =         2    nfft =      1728
    nkpt =        16  nloalg =         4  nspden =         1 nspinor =         1
  nsppol =         1    nsym =        48  n1xccc =      2501  ntypat =         1
  occopt =         1
================================================================================
P This job should need less than                       1.304 Mbytes of memory.
  Rough estimation (10% accuracy) of disk space for files :
_ WF disk file :      0.086 Mbytes ; DEN or POT disk file :      0.015 Mbytes.
================================================================================


 DATASET   36 : space group Fd -3 m (#227); Bravais cF (face-center cubic)
================================================================================
 Values of the parameters that define the memory need for DATASET 36 (RF).
   intxc =         0    iscf =         7 xclevel =         1  lmnmax =         4
   lnmax =         4   mband =         5  mffmem =         1   mgfft =        12
P  mkmem =        16  mkqmem =        16  mk1mem =        16 mpssoang=         4
     mpw =        69  mqgrid =      3001   natom =         2    nfft =      1728
    nkpt =        16  nloalg =         4  nspden =         1 nspinor =         1
  nsppol =         1    nsym =        48  n1xccc =      2501  ntypat =         1
  occopt =         1
================================================================================
P This job should need less than                       1.304 Mbytes of memory.
  Rough estimation (10% accuracy) of disk space for files :
_ WF disk file :      0.086 Mbytes ; DEN or POT disk file :      0.015 Mbytes.
================================================================================


 DATASET   37 : space group Fd -3 m (#227); Bravais cF (face-center cubic)
================================================================================
 Values of the parameters that define the memory need for DATASET 37 (RF).
   intxc =         0    iscf =         7 xclevel =         1  lmnmax =         4
   lnmax =         4   mband =         5  mffmem =         1   mgfft =        12
P  mkmem =        16  mkqmem =        16  mk1mem =        16 mpssoang=         4
     mpw =        69  mqgrid =      3001   natom =         2    nfft =      1728
    nkpt =        16  nloalg =         4  nspden =         1 nspinor =         1
  nsppol =         1    nsym =        48  n1xccc =      2501  ntypat =         1
  occopt =         1
================================================================================
P This job should need less than                       1.304 Mbytes of memory.
  Rough estimation (10% accuracy) of disk space for files :
_ WF disk file :      0.086 Mbytes ; DEN or POT disk file :      0.015 Mbytes.
================================================================================

--------------------------------------------------------------------------------
------------- Echo of variables that govern the present computation ------------
--------------------------------------------------------------------------------
-
- outvars: echo of selected default values                                      
-   accesswff0 =  0 , fftalg0 =112 , wfoptalg0 =  0
-
- outvars: echo of global parameters not present in the input file              
-  max_nthreads =    0
-
 -outvars: echo values of preprocessed input variables --------
            acell      1.0220000000E+01  1.0220000000E+01  1.0220000000E+01 Bohr
              amu      2.80855000E+01
             ecut      3.00000000E+00 Hartree
           enunit           2
-          fftalg         112
           getddk11         0
           getddk12         0
           getddk13         0
           getddk14         0
           getddk15         0
           getddk16         0
           getddk17         0
           getddk21         0
           getddk22         0
           getddk23         0
           getddk24         0
           getddk25         0
           getddk26         0
           getddk27         0
           getddk31        21
           getddk32        21
           getddk33        23
           getddk34        23
           getddk35        25
           getddk36        25
           getddk37        25
           getwfk11         0
           getwfk12         0
           getwfk13         0
           getwfk14         0
           getwfk15         0
           getwfk16         0
           getwfk17         0
           getwfk21        11
           getwfk22        11
           getwfk23        13
           getwfk24        13
           getwfk25        15
           getwfk26        15
           getwfk27        15
           getwfk31        11
           getwfk32        11
           getwfk33        13
           getwfk34        13
           getwfk35        15
           getwfk36        15
           getwfk37        15
             iscf11         7
             iscf12         7
             iscf13         7
             iscf14         7
             iscf15         7
             iscf16         7
             iscf17         7
             iscf21        -3
             iscf22        -3
             iscf23        -3
             iscf24        -3
             iscf25        -3
             iscf26        -3
             iscf27        -3
             iscf31         7
             iscf32         7
             iscf33         7
             iscf34         7
             iscf35         7
             iscf36         7
             iscf37         7
              ixc11         2
              ixc12     -1009
              ixc13        11
              ixc14   -101130
              ixc15         7
              ixc16     -1012
              ixc17     -1013
              ixc21         2
              ixc22     -1009
              ixc23        11
              ixc24   -101130
              ixc25         7
              ixc26     -1012
              ixc27     -1013
              ixc31         2
              ixc32     -1009
              ixc33        11
              ixc34   -101130
              ixc35         7
              ixc36     -1012
              ixc37     -1013
           jdtset       11   12   13   14   15   16   17   21   22   23
                        24   25   26   27   31   32   33   34   35   36
                        37
              kpt11   -2.50000000E-01  5.00000000E-01  0.00000000E+00
                      -2.50000000E-01  0.00000000E+00  0.00000000E+00
              kpt12   -2.50000000E-01  5.00000000E-01  0.00000000E+00
                      -2.50000000E-01  0.00000000E+00  0.00000000E+00
              kpt13   -2.50000000E-01  5.00000000E-01  0.00000000E+00
                      -2.50000000E-01  0.00000000E+00  0.00000000E+00
              kpt14   -2.50000000E-01  5.00000000E-01  0.00000000E+00
                      -2.50000000E-01  0.00000000E+00  0.00000000E+00
              kpt15   -2.50000000E-01  5.00000000E-01  0.00000000E+00
                      -2.50000000E-01  0.00000000E+00  0.00000000E+00
              kpt16   -2.50000000E-01  5.00000000E-01  0.00000000E+00
                      -2.50000000E-01  0.00000000E+00  0.00000000E+00
              kpt17   -2.50000000E-01  5.00000000E-01  0.00000000E+00
                      -2.50000000E-01  0.00000000E+00  0.00000000E+00
              kpt21   -2.50000000E-01  5.00000000E-01  0.00000000E+00
                       5.00000000E-01 -2.50000000E-01  0.00000000E+00
                      -2.50000000E-01 -2.50000000E-01  2.50000000E-01
                      -2.50000000E-01  0.00000000E+00  0.00000000E+00
                      -2.50000000E-01  2.50000000E-01  2.50000000E-01
                       5.00000000E-01  5.00000000E-01  2.50000000E-01
                      -2.50000000E-01  5.00000000E-01  5.00000000E-01
                       0.00000000E+00 -2.50000000E-01  0.00000000E+00
                       2.50000000E-01 -2.50000000E-01  2.50000000E-01
                       5.00000000E-01 -2.50000000E-01  5.00000000E-01
                      -2.50000000E-01 -2.50000000E-01 -2.50000000E-01
                       5.00000000E-01  0.00000000E+00  2.50000000E-01
                      -2.50000000E-01  0.00000000E+00  5.00000000E-01
                       0.00000000E+00  5.00000000E-01  2.50000000E-01
                       0.00000000E+00 -2.50000000E-01  5.00000000E-01
                       0.00000000E+00  0.00000000E+00  2.50000000E-01
              kpt22   -2.50000000E-01  5.00000000E-01  0.00000000E+00
                       5.00000000E-01 -2.50000000E-01  0.00000000E+00
                      -2.50000000E-01 -2.50000000E-01  2.50000000E-01
                      -2.50000000E-01  0.00000000E+00  0.00000000E+00
                      -2.50000000E-01  2.50000000E-01  2.50000000E-01
                       5.00000000E-01  5.00000000E-01  2.50000000E-01
                      -2.50000000E-01  5.00000000E-01  5.00000000E-01
                       0.00000000E+00 -2.50000000E-01  0.00000000E+00
                       2.50000000E-01 -2.50000000E-01  2.50000000E-01
                       5.00000000E-01 -2.50000000E-01  5.00000000E-01
                      -2.50000000E-01 -2.50000000E-01 -2.50000000E-01
                       5.00000000E-01  0.00000000E+00  2.50000000E-01
                      -2.50000000E-01  0.00000000E+00  5.00000000E-01
                       0.00000000E+00  5.00000000E-01  2.50000000E-01
                       0.00000000E+00 -2.50000000E-01  5.00000000E-01
                       0.00000000E+00  0.00000000E+00  2.50000000E-01
              kpt23   -2.50000000E-01  5.00000000E-01  0.00000000E+00
                       5.00000000E-01 -2.50000000E-01  0.00000000E+00
                      -2.50000000E-01 -2.50000000E-01  2.50000000E-01
                      -2.50000000E-01  0.00000000E+00  0.00000000E+00
                      -2.50000000E-01  2.50000000E-01  2.50000000E-01
                       5.00000000E-01  5.00000000E-01  2.50000000E-01
                      -2.50000000E-01  5.00000000E-01  5.00000000E-01
                       0.00000000E+00 -2.50000000E-01  0.00000000E+00
                       2.50000000E-01 -2.50000000E-01  2.50000000E-01
                       5.00000000E-01 -2.50000000E-01  5.00000000E-01
                      -2.50000000E-01 -2.50000000E-01 -2.50000000E-01
                       5.00000000E-01  0.00000000E+00  2.50000000E-01
                      -2.50000000E-01  0.00000000E+00  5.00000000E-01
                       0.00000000E+00  5.00000000E-01  2.50000000E-01
                       0.00000000E+00 -2.50000000E-01  5.00000000E-01
                       0.00000000E+00  0.00000000E+00  2.50000000E-01
              kpt24   -2.50000000E-01  5.00000000E-01  0.00000000E+00
                       5.00000000E-01 -2.50000000E-01  0.00000000E+00
                      -2.50000000E-01 -2.50000000E-01  2.50000000E-01
                      -2.50000000E-01  0.00000000E+00  0.00000000E+00
                      -2.50000000E-01  2.50000000E-01  2.50000000E-01
                       5.00000000E-01  5.00000000E-01  2.50000000E-01
                      -2.50000000E-01  5.00000000E-01  5.00000000E-01
                       0.00000000E+00 -2.50000000E-01  0.00000000E+00
                       2.50000000E-01 -2.50000000E-01  2.50000000E-01
                       5.00000000E-01 -2.50000000E-01  5.00000000E-01
                      -2.50000000E-01 -2.50000000E-01 -2.50000000E-01
                       5.00000000E-01  0.00000000E+00  2.50000000E-01
                      -2.50000000E-01  0.00000000E+00  5.00000000E-01
                       0.00000000E+00  5.00000000E-01  2.50000000E-01
                       0.00000000E+00 -2.50000000E-01  5.00000000E-01
                       0.00000000E+00  0.00000000E+00  2.50000000E-01
              kpt25   -2.50000000E-01  5.00000000E-01  0.00000000E+00
                       5.00000000E-01 -2.50000000E-01  0.00000000E+00
                      -2.50000000E-01 -2.50000000E-01  2.50000000E-01
                      -2.50000000E-01  0.00000000E+00  0.00000000E+00
                      -2.50000000E-01  2.50000000E-01  2.50000000E-01
                       5.00000000E-01  5.00000000E-01  2.50000000E-01
                      -2.50000000E-01  5.00000000E-01  5.00000000E-01
                       0.00000000E+00 -2.50000000E-01  0.00000000E+00
                       2.50000000E-01 -2.50000000E-01  2.50000000E-01
                       5.00000000E-01 -2.50000000E-01  5.00000000E-01
                      -2.50000000E-01 -2.50000000E-01 -2.50000000E-01
                       5.00000000E-01  0.00000000E+00  2.50000000E-01
                      -2.50000000E-01  0.00000000E+00  5.00000000E-01
                       0.00000000E+00  5.00000000E-01  2.50000000E-01
                       0.00000000E+00 -2.50000000E-01  5.00000000E-01
                       0.00000000E+00  0.00000000E+00  2.50000000E-01
              kpt26   -2.50000000E-01  5.00000000E-01  0.00000000E+00
                       5.00000000E-01 -2.50000000E-01  0.00000000E+00
                      -2.50000000E-01 -2.50000000E-01  2.50000000E-01
                      -2.50000000E-01  0.00000000E+00  0.00000000E+00
                      -2.50000000E-01  2.50000000E-01  2.50000000E-01
                       5.00000000E-01  5.00000000E-01  2.50000000E-01
                      -2.50000000E-01  5.00000000E-01  5.00000000E-01
                       0.00000000E+00 -2.50000000E-01  0.00000000E+00
                       2.50000000E-01 -2.50000000E-01  2.50000000E-01
                       5.00000000E-01 -2.50000000E-01  5.00000000E-01
                      -2.50000000E-01 -2.50000000E-01 -2.50000000E-01
                       5.00000000E-01  0.00000000E+00  2.50000000E-01
                      -2.50000000E-01  0.00000000E+00  5.00000000E-01
                       0.00000000E+00  5.00000000E-01  2.50000000E-01
                       0.00000000E+00 -2.50000000E-01  5.00000000E-01
                       0.00000000E+00  0.00000000E+00  2.50000000E-01
              kpt27   -2.50000000E-01  5.00000000E-01  0.00000000E+00
                       5.00000000E-01 -2.50000000E-01  0.00000000E+00
                      -2.50000000E-01 -2.50000000E-01  2.50000000E-01
                      -2.50000000E-01  0.00000000E+00  0.00000000E+00
                      -2.50000000E-01  2.50000000E-01  2.50000000E-01
                       5.00000000E-01  5.00000000E-01  2.50000000E-01
                      -2.50000000E-01  5.00000000E-01  5.00000000E-01
                       0.00000000E+00 -2.50000000E-01  0.00000000E+00
                       2.50000000E-01 -2.50000000E-01  2.50000000E-01
                       5.00000000E-01 -2.50000000E-01  5.00000000E-01
                      -2.50000000E-01 -2.50000000E-01 -2.50000000E-01
                       5.00000000E-01  0.00000000E+00  2.50000000E-01
                      -2.50000000E-01  0.00000000E+00  5.00000000E-01
                       0.00000000E+00  5.00000000E-01  2.50000000E-01
                       0.00000000E+00 -2.50000000E-01  5.00000000E-01
                       0.00000000E+00  0.00000000E+00  2.50000000E-01
              kpt31   -2.50000000E-01  5.00000000E-01  0.00000000E+00
                       5.00000000E-01 -2.50000000E-01  0.00000000E+00
                      -2.50000000E-01 -2.50000000E-01  2.50000000E-01
                      -2.50000000E-01  0.00000000E+00  0.00000000E+00
                      -2.50000000E-01  2.50000000E-01  2.50000000E-01
                       5.00000000E-01  5.00000000E-01  2.50000000E-01
                      -2.50000000E-01  5.00000000E-01  5.00000000E-01
                       0.00000000E+00 -2.50000000E-01  0.00000000E+00
                       2.50000000E-01 -2.50000000E-01  2.50000000E-01
                       5.00000000E-01 -2.50000000E-01  5.00000000E-01
                      -2.50000000E-01 -2.50000000E-01 -2.50000000E-01
                       5.00000000E-01  0.00000000E+00  2.50000000E-01
                      -2.50000000E-01  0.00000000E+00  5.00000000E-01
                       0.00000000E+00  5.00000000E-01  2.50000000E-01
                       0.00000000E+00 -2.50000000E-01  5.00000000E-01
                       0.00000000E+00  0.00000000E+00  2.50000000E-01
              kpt32   -2.50000000E-01  5.00000000E-01  0.00000000E+00
                       5.00000000E-01 -2.50000000E-01  0.00000000E+00
                      -2.50000000E-01 -2.50000000E-01  2.50000000E-01
                      -2.50000000E-01  0.00000000E+00  0.00000000E+00
                      -2.50000000E-01  2.50000000E-01  2.50000000E-01
                       5.00000000E-01  5.00000000E-01  2.50000000E-01
                      -2.50000000E-01  5.00000000E-01  5.00000000E-01
                       0.00000000E+00 -2.50000000E-01  0.00000000E+00
                       2.50000000E-01 -2.50000000E-01  2.50000000E-01
                       5.00000000E-01 -2.50000000E-01  5.00000000E-01
                      -2.50000000E-01 -2.50000000E-01 -2.50000000E-01
                       5.00000000E-01  0.00000000E+00  2.50000000E-01
                      -2.50000000E-01  0.00000000E+00  5.00000000E-01
                       0.00000000E+00  5.00000000E-01  2.50000000E-01
                       0.00000000E+00 -2.50000000E-01  5.00000000E-01
                       0.00000000E+00  0.00000000E+00  2.50000000E-01
              kpt33   -2.50000000E-01  5.00000000E-01  0.00000000E+00
                       5.00000000E-01 -2.50000000E-01  0.00000000E+00
                      -2.50000000E-01 -2.50000000E-01  2.50000000E-01
                      -2.50000000E-01  0.00000000E+00  0.00000000E+00
                      -2.50000000E-01  2.50000000E-01  2.50000000E-01
                       5.00000000E-01  5.00000000E-01  2.50000000E-01
                      -2.50000000E-01  5.00000000E-01  5.00000000E-01
                       0.00000000E+00 -2.50000000E-01  0.00000000E+00
                       2.50000000E-01 -2.50000000E-01  2.50000000E-01
                       5.00000000E-01 -2.50000000E-01  5.00000000E-01
                      -2.50000000E-01 -2.50000000E-01 -2.50000000E-01
                       5.00000000E-01  0.00000000E+00  2.50000000E-01
                      -2.50000000E-01  0.00000000E+00  5.00000000E-01
                       0.00000000E+00  5.00000000E-01  2.50000000E-01
                       0.00000000E+00 -2.50000000E-01  5.00000000E-01
                       0.00000000E+00  0.00000000E+00  2.50000000E-01
              kpt34   -2.50000000E-01  5.00000000E-01  0.00000000E+00
                       5.00000000E-01 -2.50000000E-01  0.00000000E+00
                      -2.50000000E-01 -2.50000000E-01  2.50000000E-01
                      -2.50000000E-01  0.00000000E+00  0.00000000E+00
                      -2.50000000E-01  2.50000000E-01  2.50000000E-01
                       5.00000000E-01  5.00000000E-01  2.50000000E-01
                      -2.50000000E-01  5.00000000E-01  5.00000000E-01
                       0.00000000E+00 -2.50000000E-01  0.00000000E+00
                       2.50000000E-01 -2.50000000E-01  2.50000000E-01
                       5.00000000E-01 -2.50000000E-01  5.00000000E-01
                      -2.50000000E-01 -2.50000000E-01 -2.50000000E-01
                       5.00000000E-01  0.00000000E+00  2.50000000E-01
                      -2.50000000E-01  0.00000000E+00  5.00000000E-01
                       0.00000000E+00  5.00000000E-01  2.50000000E-01
                       0.00000000E+00 -2.50000000E-01  5.00000000E-01
                       0.00000000E+00  0.00000000E+00  2.50000000E-01
              kpt35   -2.50000000E-01  5.00000000E-01  0.00000000E+00
                       5.00000000E-01 -2.50000000E-01  0.00000000E+00
                      -2.50000000E-01 -2.50000000E-01  2.50000000E-01
                      -2.50000000E-01  0.00000000E+00  0.00000000E+00
                      -2.50000000E-01  2.50000000E-01  2.50000000E-01
                       5.00000000E-01  5.00000000E-01  2.50000000E-01
                      -2.50000000E-01  5.00000000E-01  5.00000000E-01
                       0.00000000E+00 -2.50000000E-01  0.00000000E+00
                       2.50000000E-01 -2.50000000E-01  2.50000000E-01
                       5.00000000E-01 -2.50000000E-01  5.00000000E-01
                      -2.50000000E-01 -2.50000000E-01 -2.50000000E-01
                       5.00000000E-01  0.00000000E+00  2.50000000E-01
                      -2.50000000E-01  0.00000000E+00  5.00000000E-01
                       0.00000000E+00  5.00000000E-01  2.50000000E-01
                       0.00000000E+00 -2.50000000E-01  5.00000000E-01
                       0.00000000E+00  0.00000000E+00  2.50000000E-01
              kpt36   -2.50000000E-01  5.00000000E-01  0.00000000E+00
                       5.00000000E-01 -2.50000000E-01  0.00000000E+00
                      -2.50000000E-01 -2.50000000E-01  2.50000000E-01
                      -2.50000000E-01  0.00000000E+00  0.00000000E+00
                      -2.50000000E-01  2.50000000E-01  2.50000000E-01
                       5.00000000E-01  5.00000000E-01  2.50000000E-01
                      -2.50000000E-01  5.00000000E-01  5.00000000E-01
                       0.00000000E+00 -2.50000000E-01  0.00000000E+00
                       2.50000000E-01 -2.50000000E-01  2.50000000E-01
                       5.00000000E-01 -2.50000000E-01  5.00000000E-01
                      -2.50000000E-01 -2.50000000E-01 -2.50000000E-01
                       5.00000000E-01  0.00000000E+00  2.50000000E-01
                      -2.50000000E-01  0.00000000E+00  5.00000000E-01
                       0.00000000E+00  5.00000000E-01  2.50000000E-01
                       0.00000000E+00 -2.50000000E-01  5.00000000E-01
                       0.00000000E+00  0.00000000E+00  2.50000000E-01
              kpt37   -2.50000000E-01  5.00000000E-01  0.00000000E+00
                       5.00000000E-01 -2.50000000E-01  0.00000000E+00
                      -2.50000000E-01 -2.50000000E-01  2.50000000E-01
                      -2.50000000E-01  0.00000000E+00  0.00000000E+00
                      -2.50000000E-01  2.50000000E-01  2.50000000E-01
                       5.00000000E-01  5.00000000E-01  2.50000000E-01
                      -2.50000000E-01  5.00000000E-01  5.00000000E-01
                       0.00000000E+00 -2.50000000E-01  0.00000000E+00
                       2.50000000E-01 -2.50000000E-01  2.50000000E-01
                       5.00000000E-01 -2.50000000E-01  5.00000000E-01
                      -2.50000000E-01 -2.50000000E-01 -2.50000000E-01
                       5.00000000E-01  0.00000000E+00  2.50000000E-01
                      -2.50000000E-01  0.00000000E+00  5.00000000E-01
                       0.00000000E+00  5.00000000E-01  2.50000000E-01
                       0.00000000E+00 -2.50000000E-01  5.00000000E-01
                       0.00000000E+00  0.00000000E+00  2.50000000E-01
           kptopt11         1
           kptopt12         1
           kptopt13         1
           kptopt14         1
           kptopt15         1
           kptopt16         1
           kptopt17         1
           kptopt21         2
           kptopt22         2
           kptopt23         2
           kptopt24         2
           kptopt25         2
           kptopt26         2
           kptopt27         2
           kptopt31         2
           kptopt32         2
           kptopt33         2
           kptopt34         2
           kptopt35         2
           kptopt36         2
           kptopt37         2
         kptrlatt        2   -2    2     -2    2    2     -2   -2    2
          kptrlen      2.04400000E+01
P           mkmem11         2
P           mkmem12         2
P           mkmem13         2
P           mkmem14         2
P           mkmem15         2
P           mkmem16         2
P           mkmem17         2
P           mkmem21        16
P           mkmem22        16
P           mkmem23        16
P           mkmem24        16
P           mkmem25        16
P           mkmem26        16
P           mkmem27        16
P           mkmem31        16
P           mkmem32        16
P           mkmem33        16
P           mkmem34        16
P           mkmem35        16
P           mkmem36        16
P           mkmem37        16
P          mkqmem11         2
P          mkqmem12         2
P          mkqmem13         2
P          mkqmem14         2
P          mkqmem15         2
P          mkqmem16         2
P          mkqmem17         2
P          mkqmem21        16
P          mkqmem22        16
P          mkqmem23        16
P          mkqmem24        16
P          mkqmem25        16
P          mkqmem26        16
P          mkqmem27        16
P          mkqmem31        16
P          mkqmem32        16
P          mkqmem33        16
P          mkqmem34        16
P          mkqmem35        16
P          mkqmem36        16
P          mkqmem37        16
P          mk1mem11         2
P          mk1mem12         2
P          mk1mem13         2
P          mk1mem14         2
P          mk1mem15         2
P          mk1mem16         2
P          mk1mem17         2
P          mk1mem21        16
P          mk1mem22        16
P          mk1mem23        16
P          mk1mem24        16
P          mk1mem25        16
P          mk1mem26        16
P          mk1mem27        16
P          mk1mem31        16
P          mk1mem32        16
P          mk1mem33        16
P          mk1mem34        16
P          mk1mem35        16
P          mk1mem36        16
P          mk1mem37        16
            natom           2
            nband11         5
            nband12         5
            nband13         5
            nband14         5
            nband15         5
            nband16         5
            nband17         5
            nband21         5
            nband22         5
            nband23         5
            nband24         5
            nband25         5
            nband26         5
            nband27         5
            nband31         5
            nband32         5
            nband33         5
            nband34         5
            nband35         5
            nband36         5
            nband37         5
           ndtset          21
            ngfft          12      12      12
             nkpt11         2
             nkpt12         2
             nkpt13         2
             nkpt14         2
             nkpt15         2
             nkpt16         2
             nkpt17         2
             nkpt21        16
             nkpt22        16
             nkpt23        16
             nkpt24        16
             nkpt25        16
             nkpt26        16
             nkpt27        16
             nkpt31        16
             nkpt32        16
             nkpt33        16
             nkpt34        16
             nkpt35        16
             nkpt36        16
             nkpt37        16
             nqpt11         0
             nqpt12         0
             nqpt13         0
             nqpt14         0
             nqpt15         0
             nqpt16         0
             nqpt17         0
             nqpt21         1
             nqpt22         1
             nqpt23         1
             nqpt24         1
             nqpt25         1
             nqpt26         1
             nqpt27         1
             nqpt31         1
             nqpt32         1
             nqpt33         1
             nqpt34         1
             nqpt35         1
             nqpt36         1
             nqpt37         1
            nstep           3
             nsym          48
           ntypat           1
              occ11    2.000000  2.000000  2.000000  2.000000  0.000000
              occ12    2.000000  2.000000  2.000000  2.000000  0.000000
              occ13    2.000000  2.000000  2.000000  2.000000  0.000000
              occ14    2.000000  2.000000  2.000000  2.000000  0.000000
              occ15    2.000000  2.000000  2.000000  2.000000  0.000000
              occ16    2.000000  2.000000  2.000000  2.000000  0.000000
              occ17    2.000000  2.000000  2.000000  2.000000  0.000000
              occ21    2.000000  2.000000  2.000000  2.000000  0.000000
              occ22    2.000000  2.000000  2.000000  2.000000  0.000000
              occ23    2.000000  2.000000  2.000000  2.000000  0.000000
              occ24    2.000000  2.000000  2.000000  2.000000  0.000000
              occ25    2.000000  2.000000  2.000000  2.000000  0.000000
              occ26    2.000000  2.000000  2.000000  2.000000  0.000000
              occ27    2.000000  2.000000  2.000000  2.000000  0.000000
              occ31    2.000000  2.000000  2.000000  2.000000  0.000000
              occ32    2.000000  2.000000  2.000000  2.000000  0.000000
              occ33    2.000000  2.000000  2.000000  2.000000  0.000000
              occ34    2.000000  2.000000  2.000000  2.000000  0.000000
              occ35    2.000000  2.000000  2.000000  2.000000  0.000000
              occ36    2.000000  2.000000  2.000000  2.000000  0.000000
              occ37    2.000000  2.000000  2.000000  2.000000  0.000000
        optdriver11         0
        optdriver12         0
        optdriver13         0
        optdriver14         0
        optdriver15         0
        optdriver16         0
        optdriver17         0
        optdriver21         1
        optdriver22         1
        optdriver23         1
        optdriver24         1
        optdriver25         1
        optdriver26         1
        optdriver27         1
        optdriver31         1
        optdriver32         1
        optdriver33         1
        optdriver34         1
        optdriver35         1
        optdriver36         1
        optdriver37         1
            rfdir11         0       0       0
            rfdir12         0       0       0
            rfdir13         0       0       0
            rfdir14         0       0       0
            rfdir15         0       0       0
            rfdir16         0       0       0
            rfdir17         0       0       0
            rfdir21         1       0       0
            rfdir22         1       0       0
            rfdir23         1       0       0
            rfdir24         1       0       0
            rfdir25         1       0       0
            rfdir26         1       0       0
            rfdir27         1       0       0
            rfdir31         1       0       0
            rfdir32         1       0       0
            rfdir33         1       0       0
            rfdir34         1       0       0
            rfdir35         1       0       0
            rfdir36         1       0       0
            rfdir37         1       0       0
           rfelfd11         0
           rfelfd12         0
           rfelfd13         0
           rfelfd14         0
           rfelfd15         0
           rfelfd16         0
           rfelfd17         0
           rfelfd21         2
           rfelfd22         2
           rfelfd23         2
           rfelfd24         2
           rfelfd25         2
           rfelfd26         2
           rfelfd27         2
           rfelfd31         0
           rfelfd32         0
           rfelfd33         0
           rfelfd34         0
           rfelfd35         0
           rfelfd36         0
           rfelfd37         0
           rfphon11         0
           rfphon12         0
           rfphon13         0
           rfphon14         0
           rfphon15         0
           rfphon16         0
           rfphon17         0
           rfphon21         0
           rfphon22         0
           rfphon23         0
           rfphon24         0
           rfphon25         0
           rfphon26         0
           rfphon27         0
           rfphon31         1
           rfphon32         1
           rfphon33         1
           rfphon34         1
           rfphon35         1
           rfphon36         1
           rfphon37         1
            rprim      0.0000000000E+00  5.0000000000E-01  5.0000000000E-01
                       5.0000000000E-01  0.0000000000E+00  5.0000000000E-01
                       5.0000000000E-01  5.0000000000E-01  0.0000000000E+00
           shiftk      5.00000000E-01  5.00000000E-01  5.00000000E-01
          spgroup         227
           symrel      1  0  0   0  1  0   0  0  1      -1  0  0   0 -1  0   0  0 -1
                       0 -1  1   0 -1  0   1 -1  0       0  1 -1   0  1  0  -1  1  0
                      -1  0  0  -1  0  1  -1  1  0       1  0  0   1  0 -1   1 -1  0
                       0  1 -1   1  0 -1   0  0 -1       0 -1  1  -1  0  1   0  0  1
                      -1  0  0  -1  1  0  -1  0  1       1  0  0   1 -1  0   1  0 -1
                       0 -1  1   1 -1  0   0 -1  0       0  1 -1  -1  1  0   0  1  0
                       1  0  0   0  0  1   0  1  0      -1  0  0   0  0 -1   0 -1  0
                       0  1 -1   0  0 -1   1  0 -1       0 -1  1   0  0  1  -1  0  1
                      -1  0  1  -1  1  0  -1  0  0       1  0 -1   1 -1  0   1  0  0
                       0 -1  0   1 -1  0   0 -1  1       0  1  0  -1  1  0   0  1 -1
                       1  0 -1   0  0 -1   0  1 -1      -1  0  1   0  0  1   0 -1  1
                       0  1  0   0  0  1   1  0  0       0 -1  0   0  0 -1  -1  0  0
                       1  0 -1   0  1 -1   0  0 -1      -1  0  1   0 -1  1   0  0  1
                       0 -1  0   0 -1  1   1 -1  0       0  1  0   0  1 -1  -1  1  0
                      -1  0  1  -1  0  0  -1  1  0       1  0 -1   1  0  0   1 -1  0
                       0  1  0   1  0  0   0  0  1       0 -1  0  -1  0  0   0  0 -1
                       0  0 -1   0  1 -1   1  0 -1       0  0  1   0 -1  1  -1  0  1
                       1 -1  0   0 -1  1   0 -1  0      -1  1  0   0  1 -1   0  1  0
                       0  0  1   1  0  0   0  1  0       0  0 -1  -1  0  0   0 -1  0
                      -1  1  0  -1  0  0  -1  0  1       1 -1  0   1  0  0   1  0 -1
                       0  0  1   0  1  0   1  0  0       0  0 -1   0 -1  0  -1  0  0
                       1 -1  0   0 -1  0   0 -1  1      -1  1  0   0  1  0   0  1 -1
                       0  0 -1   1  0 -1   0  1 -1       0  0  1  -1  0  1   0 -1  1
                      -1  1  0  -1  0  1  -1  0  0       1 -1  0   1  0 -1   1  0  0
            tnons      0.0000000  0.0000000  0.0000000     0.0000000  0.0000000  0.0000000
                       0.0000000  0.5000000  0.0000000     0.0000000  0.5000000  0.0000000
                       0.5000000  0.0000000  0.0000000     0.5000000  0.0000000  0.0000000
                       0.0000000  0.0000000  0.5000000     0.0000000  0.0000000  0.5000000
                       0.5000000  0.0000000  0.0000000     0.5000000  0.0000000  0.0000000
                       0.0000000  0.5000000  0.0000000     0.0000000  0.5000000  0.0000000
                       0.0000000  0.0000000  0.0000000     0.0000000  0.0000000  0.0000000
                       0.0000000  0.0000000  0.5000000     0.0000000  0.0000000  0.5000000
                       0.5000000  0.0000000  0.0000000     0.5000000  0.0000000  0.0000000
                       0.0000000  0.5000000  0.0000000     0.0000000  0.5000000  0.0000000
                       0.0000000  0.0000000  0.5000000     0.0000000  0.0000000  0.5000000
                       0.0000000  0.0000000  0.0000000     0.0000000  0.0000000  0.0000000
                       0.0000000  0.0000000  0.5000000     0.0000000  0.0000000  0.5000000
                       0.0000000  0.5000000  0.0000000     0.0000000  0.5000000  0.0000000
                       0.5000000  0.0000000  0.0000000     0.5000000  0.0000000  0.0000000
                       0.0000000  0.0000000  0.0000000     0.0000000  0.0000000  0.0000000
                       0.0000000  0.0000000  0.5000000     0.0000000  0.0000000  0.5000000
                       0.0000000  0.5000000  0.0000000     0.0000000  0.5000000  0.0000000
                       0.0000000  0.0000000  0.0000000     0.0000000  0.0000000  0.0000000
                       0.5000000  0.0000000  0.0000000     0.5000000  0.0000000  0.0000000
                       0.0000000  0.0000000  0.0000000     0.0000000  0.0000000  0.0000000
                       0.0000000  0.5000000  0.0000000     0.0000000  0.5000000  0.0000000
                       0.0000000  0.0000000  0.5000000     0.0000000  0.0000000  0.5000000
                       0.5000000  0.0000000  0.0000000     0.5000000  0.0000000  0.0000000
           tolvrs11    1.00000000E-10
           tolvrs12    1.00000000E-10
           tolvrs13    1.00000000E-10
           tolvrs14    1.00000000E-10
           tolvrs15    1.00000000E-10
           tolvrs16    1.00000000E-10
           tolvrs17    1.00000000E-10
           tolvrs21    0.00000000E+00
           tolvrs22    0.00000000E+00
           tolvrs23    0.00000000E+00
           tolvrs24    0.00000000E+00
           tolvrs25    0.00000000E+00
           tolvrs26    0.00000000E+00
           tolvrs27    0.00000000E+00
           tolvrs31    1.00000000E-10
           tolvrs32    1.00000000E-10
           tolvrs33    1.00000000E-10
           tolvrs34    1.00000000E-10
           tolvrs35    1.00000000E-10
           tolvrs36    1.00000000E-10
           tolvrs37    1.00000000E-10
           tolwfr11    0.00000000E+00
           tolwfr12    0.00000000E+00
           tolwfr13    0.00000000E+00
           tolwfr14    0.00000000E+00
           tolwfr15    0.00000000E+00
           tolwfr16    0.00000000E+00
           tolwfr17    0.00000000E+00
           tolwfr21    1.00000000E-22
           tolwfr22    1.00000000E-22
           tolwfr23    1.00000000E-22
           tolwfr24    1.00000000E-22
           tolwfr25    1.00000000E-22
           tolwfr26    1.00000000E-22
           tolwfr27    1.00000000E-22
           tolwfr31    0.00000000E+00
           tolwfr32    0.00000000E+00
           tolwfr33    0.00000000E+00
           tolwfr34    0.00000000E+00
           tolwfr35    0.00000000E+00
           tolwfr36    0.00000000E+00
           tolwfr37    0.00000000E+00
            typat      1  1
              wtk11      0.75000    0.25000
              wtk12      0.75000    0.25000
              wtk13      0.75000    0.25000
              wtk14      0.75000    0.25000
              wtk15      0.75000    0.25000
              wtk16      0.75000    0.25000
              wtk17      0.75000    0.25000
              wtk21      0.06250    0.06250    0.06250    0.06250    0.06250    0.06250
                         0.06250    0.06250    0.06250    0.06250    0.06250    0.06250
                         0.06250    0.06250    0.06250    0.06250
              wtk22      0.06250    0.06250    0.06250    0.06250    0.06250    0.06250
                         0.06250    0.06250    0.06250    0.06250    0.06250    0.06250
                         0.06250    0.06250    0.06250    0.06250
              wtk23      0.06250    0.06250    0.06250    0.06250    0.06250    0.06250
                         0.06250    0.06250    0.06250    0.06250    0.06250    0.06250
                         0.06250    0.06250    0.06250    0.06250
              wtk24      0.06250    0.06250    0.06250    0.06250    0.06250    0.06250
                         0.06250    0.06250    0.06250    0.06250    0.06250    0.06250
                         0.06250    0.06250    0.06250    0.06250
              wtk25      0.06250    0.06250    0.06250    0.06250    0.06250    0.06250
                         0.06250    0.06250    0.06250    0.06250    0.06250    0.06250
                         0.06250    0.06250    0.06250    0.06250
              wtk26      0.06250    0.06250    0.06250    0.06250    0.06250    0.06250
                         0.06250    0.06250    0.06250    0.06250    0.06250    0.06250
                         0.06250    0.06250    0.06250    0.06250
              wtk27      0.06250    0.06250    0.06250    0.06250    0.06250    0.06250
                         0.06250    0.06250    0.06250    0.06250    0.06250    0.06250
                         0.06250    0.06250    0.06250    0.06250
              wtk31      0.06250    0.06250    0.06250    0.06250    0.06250    0.06250
                         0.06250    0.06250    0.06250    0.06250    0.06250    0.06250
                         0.06250    0.06250    0.06250    0.06250
              wtk32      0.06250    0.06250    0.06250    0.06250    0.06250    0.06250
                         0.06250    0.06250    0.06250    0.06250    0.06250    0.06250
                         0.06250    0.06250    0.06250    0.06250
              wtk33      0.06250    0.06250    0.06250    0.06250    0.06250    0.06250
                         0.06250    0.06250    0.06250    0.06250    0.06250    0.06250
                         0.06250    0.06250    0.06250    0.06250
              wtk34      0.06250    0.06250    0.06250    0.06250    0.06250    0.06250
                         0.06250    0.06250    0.06250    0.06250    0.06250    0.06250
                         0.06250    0.06250    0.06250    0.06250
              wtk35      0.06250    0.06250    0.06250    0.06250    0.06250    0.06250
                         0.06250    0.06250    0.06250    0.06250    0.06250    0.06250
                         0.06250    0.06250    0.06250    0.06250
              wtk36      0.06250    0.06250    0.06250    0.06250    0.06250    0.06250
                         0.06250    0.06250    0.06250    0.06250    0.06250    0.06250
                         0.06250    0.06250    0.06250    0.06250
              wtk37      0.06250    0.06250    0.06250    0.06250    0.06250    0.06250
                         0.06250    0.06250    0.06250    0.06250    0.06250    0.06250
                         0.06250    0.06250    0.06250    0.06250
           xangst      6.7602388397E-01  6.7602388397E-01  6.7602388397E-01
                       4.7321671878E+00  4.7321671878E+00  4.7321671878E+00
            xcart      1.2775000000E+00  1.2775000000E+00  1.2775000000E+00
                       8.9425000000E+00  8.9425000000E+00  8.9425000000E+00
             xred      1.2500000000E-01  1.2500000000E-01  1.2500000000E-01
                       8.7500000000E-01  8.7500000000E-01  8.7500000000E-01
            znucl       14.00000

================================================================================

 chkinp: Checking input parameters for consistency, jdtset=  11.

 chkinp: Checking input parameters for consistency, jdtset=  12.

 chkinp: Checking input parameters for consistency, jdtset=  13.

 chkinp: Checking input parameters for consistency, jdtset=  14.

 chkinp: Checking input parameters for consistency, jdtset=  15.

 chkinp: Checking input parameters for consistency, jdtset=  16.

 chkinp: Checking input parameters for consistency, jdtset=  17.

 chkinp: Checking input parameters for consistency, jdtset=  21.

 chkinp: Checking input parameters for consistency, jdtset=  22.

 chkinp: Checking input parameters for consistency, jdtset=  23.

 chkinp: Checking input parameters for consistency, jdtset=  24.

 chkinp: Checking input parameters for consistency, jdtset=  25.

 chkinp: Checking input parameters for consistency, jdtset=  26.

 chkinp: Checking input parameters for consistency, jdtset=  27.

 chkinp: Checking input parameters for consistency, jdtset=  31.

 chkinp: Checking input parameters for consistency, jdtset=  32.

 chkinp: Checking input parameters for consistency, jdtset=  33.

 chkinp: Checking input parameters for consistency, jdtset=  34.

 chkinp: Checking input parameters for consistency, jdtset=  35.

 chkinp: Checking input parameters for consistency, jdtset=  36.

 chkinp: Checking input parameters for consistency, jdtset=  37.

================================================================================
== DATASET 11 ==================================================================
-   nproc =    1

 Exchange-correlation functional for the present dataset will be:
  LDA: Perdew-Zunger-Ceperley-Alder - ixc=2
 Citation for XC functional:
  J.P.Perdew and A.Zunger, PRB 23, 5048 (1981)

 Real(R)+Recip(G) space primitive vectors, cartesian coordinates (Bohr,Bohr^-1):
 R(1)=  0.0000000  5.1100000  5.1100000  G(1)= -0.0978474  0.0978474  0.0978474
 R(2)=  5.1100000  0.0000000  5.1100000  G(2)=  0.0978474 -0.0978474  0.0978474
 R(3)=  5.1100000  5.1100000  0.0000000  G(3)=  0.0978474  0.0978474 -0.0978474
 Unit cell volume ucvol=  2.6686566E+02 bohr^3
 Angles (23,13,12)=  6.00000000E+01  6.00000000E+01  6.00000000E+01 degrees

 getcut: wavevector=  0.0000  0.0000  0.0000  ngfft=  12  12  12
         ecut(hartree)=      3.000   => boxcut(ratio)=   2.12971

--- Pseudopotential description ------------------------------------------------
- pspini: atom type   1  psp file is /data/ABINIT/testf_gcc47/trunk_7.10.4-training/tests/Psps_for_tests/14-Si.nlcc.fhi
- pspatm: opening atomic psp file    /data/ABINIT/testf_gcc47/trunk_7.10.4-training/tests/Psps_for_tests/14-Si.nlcc.fhi
-   Si  APE 1.0 : Troullier-Martins scheme, Perdew-Wang LDA, llocal= 1
- 14.00000   4.00000  20091105                znucl, zion, pspdat
    6    7    3    2       600   0.00000      pspcod,pspxc,lmax,lloc,mmax,r2well
    3.04000000000000    1.00000000000000    0.00000000000000   rchrg,fchrg,qchrg
  1.025211          amesh (Hamman grid)
 pspatm: epsatm=    9.10637364
         --- l  ekb(1:nproj) -->
             0    1.487262
             1    0.696903
             3   -1.486919
 pspatm: atomic psp has been read  and splines computed

   1.45701978E+02                                ecore*ucvol(ha*bohr**3)
--------------------------------------------------------------------------------

P newkpt: treating      5 bands with npw=      69 for ikpt=   1 by node    0
P newkpt: treating      5 bands with npw=      65 for ikpt=   2 by node    0

_setup2: Arith. and geom. avg. npw (full set) are      68.000      67.977

================================================================================

     iter   Etot(hartree)      deltaE(h)  residm     vres2
 ETOT  1  -10.821844140516    -1.082E+01 8.551E-04 9.598E-01
 ETOT  2  -10.825379912551    -3.536E-03 2.988E-07 3.765E-02
 ETOT  3  -10.825469365798    -8.945E-05 8.571E-07 8.908E-04

 Cartesian components of stress tensor (hartree/bohr^3)
  sigma(1 1)=  5.32825918E-04  sigma(3 2)=  0.00000000E+00
  sigma(2 2)=  5.32825918E-04  sigma(3 1)=  0.00000000E+00
  sigma(3 3)=  5.32825918E-04  sigma(2 1)=  0.00000000E+00


 scprqt:  WARNING -
  nstep=    3 was not enough SCF cycles to converge;
  potential residual=  8.908E-04 exceeds tolvrs=  1.000E-10

================================================================================

 ----iterations are completed or convergence reached----

 Mean square residual over all n,k,spin=   3.6077E-07; max=  8.5712E-07
  -0.2500  0.5000  0.0000    1  5.06243E-07 kpt; spin; max resid(k); each band:
  3.77E-07 4.21E-07 3.10E-07 3.65E-08 5.06E-07
  -0.2500  0.0000  0.0000    1  8.57123E-07 kpt; spin; max resid(k); each band:
  5.41E-07 5.30E-07 1.41E-08 1.41E-08 8.57E-07
 reduced coordinates (array xred) for    2 atoms
       0.125000000000      0.125000000000      0.125000000000
       0.875000000000      0.875000000000      0.875000000000
 rms dE/dt=  4.1435E-28; max dE/dt=  2.2842E-28; dE/dt below (all hartree)
    1      -0.000000000000     -0.000000000000      0.000000000000
    2      -0.000000000000      0.000000000000     -0.000000000000

 cartesian coordinates (angstrom) at end:
    1      0.67602388397372     0.67602388397372     0.67602388397372
    2      4.73216718781608     4.73216718781608     4.73216718781608

 cartesian forces (hartree/bohr) at end:
    1      0.00000000000000    -0.00000000000000     0.00000000000000
    2     -0.00000000000000     0.00000000000000    -0.00000000000000
 frms,max,avg= 6.2268960E-29 7.3634495E-29   0.000E+00  0.000E+00  0.000E+00 h/b

 cartesian forces (eV/Angstrom) at end:
    1      0.00000000000000    -0.00000000000000     0.00000000000000
    2     -0.00000000000000     0.00000000000000    -0.00000000000000
 frms,max,avg= 3.2019984E-27 3.7864377E-27   0.000E+00  0.000E+00  0.000E+00 e/A
 length scales= 10.220000000000 10.220000000000 10.220000000000 bohr
              =  5.408191071790  5.408191071790  5.408191071790 angstroms
 prteigrs : about to open file t81o_DS11_EIG
 Fermi (or HOMO) energy (hartree) =   0.13529   Average Vxc (hartree)=  -0.35970
 Eigenvalues (hartree) for nkpt=   2  k points:
 kpt#   1, nband=  5, wtk=  0.75000, kpt= -0.2500  0.5000  0.0000 (reduced coord)
  -0.16568  -0.06471   0.03106   0.07921   0.22418
 kpt#   2, nband=  5, wtk=  0.25000, kpt= -0.2500  0.0000  0.0000 (reduced coord)
  -0.23832   0.02198   0.13529   0.13529   0.24722
 Fermi (or HOMO) energy (eV) =   3.68135   Average Vxc (eV)=  -9.78790
 Eigenvalues (   eV  ) for nkpt=   2  k points:
 kpt#   1, nband=  5, wtk=  0.75000, kpt= -0.2500  0.5000  0.0000 (reduced coord)
  -4.50849  -1.76096   0.84524   2.15545   6.10016
 kpt#   2, nband=  5, wtk=  0.25000, kpt= -0.2500  0.0000  0.0000 (reduced coord)
  -6.48502   0.59804   3.68135   3.68135   6.72733
 Total charge density [el/Bohr^3]
,     Maximum=    9.0500E-02  at reduced coord.    0.0000    0.0000    0.5000
,Next maximum=    9.0500E-02  at reduced coord.    0.0000    0.5000    0.0000
,     Minimum=    3.7941E-03  at reduced coord.    0.4167    0.3333    0.3333
,Next minimum=    3.7941E-03  at reduced coord.    0.3333    0.4167    0.3333
,  Integrated=    8.0000E+00

--------------------------------------------------------------------------------
 Components of total free energy (in Hartree) :

    Kinetic energy  =  2.94861716406889E+00
    Hartree energy  =  5.29283473781004E-01
    XC energy       = -5.61196982558845E+00
    Ewald energy    = -8.43334331763888E+00
    PspCore energy  =  5.45974994332639E-01
    Loc. psp. energy= -2.46259436658598E+00
    NL   psp  energy=  1.65856251183301E+00
    >>>>>>>>> Etotal= -1.08254693657978E+01

 Other information on the energy :
    Total energy(eV)= -2.94576002377394E+02 ; Band energy (Ha)=  -1.5307090714E-01
--------------------------------------------------------------------------------

 Cartesian components of stress tensor (hartree/bohr^3)
  sigma(1 1)=  5.32825918E-04  sigma(3 2)=  0.00000000E+00
  sigma(2 2)=  5.32825918E-04  sigma(3 1)=  0.00000000E+00
  sigma(3 3)=  5.32825918E-04  sigma(2 1)=  0.00000000E+00

-Cartesian components of stress tensor (GPa)         [Pressure= -1.5676E+01 GPa]
- sigma(1 1)=  1.56762771E+01  sigma(3 2)=  0.00000000E+00
- sigma(2 2)=  1.56762771E+01  sigma(3 1)=  0.00000000E+00
- sigma(3 3)=  1.56762771E+01  sigma(2 1)=  0.00000000E+00

================================================================================
== DATASET 12 ==================================================================
-   nproc =    1

 Real(R)+Recip(G) space primitive vectors, cartesian coordinates (Bohr,Bohr^-1):
 R(1)=  0.0000000  5.1100000  5.1100000  G(1)= -0.0978474  0.0978474  0.0978474
 R(2)=  5.1100000  0.0000000  5.1100000  G(2)=  0.0978474 -0.0978474  0.0978474
 R(3)=  5.1100000  5.1100000  0.0000000  G(3)=  0.0978474  0.0978474 -0.0978474
 Unit cell volume ucvol=  2.6686566E+02 bohr^3
 Angles (23,13,12)=  6.00000000E+01  6.00000000E+01  6.00000000E+01 degrees

 getcut: wavevector=  0.0000  0.0000  0.0000  ngfft=  12  12  12
         ecut(hartree)=      3.000   => boxcut(ratio)=   2.12971

--- Pseudopotential description ------------------------------------------------
- pspini: atom type   1  psp file is /data/ABINIT/testf_gcc47/trunk_7.10.4-training/tests/Psps_for_tests/14-Si.nlcc.fhi
- pspatm: opening atomic psp file    /data/ABINIT/testf_gcc47/trunk_7.10.4-training/tests/Psps_for_tests/14-Si.nlcc.fhi
-   Si  APE 1.0 : Troullier-Martins scheme, Perdew-Wang LDA, llocal= 1
- 14.00000   4.00000  20091105                znucl, zion, pspdat
    6    7    3    2       600   0.00000      pspcod,pspxc,lmax,lloc,mmax,r2well
    3.04000000000000    1.00000000000000    0.00000000000000   rchrg,fchrg,qchrg
  1.025211          amesh (Hamman grid)
 pspatm: epsatm=    9.10637364
         --- l  ekb(1:nproj) -->
             0    1.487262
             1    0.696903
             3   -1.486919
 pspatm: atomic psp has been read  and splines computed

--------------------------------------------------------------------------------

P newkpt: treating      5 bands with npw=      69 for ikpt=   1 by node    0
P newkpt: treating      5 bands with npw=      65 for ikpt=   2 by node    0

_setup2: Arith. and geom. avg. npw (full set) are      68.000      67.977

================================================================================

     iter   Etot(hartree)      deltaE(h)  residm     vres2
 ETOT  1  -10.821844140516    -1.082E+01 8.551E-04 9.598E-01
 ETOT  2  -10.825379912551    -3.536E-03 2.988E-07 3.765E-02
 ETOT  3  -10.825469365798    -8.945E-05 8.571E-07 8.908E-04

 Cartesian components of stress tensor (hartree/bohr^3)
  sigma(1 1)=  5.32825918E-04  sigma(3 2)=  0.00000000E+00
  sigma(2 2)=  5.32825918E-04  sigma(3 1)=  0.00000000E+00
  sigma(3 3)=  5.32825918E-04  sigma(2 1)=  0.00000000E+00


 scprqt:  WARNING -
  nstep=    3 was not enough SCF cycles to converge;
  potential residual=  8.908E-04 exceeds tolvrs=  1.000E-10

================================================================================

 ----iterations are completed or convergence reached----

 Mean square residual over all n,k,spin=   3.6077E-07; max=  8.5712E-07
  -0.2500  0.5000  0.0000    1  5.06243E-07 kpt; spin; max resid(k); each band:
  3.77E-07 4.21E-07 3.10E-07 3.65E-08 5.06E-07
  -0.2500  0.0000  0.0000    1  8.57123E-07 kpt; spin; max resid(k); each band:
  5.41E-07 5.30E-07 1.41E-08 1.41E-08 8.57E-07
 reduced coordinates (array xred) for    2 atoms
       0.125000000000      0.125000000000      0.125000000000
       0.875000000000      0.875000000000      0.875000000000
 rms dE/dt=  0.0000E+00; max dE/dt=  0.0000E+00; dE/dt below (all hartree)
    1       0.000000000000      0.000000000000      0.000000000000
    2       0.000000000000      0.000000000000      0.000000000000

 cartesian coordinates (angstrom) at end:
    1      0.67602388397372     0.67602388397372     0.67602388397372
    2      4.73216718781608     4.73216718781608     4.73216718781608

 cartesian forces (hartree/bohr) at end:
    1     -0.00000000000000    -0.00000000000000    -0.00000000000000
    2     -0.00000000000000    -0.00000000000000    -0.00000000000000
 frms,max,avg= 0.0000000E+00 0.0000000E+00   0.000E+00  0.000E+00  0.000E+00 h/b

 cartesian forces (eV/Angstrom) at end:
    1     -0.00000000000000    -0.00000000000000    -0.00000000000000
    2     -0.00000000000000    -0.00000000000000    -0.00000000000000
 frms,max,avg= 0.0000000E+00 0.0000000E+00   0.000E+00  0.000E+00  0.000E+00 e/A
 length scales= 10.220000000000 10.220000000000 10.220000000000 bohr
              =  5.408191071790  5.408191071790  5.408191071790 angstroms
 prteigrs : about to open file t81o_DS12_EIG
 Fermi (or HOMO) energy (hartree) =   0.13529   Average Vxc (hartree)=  -0.35970
 Eigenvalues (hartree) for nkpt=   2  k points:
 kpt#   1, nband=  5, wtk=  0.75000, kpt= -0.2500  0.5000  0.0000 (reduced coord)
  -0.16568  -0.06471   0.03106   0.07921   0.22418
 kpt#   2, nband=  5, wtk=  0.25000, kpt= -0.2500  0.0000  0.0000 (reduced coord)
  -0.23832   0.02198   0.13529   0.13529   0.24722
 Fermi (or HOMO) energy (eV) =   3.68135   Average Vxc (eV)=  -9.78790
 Eigenvalues (   eV  ) for nkpt=   2  k points:
 kpt#   1, nband=  5, wtk=  0.75000, kpt= -0.2500  0.5000  0.0000 (reduced coord)
  -4.50849  -1.76096   0.84524   2.15545   6.10016
 kpt#   2, nband=  5, wtk=  0.25000, kpt= -0.2500  0.0000  0.0000 (reduced coord)
  -6.48502   0.59804   3.68135   3.68135   6.72733
 Total charge density [el/Bohr^3]
,     Maximum=    9.0500E-02  at reduced coord.    0.0000    0.0000    0.5000
,Next maximum=    9.0500E-02  at reduced coord.    0.0000    0.5000    0.0000
,     Minimum=    3.7941E-03  at reduced coord.    0.4167    0.3333    0.3333
,Next minimum=    3.7941E-03  at reduced coord.    0.3333    0.4167    0.3333
,  Integrated=    8.0000E+00

--------------------------------------------------------------------------------
 Components of total free energy (in Hartree) :

    Kinetic energy  =  2.94861716406892E+00
    Hartree energy  =  5.29283473781018E-01
    XC energy       = -5.61196982558844E+00
    Ewald energy    = -8.43334331763888E+00
    PspCore energy  =  5.45974994332639E-01
    Loc. psp. energy= -2.46259436658605E+00
    NL   psp  energy=  1.65856251183304E+00
    >>>>>>>>> Etotal= -1.08254693657977E+01

 Other information on the energy :
    Total energy(eV)= -2.94576002377393E+02 ; Band energy (Ha)=  -1.5307090714E-01
--------------------------------------------------------------------------------

 Cartesian components of stress tensor (hartree/bohr^3)
  sigma(1 1)=  5.32825918E-04  sigma(3 2)=  0.00000000E+00
  sigma(2 2)=  5.32825918E-04  sigma(3 1)=  0.00000000E+00
  sigma(3 3)=  5.32825918E-04  sigma(2 1)=  0.00000000E+00

-Cartesian components of stress tensor (GPa)         [Pressure= -1.5676E+01 GPa]
- sigma(1 1)=  1.56762771E+01  sigma(3 2)=  0.00000000E+00
- sigma(2 2)=  1.56762771E+01  sigma(3 1)=  0.00000000E+00
- sigma(3 3)=  1.56762771E+01  sigma(2 1)=  0.00000000E+00

================================================================================
== DATASET 13 ==================================================================
-   nproc =    1

 Exchange-correlation functional for the present dataset will be:
  GGA: Perdew-Burke-Ernzerhof functional - ixc=11
 Citation for XC functional:
  J.P.Perdew, K.Burke, M.Ernzerhof, PRL 77, 3865 (1996)

 Real(R)+Recip(G) space primitive vectors, cartesian coordinates (Bohr,Bohr^-1):
 R(1)=  0.0000000  5.1100000  5.1100000  G(1)= -0.0978474  0.0978474  0.0978474
 R(2)=  5.1100000  0.0000000  5.1100000  G(2)=  0.0978474 -0.0978474  0.0978474
 R(3)=  5.1100000  5.1100000  0.0000000  G(3)=  0.0978474  0.0978474 -0.0978474
 Unit cell volume ucvol=  2.6686566E+02 bohr^3
 Angles (23,13,12)=  6.00000000E+01  6.00000000E+01  6.00000000E+01 degrees

 getcut: wavevector=  0.0000  0.0000  0.0000  ngfft=  12  12  12
         ecut(hartree)=      3.000   => boxcut(ratio)=   2.12971

--- Pseudopotential description ------------------------------------------------
[...]
              occ32    2.000000  2.000000  2.000000  2.000000  0.000000
              occ33    2.000000  2.000000  2.000000  2.000000  0.000000
              occ34    2.000000  2.000000  2.000000  2.000000  0.000000
              occ35    2.000000  2.000000  2.000000  2.000000  0.000000
              occ36    2.000000  2.000000  2.000000  2.000000  0.000000
              occ37    2.000000  2.000000  2.000000  2.000000  0.000000
        optdriver11         0
        optdriver12         0
        optdriver13         0
        optdriver14         0
        optdriver15         0
        optdriver16         0
        optdriver17         0
        optdriver21         1
        optdriver22         1
        optdriver23         1
        optdriver24         1
        optdriver25         1
        optdriver26         1
        optdriver27         1
        optdriver31         1
        optdriver32         1
        optdriver33         1
        optdriver34         1
        optdriver35         1
        optdriver36         1
        optdriver37         1
            rfdir11         0       0       0
            rfdir12         0       0       0
            rfdir13         0       0       0
            rfdir14         0       0       0
            rfdir15         0       0       0
            rfdir16         0       0       0
            rfdir17         0       0       0
            rfdir21         1       0       0
            rfdir22         1       0       0
            rfdir23         1       0       0
            rfdir24         1       0       0
            rfdir25         1       0       0
            rfdir26         1       0       0
            rfdir27         1       0       0
            rfdir31         1       0       0
            rfdir32         1       0       0
            rfdir33         1       0       0
            rfdir34         1       0       0
            rfdir35         1       0       0
            rfdir36         1       0       0
            rfdir37         1       0       0
           rfelfd11         0
           rfelfd12         0
           rfelfd13         0
           rfelfd14         0
           rfelfd15         0
           rfelfd16         0
           rfelfd17         0
           rfelfd21         2
           rfelfd22         2
           rfelfd23         2
           rfelfd24         2
           rfelfd25         2
           rfelfd26         2
           rfelfd27         2
           rfelfd31         0
           rfelfd32         0
           rfelfd33         0
           rfelfd34         0
           rfelfd35         0
           rfelfd36         0
           rfelfd37         0
           rfphon11         0
           rfphon12         0
           rfphon13         0
           rfphon14         0
           rfphon15         0
           rfphon16         0
           rfphon17         0
           rfphon21         0
           rfphon22         0
           rfphon23         0
           rfphon24         0
           rfphon25         0
           rfphon26         0
           rfphon27         0
           rfphon31         1
           rfphon32         1
           rfphon33         1
           rfphon34         1
           rfphon35         1
           rfphon36         1
           rfphon37         1
            rprim      0.0000000000E+00  5.0000000000E-01  5.0000000000E-01
                       5.0000000000E-01  0.0000000000E+00  5.0000000000E-01
                       5.0000000000E-01  5.0000000000E-01  0.0000000000E+00
           shiftk      5.00000000E-01  5.00000000E-01  5.00000000E-01
          spgroup         227
           strten11    5.3282591842E-04  5.3282591842E-04  5.3282591842E-04
                       0.0000000000E+00  0.0000000000E+00  0.0000000000E+00
           strten12    5.3282591842E-04  5.3282591842E-04  5.3282591842E-04
                       0.0000000000E+00  0.0000000000E+00  0.0000000000E+00
           strten13    3.8090252870E-04  3.8090252870E-04  3.8090252870E-04
                       0.0000000000E+00  0.0000000000E+00  0.0000000000E+00
           strten14    3.8090140838E-04  3.8090140838E-04  3.8090140838E-04
                       0.0000000000E+00  0.0000000000E+00  0.0000000000E+00
           strten15    5.3528740802E-04  5.3528740802E-04  5.3528740802E-04
                       0.0000000000E+00  0.0000000000E+00  0.0000000000E+00
           strten16    5.3528740802E-04  5.3528740802E-04  5.3528740802E-04
                       0.0000000000E+00  0.0000000000E+00  0.0000000000E+00
           strten17    5.3528648935E-04  5.3528648935E-04  5.3528648935E-04
                       0.0000000000E+00  0.0000000000E+00  0.0000000000E+00
           strten31    0.0000000000E+00  0.0000000000E+00  0.0000000000E+00
                       0.0000000000E+00  0.0000000000E+00  0.0000000000E+00
           strten32    0.0000000000E+00  0.0000000000E+00  0.0000000000E+00
                       0.0000000000E+00  0.0000000000E+00  0.0000000000E+00
           strten33    0.0000000000E+00  0.0000000000E+00  0.0000000000E+00
                       0.0000000000E+00  0.0000000000E+00  0.0000000000E+00
           strten34    0.0000000000E+00  0.0000000000E+00  0.0000000000E+00
                       0.0000000000E+00  0.0000000000E+00  0.0000000000E+00
           strten35    0.0000000000E+00  0.0000000000E+00  0.0000000000E+00
                       0.0000000000E+00  0.0000000000E+00  0.0000000000E+00
           strten36    0.0000000000E+00  0.0000000000E+00  0.0000000000E+00
                       0.0000000000E+00  0.0000000000E+00  0.0000000000E+00
           strten37    0.0000000000E+00  0.0000000000E+00  0.0000000000E+00
                       0.0000000000E+00  0.0000000000E+00  0.0000000000E+00
           symrel      1  0  0   0  1  0   0  0  1      -1  0  0   0 -1  0   0  0 -1
                       0 -1  1   0 -1  0   1 -1  0       0  1 -1   0  1  0  -1  1  0
                      -1  0  0  -1  0  1  -1  1  0       1  0  0   1  0 -1   1 -1  0
                       0  1 -1   1  0 -1   0  0 -1       0 -1  1  -1  0  1   0  0  1
                      -1  0  0  -1  1  0  -1  0  1       1  0  0   1 -1  0   1  0 -1
                       0 -1  1   1 -1  0   0 -1  0       0  1 -1  -1  1  0   0  1  0
                       1  0  0   0  0  1   0  1  0      -1  0  0   0  0 -1   0 -1  0
                       0  1 -1   0  0 -1   1  0 -1       0 -1  1   0  0  1  -1  0  1
                      -1  0  1  -1  1  0  -1  0  0       1  0 -1   1 -1  0   1  0  0
                       0 -1  0   1 -1  0   0 -1  1       0  1  0  -1  1  0   0  1 -1
                       1  0 -1   0  0 -1   0  1 -1      -1  0  1   0  0  1   0 -1  1
                       0  1  0   0  0  1   1  0  0       0 -1  0   0  0 -1  -1  0  0
                       1  0 -1   0  1 -1   0  0 -1      -1  0  1   0 -1  1   0  0  1
                       0 -1  0   0 -1  1   1 -1  0       0  1  0   0  1 -1  -1  1  0
                      -1  0  1  -1  0  0  -1  1  0       1  0 -1   1  0  0   1 -1  0
                       0  1  0   1  0  0   0  0  1       0 -1  0  -1  0  0   0  0 -1
                       0  0 -1   0  1 -1   1  0 -1       0  0  1   0 -1  1  -1  0  1
                       1 -1  0   0 -1  1   0 -1  0      -1  1  0   0  1 -1   0  1  0
                       0  0  1   1  0  0   0  1  0       0  0 -1  -1  0  0   0 -1  0
                      -1  1  0  -1  0  0  -1  0  1       1 -1  0   1  0  0   1  0 -1
                       0  0  1   0  1  0   1  0  0       0  0 -1   0 -1  0  -1  0  0
                       1 -1  0   0 -1  0   0 -1  1      -1  1  0   0  1  0   0  1 -1
                       0  0 -1   1  0 -1   0  1 -1       0  0  1  -1  0  1   0 -1  1
                      -1  1  0  -1  0  1  -1  0  0       1 -1  0   1  0 -1   1  0  0
            tnons      0.0000000  0.0000000  0.0000000     0.0000000  0.0000000  0.0000000
                       0.0000000  0.5000000  0.0000000     0.0000000  0.5000000  0.0000000
                       0.5000000  0.0000000  0.0000000     0.5000000  0.0000000  0.0000000
                       0.0000000  0.0000000  0.5000000     0.0000000  0.0000000  0.5000000
                       0.5000000  0.0000000  0.0000000     0.5000000  0.0000000  0.0000000
                       0.0000000  0.5000000  0.0000000     0.0000000  0.5000000  0.0000000
                       0.0000000  0.0000000  0.0000000     0.0000000  0.0000000  0.0000000
                       0.0000000  0.0000000  0.5000000     0.0000000  0.0000000  0.5000000
                       0.5000000  0.0000000  0.0000000     0.5000000  0.0000000  0.0000000
                       0.0000000  0.5000000  0.0000000     0.0000000  0.5000000  0.0000000
                       0.0000000  0.0000000  0.5000000     0.0000000  0.0000000  0.5000000
                       0.0000000  0.0000000  0.0000000     0.0000000  0.0000000  0.0000000
                       0.0000000  0.0000000  0.5000000     0.0000000  0.0000000  0.5000000
                       0.0000000  0.5000000  0.0000000     0.0000000  0.5000000  0.0000000
                       0.5000000  0.0000000  0.0000000     0.5000000  0.0000000  0.0000000
                       0.0000000  0.0000000  0.0000000     0.0000000  0.0000000  0.0000000
                       0.0000000  0.0000000  0.5000000     0.0000000  0.0000000  0.5000000
                       0.0000000  0.5000000  0.0000000     0.0000000  0.5000000  0.0000000
                       0.0000000  0.0000000  0.0000000     0.0000000  0.0000000  0.0000000
                       0.5000000  0.0000000  0.0000000     0.5000000  0.0000000  0.0000000
                       0.0000000  0.0000000  0.0000000     0.0000000  0.0000000  0.0000000
                       0.0000000  0.5000000  0.0000000     0.0000000  0.5000000  0.0000000
                       0.0000000  0.0000000  0.5000000     0.0000000  0.0000000  0.5000000
                       0.5000000  0.0000000  0.0000000     0.5000000  0.0000000  0.0000000
           tolvrs11    1.00000000E-10
           tolvrs12    1.00000000E-10
           tolvrs13    1.00000000E-10
           tolvrs14    1.00000000E-10
           tolvrs15    1.00000000E-10
           tolvrs16    1.00000000E-10
           tolvrs17    1.00000000E-10
           tolvrs21    0.00000000E+00
           tolvrs22    0.00000000E+00
           tolvrs23    0.00000000E+00
           tolvrs24    0.00000000E+00
           tolvrs25    0.00000000E+00
           tolvrs26    0.00000000E+00
           tolvrs27    0.00000000E+00
           tolvrs31    1.00000000E-10
           tolvrs32    1.00000000E-10
           tolvrs33    1.00000000E-10
           tolvrs34    1.00000000E-10
           tolvrs35    1.00000000E-10
           tolvrs36    1.00000000E-10
           tolvrs37    1.00000000E-10
           tolwfr11    0.00000000E+00
           tolwfr12    0.00000000E+00
           tolwfr13    0.00000000E+00
           tolwfr14    0.00000000E+00
           tolwfr15    0.00000000E+00
           tolwfr16    0.00000000E+00
           tolwfr17    0.00000000E+00
           tolwfr21    1.00000000E-22
           tolwfr22    1.00000000E-22
           tolwfr23    1.00000000E-22
           tolwfr24    1.00000000E-22
           tolwfr25    1.00000000E-22
           tolwfr26    1.00000000E-22
           tolwfr27    1.00000000E-22
           tolwfr31    0.00000000E+00
           tolwfr32    0.00000000E+00
           tolwfr33    0.00000000E+00
           tolwfr34    0.00000000E+00
           tolwfr35    0.00000000E+00
           tolwfr36    0.00000000E+00
           tolwfr37    0.00000000E+00
            typat      1  1
              wtk11      0.75000    0.25000
              wtk12      0.75000    0.25000
              wtk13      0.75000    0.25000
              wtk14      0.75000    0.25000
              wtk15      0.75000    0.25000
              wtk16      0.75000    0.25000
              wtk17      0.75000    0.25000
              wtk21      0.06250    0.06250    0.06250    0.06250    0.06250    0.06250
                         0.06250    0.06250    0.06250    0.06250    0.06250    0.06250
                         0.06250    0.06250    0.06250    0.06250
              wtk22      0.06250    0.06250    0.06250    0.06250    0.06250    0.06250
                         0.06250    0.06250    0.06250    0.06250    0.06250    0.06250
                         0.06250    0.06250    0.06250    0.06250
              wtk23      0.06250    0.06250    0.06250    0.06250    0.06250    0.06250
                         0.06250    0.06250    0.06250    0.06250    0.06250    0.06250
                         0.06250    0.06250    0.06250    0.06250
              wtk24      0.06250    0.06250    0.06250    0.06250    0.06250    0.06250
                         0.06250    0.06250    0.06250    0.06250    0.06250    0.06250
                         0.06250    0.06250    0.06250    0.06250
              wtk25      0.06250    0.06250    0.06250    0.06250    0.06250    0.06250
                         0.06250    0.06250    0.06250    0.06250    0.06250    0.06250
                         0.06250    0.06250    0.06250    0.06250
              wtk26      0.06250    0.06250    0.06250    0.06250    0.06250    0.06250
                         0.06250    0.06250    0.06250    0.06250    0.06250    0.06250
                         0.06250    0.06250    0.06250    0.06250
              wtk27      0.06250    0.06250    0.06250    0.06250    0.06250    0.06250
                         0.06250    0.06250    0.06250    0.06250    0.06250    0.06250
                         0.06250    0.06250    0.06250    0.06250
              wtk31      0.06250    0.06250    0.06250    0.06250    0.06250    0.06250
                         0.06250    0.06250    0.06250    0.06250    0.06250    0.06250
                         0.06250    0.06250    0.06250    0.06250
              wtk32      0.06250    0.06250    0.06250    0.06250    0.06250    0.06250
                         0.06250    0.06250    0.06250    0.06250    0.06250    0.06250
                         0.06250    0.06250    0.06250    0.06250
              wtk33      0.06250    0.06250    0.06250    0.06250    0.06250    0.06250
                         0.06250    0.06250    0.06250    0.06250    0.06250    0.06250
                         0.06250    0.06250    0.06250    0.06250
              wtk34      0.06250    0.06250    0.06250    0.06250    0.06250    0.06250
                         0.06250    0.06250    0.06250    0.06250    0.06250    0.06250
                         0.06250    0.06250    0.06250    0.06250
              wtk35      0.06250    0.06250    0.06250    0.06250    0.06250    0.06250
                         0.06250    0.06250    0.06250    0.06250    0.06250    0.06250
                         0.06250    0.06250    0.06250    0.06250
              wtk36      0.06250    0.06250    0.06250    0.06250    0.06250    0.06250
                         0.06250    0.06250    0.06250    0.06250    0.06250    0.06250
                         0.06250    0.06250    0.06250    0.06250
              wtk37      0.06250    0.06250    0.06250    0.06250    0.06250    0.06250
                         0.06250    0.06250    0.06250    0.06250    0.06250    0.06250
                         0.06250    0.06250    0.06250    0.06250
           xangst      6.7602388397E-01  6.7602388397E-01  6.7602388397E-01
                       4.7321671878E+00  4.7321671878E+00  4.7321671878E+00
            xcart      1.2775000000E+00  1.2775000000E+00  1.2775000000E+00
                       8.9425000000E+00  8.9425000000E+00  8.9425000000E+00
             xred      1.2500000000E-01  1.2500000000E-01  1.2500000000E-01
                       8.7500000000E-01  8.7500000000E-01  8.7500000000E-01
            znucl       14.00000

================================================================================


- Timing analysis has been suppressed with timopt=0



================================================================================

 Suggested references for the acknowledgment of ABINIT usage.

 The users of ABINIT have little formal obligations with respect to the ABINIT group
 (those specified in the GNU General Public License, http://www.gnu.org/copyleft/gpl.txt).
 However, it is common practice in the scientific literature,
 to acknowledge the efforts of people that have made the research possible.
 In this spirit, please find below suggested citations of work written by ABINIT developers,
 corresponding to implementations inside of ABINIT that you have used in the present run.
 Note also that it will be of great value to readers of publications presenting these results,
 to read papers enabling them to understand the theoretical formalism and details
 of the ABINIT implementation.
 For information on why they are suggested, see also http://www.abinit.org/about/?text=acknowledgments.

 [1] Libxc: A library of exchange and correlation functionals for density functional theory.
 M.A.L. Marques, M.J.T. Oliveira, T. Burnus, Computer Physics Communications 183, 2227 (2012).
 Comment : to be cited when LibXC is used (negative value of ixc)
 Strong suggestion to cite this paper.

 [2] First-principles responses of solids to atomic displacements and homogeneous electric fields:,
 implementation of a conjugate-gradient algorithm. X. Gonze, Phys. Rev. B55, 10337 (1997).
 Comment : Non-vanishing rfphon and/or rfelfd, in the norm-conserving case.

 [3] Dynamical matrices, Born effective charges, dielectric permittivity tensors, and ,
 interatomic force constants from density-functional perturbation theory,
 X. Gonze and C. Lee, Phys. Rev. B55, 10355 (1997).
 Comment : Non-vanishing rfphon and/or rfelfd, in the norm-conserving case.

 [4] Ab initio pseudopotentials for electronic structure calculations of poly-atomic systems, 
 using density-functional theory.
 M. Fuchs, M. Scheffler, Comput. Phys. Commun. 119, 67 (1999).
 Comment : Some pseudopotential generated using the FHI code were used.

 [5] ABINIT : First-principles approach of materials and nanosystem properties.
 X. Gonze, B. Amadon, P.-M. Anglade, J.-M. Beuken, F. Bottin, P. Boulanger, F. Bruneval,
 D. Caliste, R. Caracas, M. Cote, T. Deutsch, L. Genovese, Ph. Ghosez, M. Giantomassi
 S. Goedecker, D.R. Hamann, P. Hermet, F. Jollet, G. Jomard, S. Leroux, M. Mancini, S. Mazevet,
 M.J.T. Oliveira, G. Onida, Y. Pouillon, T. Rangel, G.-M. Rignanese, D. Sangalli, R. Shaltaf,
 M. Torrent, M.J. Verstraete, G. Zerah, J.W. Zwanziger
 Computer Phys. Comm. 180, 2582-2615 (2009).
 Comment : the third generic paper describing the ABINIT project.
 Note that a version of this paper, that is not formatted for Computer Phys. Comm. 
 is available at http://www.abinit.org/about/ABINIT_CPC_v10.pdf .
 The licence allows the authors to put it on the Web.

 [6] A brief introduction to the ABINIT software package.
 X. Gonze, G.-M. Rignanese, M. Verstraete, J.-M. Beuken, Y. Pouillon, R. Caracas, F. Jollet,
 M. Torrent, G. Zerah, M. Mikami, Ph. Ghosez, M. Veithen, J.-Y. Raty, V. Olevano, F. Bruneval,
 L. Reining, R. Godby, G. Onida, D.R. Hamann, and D.C. Allan.
 Z. Kristallogr. 220, 558-562 (2005).
 Comment : the second generic paper describing the ABINIT project. Note that this paper
 should be cited especially if you are using the GW part of ABINIT, as several authors
 of this part are not in the list of authors of the first or third paper.
 The .pdf of the latter paper is available at http://www.abinit.org/about/zfk_0505-06_558-562.pdf.
 Note that it should not redistributed (Copyright by Oldenburg Wissenshaftverlag,
 the licence allows the authors to put it on the Web).
-
- Proc.   0 individual time (sec): cpu=         14.3  wall=         14.3

================================================================================

 Calculation completed.
.Delivered  161 WARNINGs and   0 COMMENTs to log file.
+Overall time at end (sec) : cpu=         14.3  wall=         14.3
