
.Version 7.9.3 of ABINIT 
.(sequential version, prepared for a x86_64_linux_gnu4.7 computer) 

.Copyright (C) 1998-2014 ABINIT group . 
 ABINIT comes with ABSOLUTELY NO WARRANTY.
 It is free software, and you are welcome to redistribute it
 under certain conditions (GNU General Public License,
 see ~abinit/COPYING or http://www.gnu.org/copyleft/gpl.txt).

 ABINIT is a project of the Universite Catholique de Louvain,
 Corning Inc. and other collaborators, see ~abinit/doc/developers/contributors.txt .
 Please read ~abinit/doc/users/acknowledgments.html for suggested
 acknowledgments of the ABINIT effort.
 For more information, see http://www.abinit.org .

.Starting date : Sat 30 Aug 2014.
- ( at 09h40 )
  
- input  file    -> tsv5_113.in
- output file    -> tsv5_113.out
- root for input  files -> tsv5_113i
- root for output files -> tsv5_113o


 Symmetries : space group Im m 2 (# 44); Bravais oI (body-center ortho.)
================================================================================
 Values of the parameters that define the memory need of the present run
   intxc =         0  ionmov =         0    iscf =        17 xclevel =         2
  lmnmax =         8   lnmax =         4   mband =         5  mffmem =         1
P  mgfft =        45   mkmem =        32 mpssoang=         2     mpw =      3705
  mqgrid =      3001   natom =         2    nfft =     91125    nkpt =        32
  nloalg =         4  nspden =         1 nspinor =         1  nsppol =         1
    nsym =         4  n1xccc =         1  ntypat =         2  occopt =         1
 PAW method is used; the additional fine FFT grid is defined by:
   mgfftf=        64    nfftf =    262144
================================================================================
P This job should need less than                      93.846 Mbytes of memory.
  Rough estimation (10% accuracy) of disk space for files :
_ WF disk file :      9.047 Mbytes ; DEN or POT disk file :      2.002 Mbytes.
================================================================================

--------------------------------------------------------------------------------
------------- Echo of variables that govern the present computation ------------
--------------------------------------------------------------------------------
-
- outvars: echo of selected default values                                      
-   accesswff0 =  0 , fftalg0 =112 , wfoptalg0 = 10
-
- outvars: echo of global parameters not present in the input file              
-  max_nthreads =    0
-
 -outvars: echo values of preprocessed input variables --------
            acell      1.0695849912E+01  1.0695849912E+01  1.0695849912E+01 Bohr
              amu      2.69815390E+01  7.49215900E+01
         berryopt          -1
             ecut      4.00000000E+01 Hartree
-          fftalg         112
              ixc          11
              kpt     -2.50000000E-01  5.00000000E-01  0.00000000E+00
                       5.00000000E-01 -2.50000000E-01  0.00000000E+00
                      -2.50000000E-01 -2.50000000E-01  2.50000000E-01
                      -2.50000000E-01  0.00000000E+00  0.00000000E+00
                       5.00000000E-01  2.50000000E-01  0.00000000E+00
                      -2.50000000E-01  2.50000000E-01  2.50000000E-01
                       2.50000000E-01  5.00000000E-01  0.00000000E+00
                       5.00000000E-01  5.00000000E-01  2.50000000E-01
                      -2.50000000E-01  5.00000000E-01  5.00000000E-01
                       0.00000000E+00 -2.50000000E-01  0.00000000E+00
                       2.50000000E-01 -2.50000000E-01  2.50000000E-01
                       5.00000000E-01 -2.50000000E-01  5.00000000E-01
                      -2.50000000E-01 -2.50000000E-01 -2.50000000E-01
                       2.50000000E-01  0.00000000E+00  0.00000000E+00
                       5.00000000E-01  0.00000000E+00  2.50000000E-01
                      -2.50000000E-01  0.00000000E+00  5.00000000E-01
                       0.00000000E+00  2.50000000E-01  0.00000000E+00
                       2.50000000E-01  2.50000000E-01  2.50000000E-01
                       5.00000000E-01  2.50000000E-01  5.00000000E-01
                      -2.50000000E-01  2.50000000E-01 -2.50000000E-01
                       0.00000000E+00  5.00000000E-01  2.50000000E-01
                       2.50000000E-01  5.00000000E-01  5.00000000E-01
                       5.00000000E-01  5.00000000E-01 -2.50000000E-01
                       0.00000000E+00 -2.50000000E-01  5.00000000E-01
                       2.50000000E-01 -2.50000000E-01 -2.50000000E-01
                       0.00000000E+00  0.00000000E+00  2.50000000E-01
                       2.50000000E-01  0.00000000E+00  5.00000000E-01
                       5.00000000E-01  0.00000000E+00 -2.50000000E-01
                       0.00000000E+00  2.50000000E-01  5.00000000E-01
                       2.50000000E-01  2.50000000E-01 -2.50000000E-01
                       0.00000000E+00  5.00000000E-01 -2.50000000E-01
                       0.00000000E+00  0.00000000E+00 -2.50000000E-01
           kptopt           3
         kptrlatt        2   -2    2     -2    2    2     -2   -2    2
          kptrlen      2.13916998E+01
P           mkmem          32
            natom           2
            nband           5
            ngfft          45      45      45
          ngfftdg          64      64      64
             nkpt          32
            nstep           1
             nsym           4
           ntypat           2
              occ      2.000000  2.000000  2.000000  2.000000  0.000000
        pawecutdg      8.00000000E+01 Hartree
           prtden           0
            prtwf           0
            rfdir           1       1       1
            rprim      0.0000000000E+00  5.0000000000E-01  5.0000000000E-01
                       5.0000000000E-01  0.0000000000E+00  5.0000000000E-01
                       5.0000000000E-01  5.0000000000E-01  0.0000000000E+00
           shiftk      5.00000000E-01  5.00000000E-01  5.00000000E-01
          spgroup          44
           symrel      1  0  0   0  1  0   0  0  1      -1  0  0  -1  0  1  -1  1  0
                      -1  0  0  -1  1  0  -1  0  1       1  0  0   0  0  1   0  1  0
           toldfe      1.00000000E-12 Hartree
            typat      1  2
           useylm           1
              wtk        0.03125    0.03125    0.03125    0.03125    0.03125    0.03125
                         0.03125    0.03125    0.03125    0.03125    0.03125    0.03125
                         0.03125    0.03125    0.03125    0.03125    0.03125    0.03125
                         0.03125    0.03125    0.03125    0.03125    0.03125    0.03125
                         0.03125    0.03125    0.03125    0.03125    0.03125    0.03125
                         0.03125    0.03125
           xangst      5.2917720859E-03  0.0000000000E+00  0.0000000000E+00
                       1.4149999941E+00  1.4149999941E+00  1.4149999941E+00
            xcart      1.0000000000E-02  0.0000000000E+00  0.0000000000E+00
                       2.6739624669E+00  2.6739624669E+00  2.6739624669E+00
             xred     -9.3494206465E-04  9.3494206465E-04  9.3494206465E-04
                       2.4999999896E-01  2.4999999896E-01  2.4999999896E-01
            znucl       13.00000   33.00000

================================================================================

 chkinp: Checking input parameters for consistency.

================================================================================
== DATASET  1 ==================================================================
-   nproc =    1

 Exchange-correlation functional for the present dataset will be:
  GGA: Perdew-Burke-Ernzerhof functional - ixc=11
 Citation for XC functional:
  J.P.Perdew, K.Burke, M.Ernzerhof, PRL 77, 3865 (1996)

 Real(R)+Recip(G) space primitive vectors, cartesian coordinates (Bohr,Bohr^-1):
 R(1)=  0.0000000  5.3479250  5.3479250  G(1)= -0.0934942  0.0934942  0.0934942
 R(2)=  5.3479250  0.0000000  5.3479250  G(2)=  0.0934942 -0.0934942  0.0934942
 R(3)=  5.3479250  5.3479250  0.0000000  G(3)=  0.0934942  0.0934942 -0.0934942
 Unit cell volume ucvol=  3.0590453E+02 bohr^3
 Angles (23,13,12)=  6.00000000E+01  6.00000000E+01  6.00000000E+01 degrees

 Coarse grid specifications (used for wave-functions):

 getcut: wavevector=  0.0000  0.0000  0.0000  ngfft=  45  45  45
         ecut(hartree)=     40.000   => boxcut(ratio)=   2.04342

 Fine grid specifications (used for densities):

 getcut: wavevector=  0.0000  0.0000  0.0000  ngfft=  64  64  64
         ecut(hartree)=     80.000   => boxcut(ratio)=   2.10169

--- Pseudopotential description ------------------------------------------------
- pspini: atom type   1  psp file is /data/ABINIT/testf_gcc47_serial/trunk_7.9.3-private/tests/Psps_for_tests/Al.gga.uspp.paw
- pspatm: opening atomic psp file    /data/ABINIT/testf_gcc47_serial/trunk_7.9.3-private/tests/Psps_for_tests/Al.gga.uspp.paw
- Paw atomic data extracted from US-psp (D.Vanderbilt): Aluminium
- 13.00000   3.00000  20050712                znucl, zion, pspdat
    7   11    1    0       604   0.00000      pspcod,pspxc,lmax,lloc,mmax,r2well
 Pseudopotential format is: paw3
 basis_size (lnmax)=  4 (lmn_size=  8), orbitals=   0   0   1   1
 Spheres core radius: rc_sph= 1.62418712
 4 radial meshes are used:
  - mesh 1: r(i)=AA*[exp(BB*(i-1))-1], size= 604 , AA= 0.70145E-04 BB= 0.16667E-01
  - mesh 2: r(i)=AA*[exp(BB*(i-1))-1], size= 636 , AA= 0.70145E-04 BB= 0.16667E-01
  - mesh 3: r(i)=AA*[exp(BB*(i-1))-1], size= 662 , AA= 0.70145E-04 BB= 0.16667E-01
  - mesh 4: r(i)=AA*[exp(BB*(i-1))-1], size= 713 , AA= 0.70145E-04 BB= 0.16667E-01
 Shapefunction is SIN type: shapef(r)=[sin(pi*r/rshp)/(pi*r/rshp)]**2
 Radius for shape functions = sphere core radius
 Radial grid used for partial waves is grid 1
 Radial grid used for projectors is grid  2
 Radial grid used for (t)core density is grid 3
 Radial grid used for Vloc is grid 4

 pawpsp_calc: WARNING -
  Atomic data could produce inaccurate results:
    Wavefunctions and pseudo-wavefunctions should
    be given on a radial mesh larger than the PAW
    spheres (at least 2 additional points) !
  Action: check your pseudopotential file.
 Compensation charge density is taken into account in XC energy/potential
 pspatm: atomic psp has been read  and splines computed

- pspini: atom type   2  psp file is /data/ABINIT/testf_gcc47_serial/trunk_7.9.3-private/tests/Psps_for_tests/As_ps.abinit.paw
- pspatm: opening atomic psp file    /data/ABINIT/testf_gcc47_serial/trunk_7.9.3-private/tests/Psps_for_tests/As_ps.abinit.paw
- arsenic ( 4elec) - PAW data extracted from US-psp (D.Vanderbilt) - generated by USpp2Abinit v2.2.1
- 33.00000   5.00000  20070607                znucl, zion, pspdat
    7   11    1    0       613   0.00000      pspcod,pspxc,lmax,lloc,mmax,r2well
 Pseudopotential format is: paw3
 basis_size (lnmax)=  4 (lmn_size=  8), orbitals=   0   0   1   1
 Spheres core radius: rc_sph= 2.20691143
 4 radial meshes are used:
  - mesh 1: r(i)=AA*[exp(BB*(i-1))-1], size= 613 , AA= 0.75114E-04 BB= 0.16949E-01
  - mesh 2: r(i)=AA*[exp(BB*(i-1))-1], size= 609 , AA= 0.75114E-04 BB= 0.16949E-01
  - mesh 3: r(i)=AA*[exp(BB*(i-1))-1], size= 665 , AA= 0.75114E-04 BB= 0.16949E-01
  - mesh 4: r(i)=AA*[exp(BB*(i-1))-1], size= 697 , AA= 0.75114E-04 BB= 0.16949E-01
 Shapefunction is BESSEL type: shapef(r,l)=aa(1,l)*jl(q(1,l)*r)+aa(2,l)*jl(q(2,l)*r)
 Radius for shape functions = sphere core radius
 Radial grid used for partial waves is grid 1
 Radial grid used for projectors is grid  2
 Radial grid used for (t)core density is grid 3
 Radial grid used for Vloc is grid 4
 Compensation charge density is taken into account in XC energy/potential
 pspatm: atomic psp has been read  and splines computed

   3.33677592E+02                                ecore*ucvol(ha*bohr**3)
--------------------------------------------------------------------------------

P newkpt: treating      5 bands with npw=    3695 for ikpt=   1 by node    0
P newkpt: treating      5 bands with npw=    3695 for ikpt=   2 by node    0
P newkpt: treating      5 bands with npw=    3695 for ikpt=   3 by node    0
P newkpt: treating      5 bands with npw=    3705 for ikpt=   4 by node    0
P newkpt: treating      5 bands with npw=    3695 for ikpt=   5 by node    0
P newkpt: treating      5 bands with npw=    3695 for ikpt=   6 by node    0
P newkpt: treating      5 bands with npw=    3695 for ikpt=   7 by node    0
P newkpt: treating      5 bands with npw=    3695 for ikpt=   8 by node    0
P newkpt: treating      5 bands with npw=    3695 for ikpt=   9 by node    0
P newkpt: treating      5 bands with npw=    3705 for ikpt=  10 by node    0
P newkpt: treating      5 bands with npw=    3695 for ikpt=  11 by node    0
P newkpt: treating      5 bands with npw=    3695 for ikpt=  12 by node    0
P newkpt: treating      5 bands with npw=    3705 for ikpt=  13 by node    0
P newkpt: treating      5 bands with npw=    3705 for ikpt=  14 by node    0
P newkpt: treating      5 bands with npw=    3695 for ikpt=  15 by node    0
P newkpt: treating      5 bands with npw=    3695 for ikpt=  16 by node    0
P newkpt: treating      5 bands with npw=    3705 for ikpt=  17 by node    0
P newkpt: treating      5 bands with npw=    3705 for ikpt=  18 by node    0
P newkpt: treating      5 bands with npw=    3695 for ikpt=  19 by node    0
P newkpt: treating      5 bands with npw=    3695 for ikpt=  20 by node    0
P newkpt: treating      5 bands with npw=    3695 for ikpt=  21 by node    0
P newkpt: treating      5 bands with npw=    3695 for ikpt=  22 by node    0
P newkpt: treating      5 bands with npw=    3695 for ikpt=  23 by node    0
P newkpt: treating      5 bands with npw=    3695 for ikpt=  24 by node    0
P newkpt: treating      5 bands with npw=    3695 for ikpt=  25 by node    0
P newkpt: treating      5 bands with npw=    3705 for ikpt=  26 by node    0
P newkpt: treating      5 bands with npw=    3695 for ikpt=  27 by node    0
P newkpt: treating      5 bands with npw=    3695 for ikpt=  28 by node    0
P newkpt: treating      5 bands with npw=    3695 for ikpt=  29 by node    0
P newkpt: treating      5 bands with npw=    3695 for ikpt=  30 by node    0
P newkpt: treating      5 bands with npw=    3695 for ikpt=  31 by node    0
P newkpt: treating      5 bands with npw=    3705 for ikpt=  32 by node    0

_setup2: Arith. and geom. avg. npw (full set) are    3697.500    3697.497
  initberry: for direction 1, nkstr =   2, nstr =     16
  initberry: for direction 2, nkstr =   2, nstr =     16
  initberry: for direction 3, nkstr =   2, nstr =     16

================================================================================

     iter   Etot(hartree)      deltaE(h)  residm     nres2
 ETOT  1  -8.5205947252120    -8.521E+00 1.718E-01 2.825E+01

 Computing the polarization (Berry phase) for reciprocal vector:
  0.50000  0.00000  0.00000 (in reduced coordinates)
 -0.04675  0.04675  0.04675 (in cartesian coordinates - atomic units)
 Number of strings:    16
 Number of k points in string:    2

 Summary of the results
 Electronic Berry phase     9.337967760E-03
            Ionic phase    -7.528048210E-01
            Total phase    -7.434668532E-01
    Remapping in [-1,1]    -7.434668532E-01

           Polarization    -1.500826103E-02 (a.u. of charge)/bohr^2
           Polarization    -8.586940748E-01 C/m^2


 Computing the polarization (Berry phase) for reciprocal vector:
  0.00000  0.50000  0.00000 (in reduced coordinates)
  0.04675 -0.04675  0.04675 (in cartesian coordinates - atomic units)
 Number of strings:    16
 Number of k points in string:    2

 Summary of the results
 Electronic Berry phase     6.007209090E-03
            Ionic phase    -7.471951790E-01
            Total phase    -7.411879699E-01
    Remapping in [-1,1]    -7.411879699E-01

           Polarization    -1.496225753E-02 (a.u. of charge)/bohr^2
           Polarization    -8.560619956E-01 C/m^2


 Computing the polarization (Berry phase) for reciprocal vector:
  0.00000  0.00000  0.50000 (in reduced coordinates)
  0.04675  0.04675 -0.04675 (in cartesian coordinates - atomic units)
 Number of strings:    16
 Number of k points in string:    2

 Summary of the results
 Electronic Berry phase     1.974789612E-02
            Ionic phase    -7.471951790E-01
            Total phase    -7.274472829E-01
    Remapping in [-1,1]    -7.274472829E-01

           Polarization    -1.468487621E-02 (a.u. of charge)/bohr^2
           Polarization    -8.401916895E-01 C/m^2


 Polarization in cartesian coordinates (a.u.):
 (the sum of the electronic and ionic Berry phase has been folded into [-1, 1])
     Electronic berry phase:        0.450259333E-03   0.508488766E-03   0.268269496E-03
     ...includes PAW on-site term:  0.164867374E-05   0.000000000E+00   0.000000000E+00
     Ionic:                        -0.261254303E-01  -0.262234999E-01  -0.262234999E-01  
     Total:                        -0.256751710E-01  -0.257150112E-01  -0.259552304E-01

 Polarization in cartesian coordinates (C/m^2):
 (the sum of the electronic and ionic Berry phase has been folded into [-1, 1])
     Electronic berry phase:        0.257614803E-01   0.290930635E-01   0.153489752E-01
     ...includes PAW on-site term:  0.943284749E-04   0.000000000E+00   0.000000000E+00
     Ionic:                        -0.149476026E+01  -0.150037129E+01  -0.150037129E+01  
     Total:                        -0.146899878E+01  -0.147127823E+01  -0.148502232E+01

 Cartesian components of stress tensor (hartree/bohr^3)
  sigma(1 1)=  5.06038290E-04  sigma(3 2)=  5.04561237E-05
  sigma(2 2)=  5.75510826E-04  sigma(3 1)=  0.00000000E+00
  sigma(3 3)=  5.75510826E-04  sigma(2 1)=  0.00000000E+00


 scprqt:  WARNING -
  nstep=    1 was not enough SCF cycles to converge;
  maximum energy difference=  8.521E+00 exceeds toldfe=  1.000E-12


 PAW TEST:
 ==== Compensation charge inside spheres ============
 The following values must be close to each other ...
 Compensation charge over spherical meshes =     -0.461863338635734
 Compensation charge over fine fft grid    =     -0.372362805268220

 ==== Results concerning PAW augmentation regions ====

 Total pseudopotential strength Dij (hartree):
 Atom #  1
   0.12429   0.15566   0.00000   0.00000  -0.00000   0.00000   0.00000  -0.00000
   0.15566   0.19272   0.00000   0.00000  -0.00000   0.00000   0.00000  -0.00000
   0.00000   0.00000   0.04989   0.00000   0.00000   0.05837   0.00000   0.00000
   0.00000   0.00000   0.00000   0.04989   0.00000   0.00000   0.05837   0.00000
  -0.00000  -0.00000   0.00000   0.00000   0.04989   0.00000   0.00000   0.05837
   0.00000   0.00000   0.05837   0.00000   0.00000   0.06721   0.00000   0.00000
   0.00000   0.00000   0.00000   0.05837   0.00000   0.00000   0.06721   0.00000
  -0.00000  -0.00000   0.00000   0.00000   0.05837   0.00000   0.00000   0.06721
 Atom #  2
  -0.05973  -0.18659   0.00000   0.00000  -0.00001   0.00000   0.00000  -0.00006
  -0.18659  -0.61843   0.00000   0.00000  -0.00004   0.00000   0.00000  -0.00018
   0.00000   0.00000  -0.08255   0.00000   0.00000  -0.36576   0.00001   0.00000
   0.00000   0.00000   0.00000  -0.08255   0.00000   0.00001  -0.36576   0.00000
  -0.00001  -0.00004   0.00000   0.00000  -0.08255   0.00000   0.00000  -0.36576
   0.00000   0.00000  -0.36576   0.00001   0.00000  -1.75253   0.00007   0.00000
   0.00000   0.00000   0.00001  -0.36576   0.00000   0.00007  -1.75253   0.00000
  -0.00006  -0.00018   0.00000   0.00000  -0.36576   0.00000   0.00000  -1.75253


 Augmentation waves occupancies Rhoij:
 Atom #  1
   1.59249  -0.31690   0.00000   0.00000  -0.07748   0.00000   0.00000   0.04337
  -0.31690   0.18581   0.00000   0.00000   0.05895   0.00000   0.00000  -0.02460
   0.00000   0.00000   1.52148   0.01165   0.00000  -0.41826  -0.00437   0.00000
   0.00000   0.00000   0.01165   1.52148   0.00000  -0.00437  -0.41826   0.00000
  -0.07748   0.05895   0.00000   0.00000   1.57349   0.00000   0.00000  -0.42922
   0.00000   0.00000  -0.41826  -0.00437   0.00000   0.14349   0.00280   0.00000
   0.00000   0.00000  -0.00437  -0.41826   0.00000   0.00280   0.14349   0.00000
   0.04337  -0.02460   0.00000   0.00000  -0.42922   0.00000   0.00000   0.14394
 Atom #  2
   3.36602  -0.37612   0.00000   0.00000   0.04088   0.00000   0.00000  -0.00318
  -0.37612   0.05356   0.00000   0.00000  -0.01472   0.00000   0.00000   0.00104
   0.00000   0.00000   1.94454  -0.00376   0.00000  -0.07196   0.00400   0.00000
   0.00000   0.00000  -0.00376   1.94454   0.00000   0.00400  -0.07196   0.00000
   0.04088  -0.01472   0.00000   0.00000   1.96281   0.00000   0.00000  -0.07325
   0.00000   0.00000  -0.07196   0.00400   0.00000   0.00419  -0.00010   0.00000
   0.00000   0.00000   0.00400  -0.07196   0.00000  -0.00010   0.00419   0.00000
  -0.00318   0.00104   0.00000   0.00000  -0.07325   0.00000   0.00000   0.00431


================================================================================

 ----iterations are completed or convergence reached----

 Mean square residual over all n,k,spin=   1.9605E-02; max=  1.7179E-01
  -0.2500  0.5000  0.0000    1  7.28196E-02 kpt; spin; max resid(k); each band:
  1.15E-02 2.22E-02 2.46E-02 7.28E-02 1.96E-02
   0.5000 -0.2500  0.0000    1  2.66125E-02 kpt; spin; max resid(k); each band:
  1.81E-02 7.18E-03 6.25E-03 1.70E-02 2.66E-02
  -0.2500 -0.2500  0.2500    1  3.51914E-02 kpt; spin; max resid(k); each band:
  3.40E-02 3.52E-02 2.90E-02 3.28E-02 1.85E-02
  -0.2500  0.0000  0.0000    1  5.69881E-02 kpt; spin; max resid(k); each band:
  5.70E-02 2.94E-02 3.40E-02 4.99E-02 1.94E-02
   0.5000  0.2500  0.0000    1  1.73065E-02 kpt; spin; max resid(k); each band:
  8.87E-03 1.25E-02 3.86E-03 1.73E-02 1.30E-02
  -0.2500  0.2500  0.2500    1  1.19984E-01 kpt; spin; max resid(k); each band:
  6.78E-02 2.64E-02 1.20E-01 3.51E-02 3.96E-02
   0.2500  0.5000  0.0000    1  1.79732E-02 kpt; spin; max resid(k); each band:
  7.15E-03 9.57E-03 4.15E-03 6.76E-03 1.80E-02
   0.5000  0.5000  0.2500    1  1.61507E-02 kpt; spin; max resid(k); each band:
  3.50E-03 5.95E-03 9.44E-03 1.40E-02 1.62E-02
  -0.2500  0.5000  0.5000    1  9.71183E-02 kpt; spin; max resid(k); each band:
  5.46E-02 8.88E-03 1.73E-02 9.71E-02 2.72E-02
   0.0000 -0.2500  0.0000    1  3.17443E-02 kpt; spin; max resid(k); each band:
  3.17E-02 2.11E-02 1.00E-02 1.79E-02 1.74E-02
   0.2500 -0.2500  0.2500    1  3.15679E-02 kpt; spin; max resid(k); each band:
  1.41E-02 8.25E-03 7.94E-03 2.23E-02 3.16E-02
   0.5000 -0.2500  0.5000    1  1.71792E-01 kpt; spin; max resid(k); each band:
  9.73E-03 5.23E-02 1.94E-02 1.72E-01 3.29E-02
  -0.2500 -0.2500 -0.2500    1  5.50800E-02 kpt; spin; max resid(k); each band:
  5.51E-02 2.51E-02 2.37E-02 2.48E-02 1.56E-02
   0.2500  0.0000  0.0000    1  2.16253E-02 kpt; spin; max resid(k); each band:
  1.34E-02 6.96E-03 4.28E-03 7.76E-03 2.16E-02
   0.5000  0.0000  0.2500    1  1.42835E-02 kpt; spin; max resid(k); each band:
  1.43E-02 1.01E-02 8.41E-03 1.33E-02 1.40E-02
  -0.2500  0.0000  0.5000    1  1.10270E-02 kpt; spin; max resid(k); each band:
  7.42E-03 1.10E-02 2.13E-03 4.68E-03 8.46E-03
   0.0000  0.2500  0.0000    1  3.83997E-02 kpt; spin; max resid(k); each band:
  3.84E-02 1.26E-02 2.03E-02 3.28E-02 2.21E-02
   0.2500  0.2500  0.2500    1  2.85096E-02 kpt; spin; max resid(k); each band:
  6.68E-03 1.00E-02 3.50E-03 2.85E-02 1.90E-02
   0.5000  0.2500  0.5000    1  1.44322E-02 kpt; spin; max resid(k); each band:
  1.44E-02 8.28E-03 1.00E-02 1.66E-03 1.25E-02
  -0.2500  0.2500 -0.2500    1  1.83080E-02 kpt; spin; max resid(k); each band:
  9.90E-03 7.66E-03 3.50E-03 1.23E-02 1.83E-02
   0.0000  0.5000  0.2500    1  1.70071E-02 kpt; spin; max resid(k); each band:
  1.70E-02 8.12E-03 2.89E-03 1.05E-02 6.35E-03
   0.2500  0.5000  0.5000    1  1.47733E-02 kpt; spin; max resid(k); each band:
  1.16E-02 3.76E-03 4.59E-03 1.45E-02 1.48E-02
   0.5000  0.5000 -0.2500    1  1.66643E-02 kpt; spin; max resid(k); each band:
  1.35E-02 3.16E-03 3.63E-03 7.09E-03 1.67E-02
   0.0000 -0.2500  0.5000    1  8.97515E-03 kpt; spin; max resid(k); each band:
  7.92E-03 6.17E-03 3.75E-03 7.14E-03 8.98E-03
   0.2500 -0.2500 -0.2500    1  4.00780E-02 kpt; spin; max resid(k); each band:
  2.59E-02 1.04E-02 4.01E-02 3.69E-02 2.69E-02
   0.0000  0.0000  0.2500    1  5.05048E-02 kpt; spin; max resid(k); each band:
  5.05E-02 2.31E-02 2.37E-02 1.57E-02 1.92E-02
   0.2500  0.0000  0.5000    1  2.26006E-02 kpt; spin; max resid(k); each band:
  1.71E-02 8.27E-03 7.25E-03 3.46E-03 2.26E-02
   0.5000  0.0000 -0.2500    1  1.27334E-02 kpt; spin; max resid(k); each band:
  8.82E-03 4.02E-03 3.14E-03 1.24E-02 1.27E-02
   0.0000  0.2500  0.5000    1  1.10828E-02 kpt; spin; max resid(k); each band:
  8.47E-03 9.25E-03 2.06E-03 8.76E-03 1.11E-02
   0.2500  0.2500 -0.2500    1  1.77473E-02 kpt; spin; max resid(k); each band:
  8.15E-03 9.16E-03 7.84E-03 3.35E-03 1.77E-02
   0.0000  0.5000 -0.2500    1  1.86305E-02 kpt; spin; max resid(k); each band:
  1.86E-02 7.43E-03 3.04E-03 5.69E-03 1.46E-02
   0.0000  0.0000 -0.2500    1  7.17141E-02 kpt; spin; max resid(k); each band:
  7.17E-02 1.77E-02 2.38E-02 5.52E-02 2.68E-02
 reduced coordinates (array xred) for    2 atoms
      -0.000934942065      0.000934942065      0.000934942065
       0.250000001041      0.249999998959      0.249999998959
 rms dE/dt=  7.8400E-03; max dE/dt=  0.0000E+00; dE/dt below (all hartree)
    1       0.000000000000     -0.011093739793     -0.011093739793
    2       0.000000000000     -0.007830941802     -0.007830941802

 cartesian coordinates (angstrom) at end:
    1      0.00529177208590     0.00000000000000     0.00000000000000
    2      1.41499999410857     1.41500000000000     1.41500000000000

 cartesian forces (hartree/bohr) at end:
    1      0.00030505270897    -0.00000000000000    -0.00000000000000
    2     -0.00030505270897    -0.00000000000000    -0.00000000000000
 frms,max,avg= 1.7612226E-04 3.0505271E-04   1.769E-03  0.000E+00  0.000E+00 h/b

 cartesian forces (eV/Angstrom) at end:
    1      0.01568643967756    -0.00000000000000    -0.00000000000000
    2     -0.01568643967756    -0.00000000000000    -0.00000000000000
 frms,max,avg= 9.0565702E-03 1.5686440E-02   9.098E-02  0.000E+00  0.000E+00 e/A
 length scales= 10.695849912133 10.695849912133 10.695849912133 bohr
              =  5.660000000000  5.660000000000  5.660000000000 angstroms
 prteigrs : about to open file tsv5_113o_EIG
 Fermi (or HOMO) energy (hartree) =   0.03982   Average Vxc (hartree)=  -0.34980
 Eigenvalues (hartree) for nkpt=  32  k points:
 kpt#   1, nband=  5, wtk=  0.03125, kpt= -0.2500  0.5000  0.0000 (reduced coord)
  -0.34573  -0.14292  -0.06795  -0.03014   0.14472
 kpt#   2, nband=  5, wtk=  0.03125, kpt=  0.5000 -0.2500  0.0000 (reduced coord)
  -0.33660  -0.15016  -0.06997  -0.02507   0.14803
 kpt#   3, nband=  5, wtk=  0.03125, kpt= -0.2500 -0.2500  0.2500 (reduced coord)
  -0.33882  -0.14282  -0.06913  -0.02861   0.14580
 kpt#   4, nband=  5, wtk=  0.03125, kpt= -0.2500  0.0000  0.0000 (reduced coord)
  -0.36662  -0.08572   0.00975   0.03982   0.18660
 kpt#   5, nband=  5, wtk=  0.03125, kpt=  0.5000  0.2500  0.0000 (reduced coord)
  -0.34472  -0.14542  -0.06835  -0.03048   0.14057
 kpt#   6, nband=  5, wtk=  0.03125, kpt= -0.2500  0.2500  0.2500 (reduced coord)
  -0.32675  -0.11809  -0.06942  -0.01506   0.18080
 kpt#   7, nband=  5, wtk=  0.03125, kpt=  0.2500  0.5000  0.0000 (reduced coord)
  -0.34831  -0.14282  -0.07083  -0.03304   0.19151
 kpt#   8, nband=  5, wtk=  0.03125, kpt=  0.5000  0.5000  0.2500 (reduced coord)
  -0.34907  -0.14427  -0.06508  -0.02953   0.14662
 kpt#   9, nband=  5, wtk=  0.03125, kpt= -0.2500  0.5000  0.5000 (reduced coord)
  -0.32941  -0.13977  -0.07059  -0.02932   0.15640
 kpt#  10, nband=  5, wtk=  0.03125, kpt=  0.0000 -0.2500  0.0000 (reduced coord)
  -0.38132  -0.08308   0.00669   0.01362   0.16444
 kpt#  11, nband=  5, wtk=  0.03125, kpt=  0.2500 -0.2500  0.2500 (reduced coord)
  -0.34134  -0.15136  -0.06537  -0.02145   0.14409
 kpt#  12, nband=  5, wtk=  0.03125, kpt=  0.5000 -0.2500  0.5000 (reduced coord)
  -0.34728  -0.12925  -0.07085  -0.02999   0.16395
 kpt#  13, nband=  5, wtk=  0.03125, kpt= -0.2500 -0.2500 -0.2500 (reduced coord)
  -0.37326  -0.08924   0.00966   0.01778   0.14746
 kpt#  14, nband=  5, wtk=  0.03125, kpt=  0.2500  0.0000  0.0000 (reduced coord)
  -0.38002  -0.09206   0.00730   0.01367   0.14244
 kpt#  15, nband=  5, wtk=  0.03125, kpt=  0.5000  0.0000  0.2500 (reduced coord)
  -0.33912  -0.14709  -0.06476  -0.03031   0.13884
 kpt#  16, nband=  5, wtk=  0.03125, kpt= -0.2500  0.0000  0.5000 (reduced coord)
  -0.34622  -0.14841  -0.07214  -0.03229   0.13413
 kpt#  17, nband=  5, wtk=  0.03125, kpt=  0.0000  0.2500  0.0000 (reduced coord)
  -0.37910  -0.08716   0.01014   0.01964   0.16196
 kpt#  18, nband=  5, wtk=  0.03125, kpt=  0.2500  0.2500  0.2500 (reduced coord)
  -0.38549  -0.08138   0.00936   0.01957   0.17267
 kpt#  19, nband=  5, wtk=  0.03125, kpt=  0.5000  0.2500  0.5000 (reduced coord)
  -0.34221  -0.14925  -0.06827  -0.03301   0.13537
 kpt#  20, nband=  5, wtk=  0.03125, kpt= -0.2500  0.2500 -0.2500 (reduced coord)
  -0.34599  -0.14957  -0.06979  -0.02557   0.14110
 kpt#  21, nband=  5, wtk=  0.03125, kpt=  0.0000  0.5000  0.2500 (reduced coord)
  -0.34250  -0.15156  -0.06519  -0.03388   0.13714
 kpt#  22, nband=  5, wtk=  0.03125, kpt=  0.2500  0.5000  0.5000 (reduced coord)
  -0.34366  -0.15123  -0.06503  -0.02601   0.14497
 kpt#  23, nband=  5, wtk=  0.03125, kpt=  0.5000  0.5000 -0.2500 (reduced coord)
  -0.34411  -0.15290  -0.06816  -0.02939   0.14598
 kpt#  24, nband=  5, wtk=  0.03125, kpt=  0.0000 -0.2500  0.5000 (reduced coord)
  -0.34626  -0.15032  -0.07143  -0.03005   0.13962
 kpt#  25, nband=  5, wtk=  0.03125, kpt=  0.2500 -0.2500 -0.2500 (reduced coord)
  -0.34358  -0.14234  -0.06860  -0.01714   0.16377
 kpt#  26, nband=  5, wtk=  0.03125, kpt=  0.0000  0.0000  0.2500 (reduced coord)
  -0.37516  -0.08045   0.00783   0.01611   0.16730
 kpt#  27, nband=  5, wtk=  0.03125, kpt=  0.2500  0.0000  0.5000 (reduced coord)
  -0.33949  -0.15125  -0.06860  -0.03047   0.16552
 kpt#  28, nband=  5, wtk=  0.03125, kpt=  0.5000  0.0000 -0.2500 (reduced coord)
  -0.34729  -0.15099  -0.06696  -0.03038   0.16634
 kpt#  29, nband=  5, wtk=  0.03125, kpt=  0.0000  0.2500  0.5000 (reduced coord)
  -0.34638  -0.14716  -0.07148  -0.03153   0.13383
 kpt#  30, nband=  5, wtk=  0.03125, kpt=  0.2500  0.2500 -0.2500 (reduced coord)
  -0.34556  -0.14688  -0.06993  -0.03229   0.13942
 kpt#  31, nband=  5, wtk=  0.03125, kpt=  0.0000  0.5000 -0.2500 (reduced coord)
  -0.33985  -0.15205  -0.07064  -0.03123   0.14043
 kpt#  32, nband=  5, wtk=  0.03125, kpt=  0.0000  0.0000 -0.2500 (reduced coord)
  -0.36155  -0.07754   0.00827   0.01774   0.19024
 Total charge density [el/Bohr^3]
,     Maximum=    1.0437E-01  at reduced coord.    0.4844    0.1719    0.1719
,Next maximum=    1.0437E-01  at reduced coord.    0.1719    0.1719    0.1719
,     Minimum=    2.1977E-03  at reduced coord.    0.7500    0.7500    0.7500
,Next minimum=    2.2121E-03  at reduced coord.    0.7344    0.7656    0.7500
,  Integrated=    8.0000E+00

--------------------------------------------------------------------------------
 Components of total free energy (in Hartree) :

    Kinetic energy  =  3.28737382883514E+00
    Hartree energy  =  6.43877700621526E-01
    XC energy       = -1.58715479822864E+01
    Ewald energy    = -8.41182194081202E+00
    PspCore energy  =  1.09078996437970E+00
    Loc. psp. energy= -1.74213526282997E+00
    Spherical terms =  1.25910930340368E+01
    >>>>>>>>> Etotal= -8.41237065805515E+00

 "Double-counting" decomposition of free energy:
    Band energy     = -1.09406633436233E+00
    Ewald energy    = -8.41182194081202E+00
    PspCore energy  =  1.09078996437970E+00
    Dble-C XC-energy= -1.29256675601483E+01
    Spherical terms =  1.28201711457310E+01
    >>>> Etotal (DC)= -8.52059472521197E+00

  >Total energy in eV           = -2.28912247148940E+02
  >Total DC energy in eV        = -2.31857173783234E+02
--------------------------------------------------------------------------------

 Cartesian components of stress tensor (hartree/bohr^3)
  sigma(1 1)=  5.06038290E-04  sigma(3 2)=  5.04561237E-05
  sigma(2 2)=  5.75510826E-04  sigma(3 1)=  0.00000000E+00
  sigma(3 3)=  5.75510826E-04  sigma(2 1)=  0.00000000E+00

-Cartesian components of stress tensor (GPa)         [Pressure= -1.6251E+01 GPa]
- sigma(1 1)=  1.48881580E+01  sigma(3 2)=  1.48447016E+00
- sigma(2 2)=  1.69321102E+01  sigma(3 1)=  0.00000000E+00
- sigma(3 3)=  1.69321102E+01  sigma(2 1)=  0.00000000E+00

== END DATASET(S) ==============================================================
================================================================================
  
 -outvars: echo values of variables after computation  --------
            acell      1.0695849912E+01  1.0695849912E+01  1.0695849912E+01 Bohr
              amu      2.69815390E+01  7.49215900E+01
         berryopt          -1
             ecut      4.00000000E+01 Hartree
           etotal     -8.5205947252E+00
            fcart      3.0505270897E-04 -0.0000000000E+00 -0.0000000000E+00
                      -3.0505270897E-04 -0.0000000000E+00 -0.0000000000E+00
-          fftalg         112
              ixc          11
              kpt     -2.50000000E-01  5.00000000E-01  0.00000000E+00
                       5.00000000E-01 -2.50000000E-01  0.00000000E+00
                      -2.50000000E-01 -2.50000000E-01  2.50000000E-01
                      -2.50000000E-01  0.00000000E+00  0.00000000E+00
                       5.00000000E-01  2.50000000E-01  0.00000000E+00
                      -2.50000000E-01  2.50000000E-01  2.50000000E-01
                       2.50000000E-01  5.00000000E-01  0.00000000E+00
                       5.00000000E-01  5.00000000E-01  2.50000000E-01
                      -2.50000000E-01  5.00000000E-01  5.00000000E-01
                       0.00000000E+00 -2.50000000E-01  0.00000000E+00
                       2.50000000E-01 -2.50000000E-01  2.50000000E-01
                       5.00000000E-01 -2.50000000E-01  5.00000000E-01
                      -2.50000000E-01 -2.50000000E-01 -2.50000000E-01
                       2.50000000E-01  0.00000000E+00  0.00000000E+00
                       5.00000000E-01  0.00000000E+00  2.50000000E-01
                      -2.50000000E-01  0.00000000E+00  5.00000000E-01
                       0.00000000E+00  2.50000000E-01  0.00000000E+00
                       2.50000000E-01  2.50000000E-01  2.50000000E-01
                       5.00000000E-01  2.50000000E-01  5.00000000E-01
                      -2.50000000E-01  2.50000000E-01 -2.50000000E-01
                       0.00000000E+00  5.00000000E-01  2.50000000E-01
                       2.50000000E-01  5.00000000E-01  5.00000000E-01
                       5.00000000E-01  5.00000000E-01 -2.50000000E-01
                       0.00000000E+00 -2.50000000E-01  5.00000000E-01
                       2.50000000E-01 -2.50000000E-01 -2.50000000E-01
                       0.00000000E+00  0.00000000E+00  2.50000000E-01
                       2.50000000E-01  0.00000000E+00  5.00000000E-01
                       5.00000000E-01  0.00000000E+00 -2.50000000E-01
                       0.00000000E+00  2.50000000E-01  5.00000000E-01
                       2.50000000E-01  2.50000000E-01 -2.50000000E-01
                       0.00000000E+00  5.00000000E-01 -2.50000000E-01
                       0.00000000E+00  0.00000000E+00 -2.50000000E-01
           kptopt           3
         kptrlatt        2   -2    2     -2    2    2     -2   -2    2
          kptrlen      2.13916998E+01
P           mkmem          32
            natom           2
            nband           5
            ngfft          45      45      45
          ngfftdg          64      64      64
             nkpt          32
            nstep           1
             nsym           4
           ntypat           2
              occ      2.000000  2.000000  2.000000  2.000000  0.000000
        pawecutdg      8.00000000E+01 Hartree
           prtden           0
            prtwf           0
            rfdir           1       1       1
            rprim      0.0000000000E+00  5.0000000000E-01  5.0000000000E-01
                       5.0000000000E-01  0.0000000000E+00  5.0000000000E-01
                       5.0000000000E-01  5.0000000000E-01  0.0000000000E+00
           shiftk      5.00000000E-01  5.00000000E-01  5.00000000E-01
          spgroup          44
           strten      5.0603828991E-04  5.7551082571E-04  5.7551082571E-04
                       5.0456123671E-05  0.0000000000E+00  0.0000000000E+00
           symrel      1  0  0   0  1  0   0  0  1      -1  0  0  -1  0  1  -1  1  0
                      -1  0  0  -1  1  0  -1  0  1       1  0  0   0  0  1   0  1  0
           toldfe      1.00000000E-12 Hartree
            typat      1  2
           useylm           1
              wtk        0.03125    0.03125    0.03125    0.03125    0.03125    0.03125
                         0.03125    0.03125    0.03125    0.03125    0.03125    0.03125
                         0.03125    0.03125    0.03125    0.03125    0.03125    0.03125
                         0.03125    0.03125    0.03125    0.03125    0.03125    0.03125
                         0.03125    0.03125    0.03125    0.03125    0.03125    0.03125
                         0.03125    0.03125
           xangst      5.2917720859E-03  0.0000000000E+00  0.0000000000E+00
                       1.4149999941E+00  1.4150000000E+00  1.4150000000E+00
            xcart      1.0000000000E-02  0.0000000000E+00  0.0000000000E+00
                       2.6739624669E+00  2.6739624780E+00  2.6739624780E+00
             xred     -9.3494206465E-04  9.3494206465E-04  9.3494206465E-04
                       2.5000000104E-01  2.4999999896E-01  2.4999999896E-01
            znucl       13.00000   33.00000

================================================================================

- Total cpu        time (s,m,h):         10.2        0.17      0.003
- Total wall clock time (s,m,h):         10.2        0.17      0.003
-
- For major independent code sections, cpu and wall times (sec),
-  as well as % of the time and number of calls for node 0-
-<BEGIN_TIMER mpi_nprocs = 1, omp_nthreads = 1, mpi_rank = 0>
- cpu_time =           10.2, wall_time =           10.2
-
- routine                        cpu     %       wall     %      number of calls  Gflops 
-                                                                  (-1=no count)
- fourwf%(pot)                   4.679  46.1      4.689  46.0           1592      -1.00    
- initberry                      1.985  19.5      1.988  19.5              1      -1.00    
- pspini                         0.987   9.7      0.989   9.7              1      -1.00    
- nonlop(apply)                  0.595   5.9      0.616   6.0           1592      -1.00    
- fourwf%(den)                   0.209   2.1      0.211   2.1            128      -1.00    
- xc:pot/=fourdp                 0.135   1.3      0.133   1.3              2      -1.00    
- projbd                         0.133   1.3      0.141   1.4           1272      -1.00    
- timing timab                   0.113   1.1      0.113   1.1             10      -1.00    
- invars2                        0.111   1.1      0.111   1.1              1      -1.00    
- nonlop(forstr)                 0.107   1.1      0.107   1.1            128      -1.00    
- fourdp                         0.092   0.9      0.092   0.9             22      -1.00    
- vtowfk(ssdiag)                 0.077   0.8      0.077   0.8             -1      -1.00    
- nhatgrid                       0.070   0.7      0.070   0.7              1      -1.00    
- getghc-other                   0.059   0.6      0.038   0.4             -1      -1.00    
- forces                         0.054   0.5      0.054   0.5              1      -1.00    
- others (90)                    0.176   1.7      0.176   1.7             -1      -1.00    
-<END_TIMER>
-
- subtotal                       9.582  94.3      9.605  94.3

- For major independent code sections, cpu and wall times (sec),
- as well as % of the total time and number of calls 

-<BEGIN_TIMER mpi_nprocs = 1, omp_nthreads = 1, mpi_rank = world>
- cpu_time =          10.2, wall_time =          10.2
-
- routine                         cpu     %       wall     %      number of calls Gflops 
-                                                                  (-1=no count)
- fourwf%(pot)                   4.679  46.1      4.689  46.0           1592      -1.00    
- initberry                      1.985  19.5      1.988  19.5              1      -1.00    
- pspini                         0.987   9.7      0.989   9.7              1      -1.00    
- nonlop(apply)                  0.595   5.9      0.616   6.0           1592      -1.00    
- fourwf%(den)                   0.209   2.1      0.211   2.1            128      -1.00    
- xc:pot/=fourdp                 0.135   1.3      0.133   1.3              2      -1.00    
- projbd                         0.133   1.3      0.141   1.4           1272      -1.00    
- timing timab                   0.113   1.1      0.113   1.1             10      -1.00    
- invars2                        0.111   1.1      0.111   1.1              1      -1.00    
- nonlop(forstr)                 0.107   1.1      0.107   1.1            128      -1.00    
- fourdp                         0.092   0.9      0.092   0.9             22      -1.00    
- vtowfk(ssdiag)                 0.077   0.8      0.077   0.8             -1      -1.00    
- nhatgrid                       0.070   0.7      0.070   0.7              1      -1.00    
- getghc-other                   0.059   0.6      0.038   0.4             -1      -1.00    
- forces                         0.054   0.5      0.054   0.5              1      -1.00    
- others (90)                    0.176   1.7      0.176   1.7             -1      -1.00    
-<END_TIMER>

- subtotal                       9.582  94.3      9.605  94.3

================================================================================

 Suggested references for the acknowledgment of ABINIT usage.

 The users of ABINIT have little formal obligations with respect to the ABINIT group
 (those specified in the GNU General Public License, http://www.gnu.org/copyleft/gpl.txt).
 However, it is common practice in the scientific literature,
 to acknowledge the efforts of people that have made the research possible.
 In this spirit, please find below suggested citations of work written by ABINIT developers,
 corresponding to implementations inside of ABINIT that you have used in the present run.
 Note also that it will be of great value to readers of publications presenting these results,
 to read papers enabling them to understand the theoretical formalism and details
 of the ABINIT implementation.
 For information on why they are suggested, see also http://www.abinit.org/about/?text=acknowledgments.

 [1] Implementation of the Projector Augmented-Wave Method in the ABINIT code.
 M. Torrent, F. Jollet, F. Bottin, G. Zerah, and X. Gonze Comput. Mat. Science 42, 337, (2008).
 Comment : PAW calculations. Strong suggestion to cite this paper.

 [2] ABINIT : First-principles approach of materials and nanosystem properties.
 X. Gonze, B. Amadon, P.-M. Anglade, J.-M. Beuken, F. Bottin, P. Boulanger, F. Bruneval,
 D. Caliste, R. Caracas, M. Cote, T. Deutsch, L. Genovese, Ph. Ghosez, M. Giantomassi
 S. Goedecker, D.R. Hamann, P. Hermet, F. Jollet, G. Jomard, S. Leroux, M. Mancini, S. Mazevet,
 M.J.T. Oliveira, G. Onida, Y. Pouillon, T. Rangel, G.-M. Rignanese, D. Sangalli, R. Shaltaf,
 M. Torrent, M.J. Verstraete, G. Zerah, J.W. Zwanziger
 Computer Phys. Comm. 180, 2582-2615 (2009).
 Comment : the third generic paper describing the ABINIT project.
 Note that a version of this paper, that is not formatted for Computer Phys. Comm. 
 is available at http://www.abinit.org/about/ABINIT_CPC_v10.pdf .
 The licence allows the authors to put it on the Web.

 [3] A brief introduction to the ABINIT software package.
 X. Gonze, G.-M. Rignanese, M. Verstraete, J.-M. Beuken, Y. Pouillon, R. Caracas, F. Jollet,
 M. Torrent, G. Zerah, M. Mikami, Ph. Ghosez, M. Veithen, J.-Y. Raty, V. Olevano, F. Bruneval,
 L. Reining, R. Godby, G. Onida, D.R. Hamann, and D.C. Allan.
 Z. Kristallogr. 220, 558-562 (2005).
 Comment : the second generic paper describing the ABINIT project. Note that this paper
 should be cited especially if you are using the GW part of ABINIT, as several authors
 of this part are not in the list of authors of the first or third paper.
 The .pdf of the latter paper is available at http://www.abinit.org/about/zfk_0505-06_558-562.pdf.
 Note that it should not redistributed (Copyright by Oldenburg Wissenshaftverlag,
 the licence allows the authors to put it on the Web).


 And optionally :

 [4] First-principles computation of material properties : the ABINIT software project. 
 X. Gonze, J.-M. Beuken, R. Caracas, F. Detraux, M. Fuchs, G.-M. Rignanese, L. Sindic,
 M. Verstraete, G. Zerah, F. Jollet, M. Torrent, A. Roy, M. Mikami, Ph. Ghosez, J.-Y. Raty, D.C. Allan.
 Computational Materials Science 25, 478-492 (2002). http://dx.doi.org/10.1016/S0927-0256(02)00325-7
 Comment : the original paper describing the ABINIT project.

 [5] Fast radix 2, 3, 4 and 5 kernels for Fast Fourier Transformations
 on computers with overlapping multiply-add instructions.
 S. Goedecker, SIAM J. on Scientific Computing 18, 1605 (1997).
-
- Proc.   0 individual time (sec): cpu=         10.2  wall=         10.2

================================================================================

 Calculation completed.
.Delivered    2 WARNINGs and   1 COMMENTs to log file.
+Overall time at end (sec) : cpu=         10.2  wall=         10.2
