
.Version 7.10.4 of ABINIT 
.(sequential version, prepared for a x86_64_linux_gnu4.7 computer) 

.Copyright (C) 1998-2014 ABINIT group . 
 ABINIT comes with ABSOLUTELY NO WARRANTY.
 It is free software, and you are welcome to redistribute it
 under certain conditions (GNU General Public License,
 see ~abinit/COPYING or http://www.gnu.org/copyleft/gpl.txt).

 ABINIT is a project of the Universite Catholique de Louvain,
 Corning Inc. and other collaborators, see ~abinit/doc/developers/contributors.txt .
 Please read ~abinit/doc/users/acknowledgments.html for suggested
 acknowledgments of the ABINIT effort.
 For more information, see http://www.abinit.org .

.Starting date : Wed 11 Mar 2015.
- ( at 11h50 )
  
- input  file    -> tsv6_121.in
- output file    -> tsv6_121.out
- root for input  files -> tsv6_121i
- root for output files -> tsv6_121o


 Symmetries : space group P4 m m (# 99); Bravais tP (primitive tetrag.)
================================================================================
 Values of the parameters that define the memory need of the present run
   intxc =         0  ionmov =         2    iscf =         7 xclevel =         1
  lmnmax =         6   lnmax =         6   mband =        22  mffmem =         1
P  mgfft =        32   mkmem =         1 mpssoang=         4     mpw =      1548
  mqgrid =      3001   natom =         5    nfft =     28800    nkpt =         1
  nloalg =         4  nspden =         1 nspinor =         1  nsppol =         1
    nsym =         8  n1xccc =      2501  ntypat =         3  occopt =         1
================================================================================
P This job should need less than                      11.007 Mbytes of memory.
  Rough estimation (10% accuracy) of disk space for files :
_ WF disk file :      0.522 Mbytes ; DEN or POT disk file :      0.222 Mbytes.
================================================================================

--------------------------------------------------------------------------------
------------- Echo of variables that govern the present computation ------------
--------------------------------------------------------------------------------
-
- outvars: echo of selected default values                                      
-   accesswff0 =  0 , fftalg0 =112 , wfoptalg0 =  0
-
- outvars: echo of global parameters not present in the input file              
-  max_nthreads =    0
-
 -outvars: echo values of preprocessed input variables --------
            acell      7.2127444081E+00  7.2127444081E+00  8.0288669253E+00 Bohr
              amu      2.07200000E+02  4.78800000E+01  1.59994000E+01
         berryopt          14
           diemac      6.00000000E+00
          dilatmx      1.10000000E+00
             ecut      1.50000000E+01 Hartree
           ecutsm      5.00000000E-01 Hartree
-          fftalg         112
           ionmov           2
              ixc           3
              kpt      2.50000000E-01  2.50000000E-01  2.50000000E-01
         kptrlatt        2    0    0      0    2    0      0    0    2
          kptrlen      1.44254888E+01
P           mkmem           1
            natom           5
            nband          22
            ngfft          30      30      32
             nkpt           1
            nstep          12
             nsym           8
            ntime           2
           ntypat           3
              occ      2.000000  2.000000  2.000000  2.000000  2.000000  2.000000
                       2.000000  2.000000  2.000000  2.000000  2.000000  2.000000
                       2.000000  2.000000  2.000000  2.000000  2.000000  2.000000
                       2.000000  2.000000  2.000000  2.000000
          optcell           2
        optforces           1
    red_efieldbar      0.00000000E+00  0.00000000E+00  7.43071691E-03
           shiftk      5.00000000E-01  5.00000000E-01  5.00000000E-01
          spgroup          99
           symrel      1  0  0   0  1  0   0  0  1       1  0  0   0 -1  0   0  0  1
                      -1  0  0   0 -1  0   0  0  1      -1  0  0   0  1  0   0  0  1
                       0  1  0   1  0  0   0  0  1       0  1  0  -1  0  0   0  0  1
                       0 -1  0  -1  0  0   0  0  1       0 -1  0   1  0  0   0  0  1
           toldff      5.00000000E-06
            typat      1  2  3  3  3
           xangst      0.0000000000E+00  0.0000000000E+00  3.7900169088E-01
                       1.9084099761E+00  1.9084099761E+00  2.3251224478E+00
                       1.9084099761E+00  1.9084099761E+00 -1.8609015994E-01
                       1.9084099761E+00  0.0000000000E+00  1.9275030514E+00
                       0.0000000000E+00  1.9084099761E+00  1.9275030514E+00
            xcart      0.0000000000E+00  0.0000000000E+00  7.1620939967E-01
                       3.6063722041E+00  3.6063722041E+00  4.3938446518E+00
                       3.6063722041E+00  3.6063722041E+00 -3.5165943830E-01
                       3.6063722041E+00  0.0000000000E+00  3.6424528874E+00
                       0.0000000000E+00  3.6063722041E+00  3.6424528874E+00
             xred      0.0000000000E+00  0.0000000000E+00  8.9204293250E-02
                       5.0000000000E-01  5.0000000000E-01  5.4725588214E-01
                       5.0000000000E-01  5.0000000000E-01 -4.3799385589E-02
                       5.0000000000E-01  0.0000000000E+00  4.5366960510E-01
                       0.0000000000E+00  5.0000000000E-01  4.5366960510E-01
            znucl       82.00000   22.00000    8.00000

================================================================================

 chkinp: Checking input parameters for consistency.

================================================================================
== DATASET  1 ==================================================================
-   nproc =    1

 Exchange-correlation functional for the present dataset will be:
  LDA: old Teter (4/91) fit to Ceperley-Alder data - ixc=3

 Real(R)+Recip(G) space primitive vectors, cartesian coordinates (Bohr,Bohr^-1):
 R(1)=  7.2127444  0.0000000  0.0000000  G(1)=  0.1386435  0.0000000  0.0000000
 R(2)=  0.0000000  7.2127444  0.0000000  G(2)=  0.0000000  0.1386435  0.0000000
 R(3)=  0.0000000  0.0000000  8.0288669  G(3)=  0.0000000  0.0000000  0.1245506
 Unit cell volume ucvol=  4.1769122E+02 bohr^3
 Angles (23,13,12)=  9.00000000E+01  9.00000000E+01  9.00000000E+01 degrees

 getcut: wavevector=  0.0000  0.0000  0.0000  ngfft=  30  30  32
         ecut(hartree)=     18.150   => boxcut(ratio)=   2.07822

--- Pseudopotential description ------------------------------------------------
- pspini: atom type   1  psp file is /data/ABINIT/testf_gcc47_serial/trunk_7.10.4-private/tests/Psps_for_tests/82pb.960808c_mod
- pspatm: opening atomic psp file    /data/ABINIT/testf_gcc47_serial/trunk_7.10.4-private/tests/Psps_for_tests/82pb.960808c_mod
- (Xe+4f14)+6s1.8 5d10 6p0.2 5f0.05;rcs=rcd=2.0(exnc11),rcp=2.0(26),rcf=1.3(11) no chem-hard; ecut 19/25
- 82.00000  14.00000    960808                znucl, zion, pspdat
    4    3    3    3      2001   0.00000      pspcod,pspxc,lmax,lloc,mmax,r2well
    0   0.000   0.000    2   2.0042666        l,e99.0,e99.9,nproj,rcpsp
   0.00000000   0.00000000   0.00000000   0.00000000     rms, ekb1, ekb2, epsatm
    1   0.000   0.000    2   2.0042666        l,e99.0,e99.9,nproj,rcpsp
   0.00000000   0.00000000   0.00000000   0.00000000     rms, ekb1, ekb2, epsatm
    2   0.000   0.000    2   2.0042666        l,e99.0,e99.9,nproj,rcpsp
   0.00000000   0.00000000   0.00000000   0.00000000     rms, ekb1, ekb2, epsatm
    3   0.000   0.000    0   1.2991516        l,e99.0,e99.9,nproj,rcpsp
   0.00000000   0.00000000   0.00000000   0.00000000     rms, ekb1, ekb2, epsatm
    0.00000000000000    0.00000000000000    0.00000000000000   rchrg,fchrg,qchrg
 pspatm: epsatm=   26.97912547
         --- l  ekb(1:nproj) -->
             0    4.600411    3.774203
             1    3.392405    3.894354
             2   -5.902586    0.629658
 pspatm: atomic psp has been read  and splines computed

- pspini: atom type   2  psp file is /data/ABINIT/testf_gcc47_serial/trunk_7.10.4-private/tests/Psps_for_tests/22ti.psp_mod
- pspatm: opening atomic psp file    /data/ABINIT/testf_gcc47_serial/trunk_7.10.4-private/tests/Psps_for_tests/22ti.psp_mod
- Titane.ion 3s2.3p6.4s0.3d2 rcd=1.65, rcs=rc0=1.25, ecut 32/54
- 22.00000  12.00000    940000                znucl, zion, pspdat
    4    3    2    2      2001   0.00000      pspcod,pspxc,lmax,lloc,mmax,r2well
    0   0.000   0.000    2   1.2533577        l,e99.0,e99.9,nproj,rcpsp
   0.00000000   0.00000000   0.00000000   0.00000000     rms, ekb1, ekb2, epsatm
    1   0.000   0.000    2   1.2533577        l,e99.0,e99.9,nproj,rcpsp
   0.00000000   0.00000000   0.00000000   0.00000000     rms, ekb1, ekb2, epsatm
    2   0.000   0.000    0   1.6491622        l,e99.0,e99.9,nproj,rcpsp
   0.00000000   0.00000000   0.00000000   0.00000000     rms, ekb1, ekb2, epsatm
    0.00000000000000    0.00000000000000    0.00000000000000   rchrg,fchrg,qchrg
 pspatm: epsatm=    4.67708954
         --- l  ekb(1:nproj) -->
             0    9.517316   -2.344682
             1    5.011406   -0.741179
 pspatm: atomic psp has been read  and splines computed

- pspini: atom type   3  psp file is /data/ABINIT/testf_gcc47_serial/trunk_7.10.4-private/tests/Psps_for_tests/8o.psp_mod
- pspatm: opening atomic psp file    /data/ABINIT/testf_gcc47_serial/trunk_7.10.4-private/tests/Psps_for_tests/8o.psp_mod
- 1.65bohr 35 hartree exncc psp for oxygen with core 19 june 1992
-  8.00000   6.00000    920619                znucl, zion, pspdat
    4    3    1    1      2001   0.00000      pspcod,pspxc,lmax,lloc,mmax,r2well
    0   0.000   0.000    2   1.6491622        l,e99.0,e99.9,nproj,rcpsp
   0.00000000   0.00000000   0.00000000   0.00000000     rms, ekb1, ekb2, epsatm
    1   0.000   0.000    0   1.6491622        l,e99.0,e99.9,nproj,rcpsp
   0.00000000   0.00000000   0.00000000   0.00000000     rms, ekb1, ekb2, epsatm
    1.00000000000000    0.95000909444395    0.44408665956870   rchrg,fchrg,qchrg
 pspatm: epsatm=    1.15255884
         --- l  ekb(1:nproj) -->
             0    7.721978   -1.904542
 pspatm: atomic psp has been read  and splines computed

   1.54501123E+03                                ecore*ucvol(ha*bohr**3)
--------------------------------------------------------------------------------

P newkpt: treating     22 bands with npw=    1548 for ikpt=   1 by node    0

_setup2: Arith. and geom. avg. npw (full set) are    1548.000    1548.000
  initberry: for direction 1, nkstr =   2, nstr =      4
  initberry: for direction 2, nkstr =   2, nstr =      4
  initberry: for direction 3, nkstr =   2, nstr =      4

 initberry: COMMENT - 
  The estimation of critical electric field should be checked after calculation.
  It is printed out just after total energy.


================================================================================

=== [ionmov= 2] Broyden-Fletcher-Goldfard-Shanno method (forces)            
================================================================================

--- Iteration: (1/2) Internal Cycle: (1/1)
--------------------------------------------------------------------------------

---SELF-CONSISTENT-FIELD CONVERGENCE--------------------------------------------

     iter   Etot(hartree)      deltaE(h)  residm     vres2    diffor    maxfor
 ETOT  1  -161.97932948911    -1.620E+02 6.908E-02 5.629E+03 7.394E-01 7.394E-01
 ETOT  2  -163.46271080289    -1.483E+00 1.797E-02 1.892E+03 9.427E-01 3.282E-01
 ETOT  3  -164.37978639786    -9.171E-01 3.732E-02 2.209E+02 3.231E-01 1.216E-01
 ETOT  4  -164.47618717827    -9.640E-02 7.661E-04 4.778E+01 1.615E-01 6.974E-02
 ETOT  5  -164.48855430821    -1.237E-02 2.650E-04 3.705E+00 3.688E-02 7.684E-02
 ETOT  6  -164.48978137853    -1.227E-03 2.052E-05 1.216E+00 1.473E-02 8.825E-02
 ETOT  7  -164.49052511034    -7.437E-04 1.118E-05 1.312E-01 7.670E-03 8.058E-02
 ETOT  8  -164.49056336929    -3.826E-05 3.060E-06 6.703E-02 1.630E-03 7.996E-02
 ETOT  9  -164.49058526273    -2.189E-05 2.765E-06 6.465E-03 1.758E-03 8.072E-02
 ETOT 10  -164.49058763430    -2.372E-06 2.651E-06 5.331E-04 1.262E-03 8.199E-02
 ETOT 11  -164.49058791206    -2.778E-07 2.595E-06 3.751E-05 2.775E-04 8.182E-02
 ETOT 12  -164.49058793431    -2.226E-08 2.588E-06 1.896E-05 3.267E-05 8.185E-02

 Computing the polarization (Berry phase) for reciprocal vector:
  0.50000  0.00000  0.00000 (in reduced coordinates)
  0.06932  0.00000  0.00000 (in cartesian coordinates - atomic units)
 Number of strings:     4
 Number of k points in string:    2

 Summary of the results
 Electronic Berry phase     0.000000000E+00
            Ionic phase     3.552713679E-15
            Total phase     3.552713679E-15
    Remapping in [-1,1]     3.552713679E-15

           Polarization     6.134870584E-17 (a.u. of charge)/bohr^2
           Polarization     3.510051572E-15 C/m^2


 Computing the polarization (Berry phase) for reciprocal vector:
  0.00000  0.50000  0.00000 (in reduced coordinates)
  0.00000  0.06932  0.00000 (in cartesian coordinates - atomic units)
 Number of strings:     4
 Number of k points in string:    2

 Summary of the results
 Electronic Berry phase     0.000000000E+00
            Ionic phase     3.552713679E-15
            Total phase     3.552713679E-15
    Remapping in [-1,1]     3.552713679E-15

           Polarization     6.134870584E-17 (a.u. of charge)/bohr^2
           Polarization     3.510051572E-15 C/m^2


 Computing the polarization (Berry phase) for reciprocal vector:
  0.00000  0.00000  0.50000 (in reduced coordinates)
  0.00000  0.00000  0.06228 (in cartesian coordinates - atomic units)
 Number of strings:     4
 Number of k points in string:    2

 Summary of the results
 Electronic Berry phase    -7.152056462E-02
            Ionic phase     9.971696388E-01
            Total phase     9.256490742E-01
    Remapping in [-1,1]     9.256490742E-01

           Polarization     1.779284050E-02 (a.u. of charge)/bohr^2
           Polarization     1.018013125E+00 C/m^2


 Polarization in cartesian coordinates (a.u.):
 (the sum of the electronic and ionic Berry phase has been folded into [-1, 1])
     Electronic berry phase:        0.000000000E+00   0.000000000E+00  -0.137476937E-02
     Ionic:                         0.613487058E-16   0.613487058E-16   0.191676099E-01  
     Total:                         0.613487058E-16   0.613487058E-16   0.177928405E-01

 Polarization in cartesian coordinates (C/m^2):
 (the sum of the electronic and ionic Berry phase has been folded into [-1, 1])
     Electronic berry phase:        0.000000000E+00   0.000000000E+00  -0.786571019E-01
     Ionic:                         0.351005157E-14   0.351005157E-14   0.109667023E+01  
     Total:                         0.351005157E-14   0.351005157E-14   0.101801313E+01

 Stress tensor under a constant electric field:

 Cartesian components of Maxwell stress tensor (hartree/bohr^3)
 Maxstr(1 1)= -2.71208433E-09 Maxstr(3 2)=  0.00000000E+00
 Maxstr(2 2)= -2.71208433E-09 Maxstr(3 1)=  0.00000000E+00
 Maxstr(3 3)=  2.71208433E-09 Maxstr(2 1)=  0.00000000E+00


 Cartesian components of stress tensor (hartree/bohr^3)
  sigma(1 1)= -2.79111445E-03  sigma(3 2)=  0.00000000E+00
  sigma(2 2)= -2.79111445E-03  sigma(3 1)=  0.00000000E+00
  sigma(3 3)= -1.19708446E-03  sigma(2 1)=  0.00000000E+00


 scprqt:  WARNING -
  nstep=   12 was not enough SCF cycles to converge;
  maximum force difference=  3.267E-05 exceeds toldff=  5.000E-06


---OUTPUT-----------------------------------------------------------------------

 Cartesian coordinates (xcart) [bohr]
  0.00000000000000E+00  0.00000000000000E+00  7.16209399669687E-01
  3.60637220405000E+00  3.60637220405000E+00  4.39384465178972E+00
  3.60637220405000E+00  3.60637220405000E+00 -3.51659438303983E-01
  3.60637220405000E+00  0.00000000000000E+00  3.64245288740130E+00
  0.00000000000000E+00  3.60637220405000E+00  3.64245288740130E+00
 Reduced coordinates (xred)
  0.00000000000000E+00  0.00000000000000E+00  8.92042932500000E-02
  5.00000000000000E-01  5.00000000000000E-01  5.47255882140000E-01
  5.00000000000000E-01  5.00000000000000E-01 -4.37993855890000E-02
  5.00000000000000E-01  0.00000000000000E+00  4.53669605100000E-01
  0.00000000000000E+00  5.00000000000000E-01  4.53669605100000E-01
 Cartesian forces (fcart) [Ha/bohr]; max,rms= 8.18520E-02 2.92080E-02 (free atoms)
 -0.00000000000000E+00 -0.00000000000000E+00  1.30173996467517E-02
 -0.00000000000000E+00 -0.00000000000000E+00 -7.57998071350341E-02
 -0.00000000000000E+00 -0.00000000000000E+00  8.18520292511435E-02
 -0.00000000000000E+00 -0.00000000000000E+00 -9.53481088143056E-03
 -0.00000000000000E+00 -0.00000000000000E+00 -9.53481088143056E-03
 Reduced forces (fred)
  0.00000000000000E+00  0.00000000000000E+00 -1.14734474198730E-01
  0.00000000000000E+00  0.00000000000000E+00  5.98367059729081E-01
  0.00000000000000E+00  0.00000000000000E+00 -6.67398555144708E-01
  0.00000000000000E+00  0.00000000000000E+00  6.63342230033949E-02
  0.00000000000000E+00  0.00000000000000E+00  6.63342230033949E-02
 Scale of Primitive Cell (acell) [bohr]
  7.21274440810000E+00  7.21274440810000E+00  8.02886692530000E+00
 Real space primitive translations (rprimd) [bohr]
  7.21274440810000E+00  0.00000000000000E+00  0.00000000000000E+00
  0.00000000000000E+00  7.21274440810000E+00  0.00000000000000E+00
  0.00000000000000E+00  0.00000000000000E+00  8.02886692530000E+00
 Unitary Cell Volume (ucvol) [Bohr^3]=  4.17691218911762E+02
 Angles (23,13,12)= [degrees]
  9.00000000000000E+01  9.00000000000000E+01  9.00000000000000E+01
 Lengths [Bohr]
  7.21274440810000E+00  7.21274440810000E+00  8.02886692530000E+00
 Stress tensor in cartesian coordinates (strten) [Ha/bohr^3]
 -2.79111445267168E-03  0.00000000000000E+00  0.00000000000000E+00
  0.00000000000000E+00 -2.79111445267168E-03  0.00000000000000E+00
  0.00000000000000E+00  0.00000000000000E+00 -1.19708445829926E-03
 Total energy (etotal) [Ha]= -1.64490587934311E+02

--- Iteration: (2/2) Internal Cycle: (1/1)
--------------------------------------------------------------------------------

---SELF-CONSISTENT-FIELD CONVERGENCE--------------------------------------------

     iter   Etot(hartree)      deltaE(h)  residm     vres2    diffor    maxfor
 ETOT  1  -162.30478148558    -1.623E+02 5.710E-03 4.712E+03 9.093E-01 9.851E-01
 ETOT  2  -162.97383635212    -6.691E-01 3.267E-03 2.012E+03 1.575E+00 6.489E-01
 ETOT  3  -164.25762878087    -1.284E+00 1.691E-02 2.878E+02 7.710E-01 1.855E-01
 ETOT  4  -164.49013019718    -2.325E-01 1.536E-03 2.167E+01 1.903E-01 4.174E-02
 ETOT  5  -164.49918109287    -9.051E-03 1.934E-04 2.219E+00 2.283E-02 4.310E-02
 ETOT  6  -164.49998773512    -8.066E-04 1.822E-05 8.714E-01 1.787E-02 5.556E-02
 ETOT  7  -164.50056121325    -5.735E-04 9.288E-06 1.305E-01 9.129E-03 5.217E-02
 ETOT  8  -164.50064067281    -7.946E-05 3.473E-06 2.335E-02 2.490E-03 5.424E-02
 ETOT  9  -164.50065097287    -1.030E-05 2.401E-06 3.813E-03 1.465E-03 5.311E-02
 ETOT 10  -164.50065248247    -1.510E-06 2.323E-06 7.749E-04 7.874E-04 5.329E-02
 ETOT 11  -164.50065298539    -5.029E-07 2.282E-06 3.381E-05 2.673E-04 5.312E-02
 ETOT 12  -164.50065299667    -1.127E-08 2.280E-06 1.581E-05 8.808E-05 5.305E-02

 Computing the polarization (Berry phase) for reciprocal vector:
  0.50000  0.00000  0.00000 (in reduced coordinates)
  0.06397  0.00000  0.00000 (in cartesian coordinates - atomic units)
 Number of strings:     4
 Number of k points in string:    2

 Summary of the results
 Electronic Berry phase     0.000000000E+00
            Ionic phase     3.552713679E-15
            Total phase     3.552713679E-15
    Remapping in [-1,1]     3.552713679E-15

           Polarization     5.464618477E-17 (a.u. of charge)/bohr^2
           Polarization     3.126568427E-15 C/m^2


 Computing the polarization (Berry phase) for reciprocal vector:
  0.00000  0.50000  0.00000 (in reduced coordinates)
  0.00000  0.06397  0.00000 (in cartesian coordinates - atomic units)
 Number of strings:     4
 Number of k points in string:    2

 Summary of the results
 Electronic Berry phase     0.000000000E+00
            Ionic phase     3.552713679E-15
            Total phase     3.552713679E-15
    Remapping in [-1,1]     3.552713679E-15

           Polarization     5.464618477E-17 (a.u. of charge)/bohr^2
           Polarization     3.126568427E-15 C/m^2


 Computing the polarization (Berry phase) for reciprocal vector:
  0.00000  0.00000  0.50000 (in reduced coordinates)
  0.00000  0.00000  0.06012 (in cartesian coordinates - atomic units)
 Number of strings:     4
 Number of k points in string:    2

 Summary of the results
 Electronic Berry phase    -7.375468233E-02
            Ionic phase     9.534947780E-01
            Total phase     8.797400957E-01
    Remapping in [-1,1]     8.797400957E-01

           Polarization     1.439820515E-02 (a.u. of charge)/bohr^2
           Polarization     8.237898734E-01 C/m^2


 Polarization in cartesian coordinates (a.u.):
 (the sum of the electronic and ionic Berry phase has been folded into [-1, 1])
     Electronic berry phase:        0.000000000E+00   0.000000000E+00  -0.120710088E-02
     Ionic:                         0.546461848E-16   0.546461848E-16   0.156053060E-01  
     Total:                         0.546461848E-16   0.546461848E-16   0.143982051E-01

 Polarization in cartesian coordinates (C/m^2):
 (the sum of the electronic and ionic Berry phase has been folded into [-1, 1])
     Electronic berry phase:        0.000000000E+00   0.000000000E+00  -0.690639891E-01
     Ionic:                         0.312656843E-14   0.312656843E-14   0.892853863E+00  
     Total:                         0.312656843E-14   0.312656843E-14   0.823789873E+00

 Stress tensor under a constant electric field:

 Cartesian components of Maxwell stress tensor (hartree/bohr^3)
 Maxstr(1 1)= -2.52730126E-09 Maxstr(3 2)=  0.00000000E+00
 Maxstr(2 2)= -2.52730126E-09 Maxstr(3 1)=  0.00000000E+00
 Maxstr(3 3)=  2.52730126E-09 Maxstr(2 1)=  0.00000000E+00


 Cartesian components of stress tensor (hartree/bohr^3)
  sigma(1 1)=  2.43894444E-04  sigma(3 2)=  0.00000000E+00
  sigma(2 2)=  2.43894444E-04  sigma(3 1)=  0.00000000E+00
  sigma(3 3)=  7.80206264E-04  sigma(2 1)=  0.00000000E+00


 scprqt:  WARNING -
  nstep=   12 was not enough SCF cycles to converge;
  maximum force difference=  8.808E-05 exceeds toldff=  5.000E-06


---OUTPUT-----------------------------------------------------------------------

 Cartesian coordinates (xcart) [bohr]
  0.00000000000000E+00  0.00000000000000E+00  7.55415181357549E-01
  3.90834613146312E+00  3.90834613146312E+00  4.47311677586795E+00
  3.90834613146312E+00  3.90834613146312E+00 -2.79496876736174E-01
  3.90834613146312E+00  0.00000000000000E+00  3.76338536955016E+00
  0.00000000000000E+00  3.90834613146312E+00  3.76338536955016E+00
 Reduced coordinates (xred)
  0.00000000000000E+00  0.00000000000000E+00  9.08256178737439E-02
  5.00000000000000E-01  5.00000000000000E-01  5.37814972502280E-01
  5.00000000000000E-01  5.00000000000000E-01 -3.36046682007696E-02
  5.00000000000000E-01  0.00000000000000E+00  4.52482038912873E-01
  0.00000000000000E+00  5.00000000000000E-01  4.52482038912873E-01
 Cartesian forces (fcart) [Ha/bohr]; max,rms= 5.30511E-02 1.54732E-02 (free atoms)
 -0.00000000000000E+00 -0.00000000000000E+00  1.32096319904654E-02
 -0.00000000000000E+00 -0.00000000000000E+00 -5.30510548246695E-02
 -0.00000000000000E+00 -0.00000000000000E+00  2.02707379568211E-02
 -0.00000000000000E+00 -0.00000000000000E+00  9.78534243869153E-03
 -0.00000000000000E+00 -0.00000000000000E+00  9.78534243869153E-03
 Reduced forces (fred)
  0.00000000000000E+00  0.00000000000000E+00 -1.04900867404093E-01
  0.00000000000000E+00  0.00000000000000E+00  4.46202774047717E-01
  0.00000000000000E+00  0.00000000000000E+00 -1.63629525342587E-01
  0.00000000000000E+00  0.00000000000000E+00 -7.64203530587920E-02
  0.00000000000000E+00  0.00000000000000E+00 -7.64203530587920E-02
 Scale of Primitive Cell (acell) [bohr]
  7.81669226292624E+00  7.81669226292624E+00  8.31720387972089E+00
 Real space primitive translations (rprimd) [bohr]
  7.81669226292624E+00  0.00000000000000E+00  0.00000000000000E+00
  0.00000000000000E+00  7.81669226292624E+00  0.00000000000000E+00
  0.00000000000000E+00  0.00000000000000E+00  8.31720387972089E+00
 Unitary Cell Volume (ucvol) [Bohr^3]=  5.08186795560344E+02
 Angles (23,13,12)= [degrees]
  9.00000000000000E+01  9.00000000000000E+01  9.00000000000000E+01
 Lengths [Bohr]
  7.81669226292624E+00  7.81669226292624E+00  8.31720387972089E+00
 Stress tensor in cartesian coordinates (strten) [Ha/bohr^3]
  2.43894444412504E-04  0.00000000000000E+00  0.00000000000000E+00
  0.00000000000000E+00  2.43894444412504E-04  0.00000000000000E+00
  0.00000000000000E+00  0.00000000000000E+00  7.80206263896998E-04
 Total energy (etotal) [Ha]= -1.64500652996669E+02

 Difference of energy with previous step (new-old):
           Absolute (Ha)=-1.00651E-02
           Relative     =-6.11874E-05

 fconv : WARNING -
  ntime=    2 was not enough Broyd/MD steps to converge gradients: 
  max grad (force/stress) = 7.8021E-02 > tolmxf= 5.0000E-05 ha/bohr (free atoms)

================================================================================

 ----iterations are completed or convergence reached----

 Mean square residual over all n,k,spin=   7.4065E-07; max=  2.2801E-06
   0.2500  0.2500  0.2500    1  2.28005E-06 kpt; spin; max resid(k); each band:
  2.73E-08 3.15E-07 2.12E-07 2.20E-07 5.59E-08 5.55E-08 7.78E-08 5.92E-07
  7.70E-07 6.03E-07 6.27E-07 3.58E-07 7.43E-07 7.50E-07 4.59E-07 8.83E-07
  2.00E-06 6.43E-07 2.26E-06 9.30E-07 2.28E-06 1.44E-06
 reduced coordinates (array xred) for    5 atoms
       0.000000000000      0.000000000000      0.090825617874
       0.500000000000      0.500000000000      0.537814972502
       0.500000000000      0.500000000000     -0.033604668201
       0.500000000000      0.000000000000      0.452482038913
       0.000000000000      0.500000000000      0.452482038913
 rms dE/dt=  1.2873E-01; max dE/dt=  4.4620E-01; dE/dt below (all hartree)
    1       0.000000000000      0.000000000000     -0.104900867404
    2       0.000000000000      0.000000000000      0.446202774048
    3       0.000000000000      0.000000000000     -0.163629525343
    4       0.000000000000      0.000000000000     -0.076420353059
    5       0.000000000000      0.000000000000     -0.076420353059

 cartesian coordinates (angstrom) at end:
    1      0.00000000000000     0.00000000000000     0.39974849699730
    2      2.06820769605118     2.06820769605118     2.36707144915090
    3      2.06820769605118     2.06820769605118    -0.14790337704087
    4      2.06820769605118     0.00000000000000     1.99149776470700
    5      0.00000000000000     2.06820769605118     1.99149776470700

 cartesian forces (hartree/bohr) at end:
    1     -0.00000000000000    -0.00000000000000     0.01320963199047
    2     -0.00000000000000    -0.00000000000000    -0.05305105482467
    3     -0.00000000000000    -0.00000000000000     0.02027073795682
    4     -0.00000000000000    -0.00000000000000     0.00978534243869
    5     -0.00000000000000    -0.00000000000000     0.00978534243869
 frms,max,avg= 1.5473240E-02 5.3051055E-02   0.000E+00  0.000E+00 -5.971E-04 h/b

 cartesian forces (eV/Angstrom) at end:
    1     -0.00000000000000    -0.00000000000000     0.67926653095974
    2     -0.00000000000000    -0.00000000000000    -2.72799469360833
    3     -0.00000000000000    -0.00000000000000     1.04236316816868
    4     -0.00000000000000    -0.00000000000000     0.50318249723995
    5     -0.00000000000000    -0.00000000000000     0.50318249723995
 frms,max,avg= 7.9566594E-01 2.7279947E+00   0.000E+00  0.000E+00 -3.070E-02 e/A
 length scales=  7.816692262926  7.816692262926  8.317203879721 bohr
              =  4.136415392102  4.136415392102  4.401274732345 angstroms
 prteigrs : about to open file tsv6_121o_EIG
 Fermi (or HOMO) energy (hartree) =   0.21953   Average Vxc (hartree)=  -0.40662
 Eigenvalues (hartree) for nkpt=   1  k points:
 kpt#   1, nband= 22, wtk=  1.00000, kpt=  0.2500  0.2500  0.2500 (reduced coord)
  -1.93149  -1.12701  -1.12640  -1.12607  -0.46347  -0.45150  -0.44211  -0.33205
  -0.33197  -0.33027  -0.32985  -0.32692  -0.02787   0.09088   0.10161   0.11046
   0.14192   0.14460   0.19289   0.20482   0.21465   0.21953
 Total charge density [el/Bohr^3]
,     Maximum=    1.2124E+00  at reduced coord.    0.5000    0.5333    0.4688
,Next maximum=    1.2124E+00  at reduced coord.    0.5333    0.5000    0.4688
,     Minimum=    1.2638E-04  at reduced coord.    0.0000    0.0000    0.0938
,Next minimum=    3.6450E-03  at reduced coord.    0.0000    0.0000    0.5938
,  Integrated=    4.4000E+01

--------------------------------------------------------------------------------
 Components of total free energy (in Hartree) :

    Kinetic energy  =  8.43422606850286E+01
    Hartree energy  =  3.64169898199777E+01
    XC energy       = -2.52860907005739E+01
    Ewald energy    = -1.23741677311874E+02
    PspCore energy  =  3.04024276317743E+00
    Loc. psp. energy= -1.56633269816694E+02
    NL   psp  energy=  1.73674448034008E+01
    Electric energy = -6.55323911196206E-03
    Kohn-Sham energy= -1.64494099757557E+02
    >>>>>>>>> Etotal= -1.64500652996669E+02

 Other information on the energy :
    Total energy(eV)= -4.47629041391302E+03 ; Band energy (Ha)=  -1.3851233225E+01
--------------------------------------------------------------------------------

Constant reduced ebar calculation  - final values:
 (a. u.)
   ebar0:   0.000000000E+00   0.000000000E+00   7.430716910E-03  
    ebar:   0.000000000E+00   0.000000000E+00   7.697572782E-03  
    pbar:   5.367755489E-15   5.367755489E-15   1.504858164E+00  

       e:   0.000000000E+00   0.000000000E+00   4.500001115E-03  
       p:   3.552713679E-15   3.552713679E-15   8.797400957E-01  

       E:   0.000000000E+00   0.000000000E+00   9.255000711E-04  
       P:   5.464618477E-17   5.464618477E-17   1.439820515E-02  

 (S.I.), that is V/m for E, and C/m^2 for P
-      E:   0.000000000E+00   0.000000000E+00   4.759112314E+08  
       P:   3.126568427E-15   3.126568427E-15   8.237898734E-01  


 Please check: COMMENT - 
  As a rough estimate,
  to be below the critical field, the bandgap of your system
  should be larger than    0.40 eV.

--------------------------------------------------------------------------------
 rms coord change=  3.6379E-03   atom, delta coord (reduced):
     1        0.000000000000      0.000000000000      0.001621324624
     2        0.000000000000      0.000000000000     -0.009440909638
     3        0.000000000000      0.000000000000      0.010194717388
     4        0.000000000000      0.000000000000     -0.001187566187
     5        0.000000000000      0.000000000000     -0.001187566187

 Cartesian components of stress tensor (hartree/bohr^3)
  sigma(1 1)=  2.43894444E-04  sigma(3 2)=  0.00000000E+00
  sigma(2 2)=  2.43894444E-04  sigma(3 1)=  0.00000000E+00
  sigma(3 3)=  7.80206264E-04  sigma(2 1)=  0.00000000E+00

-Cartesian components of stress tensor (GPa)         [Pressure= -1.2435E+01 GPa]
- sigma(1 1)=  7.17562108E+00  sigma(3 2)=  0.00000000E+00
- sigma(2 2)=  7.17562108E+00  sigma(3 1)=  0.00000000E+00
- sigma(3 3)=  2.29544569E+01  sigma(2 1)=  0.00000000E+00

== END DATASET(S) ==============================================================
================================================================================
  
 -outvars: echo values of variables after computation  --------
            acell      7.8166922629E+00  7.8166922629E+00  8.3172038797E+00 Bohr
              amu      2.07200000E+02  4.78800000E+01  1.59994000E+01
         berryopt          14
           diemac      6.00000000E+00
          dilatmx      1.10000000E+00
             ecut      1.50000000E+01 Hartree
           ecutsm      5.00000000E-01 Hartree
           etotal     -1.6450065300E+02
            fcart     -0.0000000000E+00 -0.0000000000E+00  1.3209631990E-02
                      -0.0000000000E+00 -0.0000000000E+00 -5.3051054825E-02
                      -0.0000000000E+00 -0.0000000000E+00  2.0270737957E-02
                      -0.0000000000E+00 -0.0000000000E+00  9.7853424387E-03
                      -0.0000000000E+00 -0.0000000000E+00  9.7853424387E-03
-          fftalg         112
           ionmov           2
              ixc           3
              kpt      2.50000000E-01  2.50000000E-01  2.50000000E-01
         kptrlatt        2    0    0      0    2    0      0    0    2
          kptrlen      1.44254888E+01
P           mkmem           1
            natom           5
            nband          22
            ngfft          30      30      32
             nkpt           1
            nstep          12
             nsym           8
            ntime           2
           ntypat           3
              occ      2.000000  2.000000  2.000000  2.000000  2.000000  2.000000
                       2.000000  2.000000  2.000000  2.000000  2.000000  2.000000
                       2.000000  2.000000  2.000000  2.000000  2.000000  2.000000
                       2.000000  2.000000  2.000000  2.000000
          optcell           2
        optforces           1
    red_efieldbar      0.00000000E+00  0.00000000E+00  7.43071691E-03
           shiftk      5.00000000E-01  5.00000000E-01  5.00000000E-01
          spgroup          99
           strten      2.4389444441E-04  2.4389444441E-04  7.8020626390E-04
                       0.0000000000E+00  0.0000000000E+00  0.0000000000E+00
           symrel      1  0  0   0  1  0   0  0  1       1  0  0   0 -1  0   0  0  1
                      -1  0  0   0 -1  0   0  0  1      -1  0  0   0  1  0   0  0  1
                       0  1  0   1  0  0   0  0  1       0  1  0  -1  0  0   0  0  1
                       0 -1  0  -1  0  0   0  0  1       0 -1  0   1  0  0   0  0  1
           toldff      5.00000000E-06
            typat      1  2  3  3  3
           xangst      0.0000000000E+00  0.0000000000E+00  3.9974849700E-01
                       2.0682076961E+00  2.0682076961E+00  2.3670714492E+00
                       2.0682076961E+00  2.0682076961E+00 -1.4790337704E-01
                       2.0682076961E+00  0.0000000000E+00  1.9914977647E+00
                       0.0000000000E+00  2.0682076961E+00  1.9914977647E+00
            xcart      0.0000000000E+00  0.0000000000E+00  7.5541518136E-01
                       3.9083461315E+00  3.9083461315E+00  4.4731167759E+00
                       3.9083461315E+00  3.9083461315E+00 -2.7949687674E-01
                       3.9083461315E+00  0.0000000000E+00  3.7633853696E+00
                       0.0000000000E+00  3.9083461315E+00  3.7633853696E+00
             xred      0.0000000000E+00  0.0000000000E+00  9.0825617874E-02
                       5.0000000000E-01  5.0000000000E-01  5.3781497250E-01
                       5.0000000000E-01  5.0000000000E-01 -3.3604668201E-02
                       5.0000000000E-01  0.0000000000E+00  4.5248203891E-01
                       0.0000000000E+00  5.0000000000E-01  4.5248203891E-01
            znucl       82.00000   22.00000    8.00000

================================================================================

- Total cpu        time (s,m,h):         18.7        0.31      0.005
- Total wall clock time (s,m,h):         18.7        0.31      0.005
-
- For major independent code sections, cpu and wall times (sec),
-  as well as % of the time and number of calls for node 0-
-<BEGIN_TIMER mpi_nprocs = 1, omp_nthreads = 1, mpi_rank = 0>
- cpu_time =           18.7, wall_time =           18.7
-
- routine                        cpu     %       wall     %      number of calls  Gflops 
-                                                                  (-1=no count)
- fourwf%(pot)                   2.419  12.9      2.464  13.2           3075      -1.00    
- nonlop(apply)                  1.081   5.8      1.073   5.7           3075      -1.00    
- projbd                         0.765   4.1      0.735   3.9           4918      -1.00    
- pspini                         0.734   3.9      0.737   3.9              1      -1.00    
- nonlop(forces)                 0.268   1.4      0.281   1.5            528      -1.00    
- fourwf%(den)                   0.242   1.3      0.231   1.2            528      -1.00    
- forces                         0.189   1.0      0.193   1.0             24      -1.00    
- vtowfk(ssdiag)                 0.144   0.8      0.147   0.8             -1      -1.00    
- timing timab                   0.116   0.6      0.117   0.6             10      -1.00    
- invars2                        0.113   0.6      0.113   0.6              1      -1.00    
- initberry                      0.103   0.6      0.103   0.6              1      -1.00    
- others (94)                    0.330   1.8      0.328   1.8             -1      -1.00    
-<END_TIMER>
-
- subtotal                       6.503  34.8      6.522  34.8

- For major independent code sections, cpu and wall times (sec),
- as well as % of the total time and number of calls 

-<BEGIN_TIMER mpi_nprocs = 1, omp_nthreads = 1, mpi_rank = world>
- cpu_time =          18.7, wall_time =          18.7
-
- routine                         cpu     %       wall     %      number of calls Gflops 
-                                                                  (-1=no count)
- fourwf%(pot)                   2.419  12.9      2.464  13.2           3075      -1.00    
- nonlop(apply)                  1.081   5.8      1.073   5.7           3075      -1.00    
- projbd                         0.765   4.1      0.735   3.9           4918      -1.00    
- pspini                         0.734   3.9      0.737   3.9              1      -1.00    
- nonlop(forces)                 0.268   1.4      0.281   1.5            528      -1.00    
- fourwf%(den)                   0.242   1.3      0.231   1.2            528      -1.00    
- forces                         0.189   1.0      0.193   1.0             24      -1.00    
- vtowfk(ssdiag)                 0.144   0.8      0.147   0.8             -1      -1.00    
- timing timab                   0.116   0.6      0.117   0.6             10      -1.00    
- invars2                        0.113   0.6      0.113   0.6              1      -1.00    
- initberry                      0.103   0.6      0.103   0.6              1      -1.00    
- others (94)                    0.330   1.8      0.328   1.8             -1      -1.00    
-<END_TIMER>

- subtotal                       6.503  34.8      6.522  34.8

================================================================================

 Suggested references for the acknowledgment of ABINIT usage.

 The users of ABINIT have little formal obligations with respect to the ABINIT group
 (those specified in the GNU General Public License, http://www.gnu.org/copyleft/gpl.txt).
 However, it is common practice in the scientific literature,
 to acknowledge the efforts of people that have made the research possible.
 In this spirit, please find below suggested citations of work written by ABINIT developers,
 corresponding to implementations inside of ABINIT that you have used in the present run.
 Note also that it will be of great value to readers of publications presenting these results,
 to read papers enabling them to understand the theoretical formalism and details
 of the ABINIT implementation.
 For information on why they are suggested, see also http://www.abinit.org/about/?text=acknowledgments.

 [1] ABINIT : First-principles approach of materials and nanosystem properties.
 X. Gonze, B. Amadon, P.-M. Anglade, J.-M. Beuken, F. Bottin, P. Boulanger, F. Bruneval,
 D. Caliste, R. Caracas, M. Cote, T. Deutsch, L. Genovese, Ph. Ghosez, M. Giantomassi
 S. Goedecker, D.R. Hamann, P. Hermet, F. Jollet, G. Jomard, S. Leroux, M. Mancini, S. Mazevet,
 M.J.T. Oliveira, G. Onida, Y. Pouillon, T. Rangel, G.-M. Rignanese, D. Sangalli, R. Shaltaf,
 M. Torrent, M.J. Verstraete, G. Zerah, J.W. Zwanziger
 Computer Phys. Comm. 180, 2582-2615 (2009).
 Comment : the third generic paper describing the ABINIT project.
 Note that a version of this paper, that is not formatted for Computer Phys. Comm. 
 is available at http://www.abinit.org/about/ABINIT_CPC_v10.pdf .
 The licence allows the authors to put it on the Web.

 [2] A brief introduction to the ABINIT software package.
 X. Gonze, G.-M. Rignanese, M. Verstraete, J.-M. Beuken, Y. Pouillon, R. Caracas, F. Jollet,
 M. Torrent, G. Zerah, M. Mikami, Ph. Ghosez, M. Veithen, J.-Y. Raty, V. Olevano, F. Bruneval,
 L. Reining, R. Godby, G. Onida, D.R. Hamann, and D.C. Allan.
 Z. Kristallogr. 220, 558-562 (2005).
 Comment : the second generic paper describing the ABINIT project. Note that this paper
 should be cited especially if you are using the GW part of ABINIT, as several authors
 of this part are not in the list of authors of the first or third paper.
 The .pdf of the latter paper is available at http://www.abinit.org/about/zfk_0505-06_558-562.pdf.
 Note that it should not redistributed (Copyright by Oldenburg Wissenshaftverlag,
 the licence allows the authors to put it on the Web).


 And optionally :

 [3] First-principles computation of material properties : the ABINIT software project. 
 X. Gonze, J.-M. Beuken, R. Caracas, F. Detraux, M. Fuchs, G.-M. Rignanese, L. Sindic,
 M. Verstraete, G. Zerah, F. Jollet, M. Torrent, A. Roy, M. Mikami, Ph. Ghosez, J.-Y. Raty, D.C. Allan.
 Computational Materials Science 25, 478-492 (2002). http://dx.doi.org/10.1016/S0927-0256(02)00325-7
 Comment : the original paper describing the ABINIT project.

 [4] Fast radix 2, 3, 4 and 5 kernels for Fast Fourier Transformations
 on computers with overlapping multiply-add instructions.
 S. Goedecker, SIAM J. on Scientific Computing 18, 1605 (1997).
-
- Proc.   0 individual time (sec): cpu=         18.7  wall=         18.7

================================================================================

 Calculation completed.
.Delivered    9 WARNINGs and   4 COMMENTs to log file.
+Overall time at end (sec) : cpu=         18.7  wall=         18.7
