
.Version 7.9.3 of ABINIT 
.(MPI version, prepared for a x86_64_linux_gnu4.7 computer) 

.Copyright (C) 1998-2014 ABINIT group . 
 ABINIT comes with ABSOLUTELY NO WARRANTY.
 It is free software, and you are welcome to redistribute it
 under certain conditions (GNU General Public License,
 see ~abinit/COPYING or http://www.gnu.org/copyleft/gpl.txt).

 ABINIT is a project of the Universite Catholique de Louvain,
 Corning Inc. and other collaborators, see ~abinit/doc/developers/contributors.txt .
 Please read ~abinit/doc/users/acknowledgments.html for suggested
 acknowledgments of the ABINIT effort.
 For more information, see http://www.abinit.org .

.Starting date : Sat 30 Aug 2014.
- ( at 22h43 )
  
- input  file    -> t07.in
- output file    -> t07.out
- root for input  files -> t07i
- root for output files -> t07o


 DATASET    1 : space group P3_2 2 1 (#154); Bravais hP (primitive hexag.)
================================================================================
 Values of the parameters that define the memory need for DATASET  1.
   intxc =         0  ionmov =         0    iscf =         7 xclevel =         1
  lmnmax =         3   lnmax =         3   mband =        55  mffmem =         1
P  mgfft =        24   mkmem =         4 mpssoang=         3     mpw =       546
  mqgrid =      3001   natom =         9    nfft =     13824    nkpt =         4
  nloalg =         4  nspden =         1 nspinor =         1  nsppol =         1
    nsym =         6  n1xccc =      2501  ntypat =         2  occopt =         1
================================================================================
P This job should need less than                       6.989 Mbytes of memory.
  Rough estimation (10% accuracy) of disk space for files :
_ WF disk file :      1.835 Mbytes ; DEN or POT disk file :      0.107 Mbytes.
================================================================================


 DATASET    2 : space group P3_2 2 1 (#154); Bravais hP (primitive hexag.)
================================================================================
 Values of the parameters that define the memory need for DATASET  2.
   intxc =         0  ionmov =         0    iscf =         7 xclevel =         1
  lmnmax =         3   lnmax =         3   mband =        50  mffmem =         1
P  mgfft =        24   mkmem =         4 mpssoang=         3     mpw =       546
  mqgrid =      3001   natom =         9    nfft =     13824    nkpt =         4
  nloalg =         4  nspden =         1 nspinor =         1  nsppol =         1
    nsym =         6  n1xccc =      2501  ntypat =         2  occopt =         1
================================================================================
P This job should need less than                       6.802 Mbytes of memory.
  Rough estimation (10% accuracy) of disk space for files :
_ WF disk file :      1.668 Mbytes ; DEN or POT disk file :      0.107 Mbytes.
================================================================================


 DATASET    3 : space group P3_2 2 1 (#154); Bravais hP (primitive hexag.)
================================================================================
 Values of the parameters that define the memory need for DATASET  3.
   intxc =         0  ionmov =         0    iscf =         7 xclevel =         1
  lmnmax =         3   lnmax =         3   mband =        50  mffmem =         1
P  mgfft =        24   mkmem =         4 mpssoang=         3     mpw =       546
  mqgrid =      3001   natom =         9    nfft =     13824    nkpt =         4
  nloalg =         4  nspden =         1 nspinor =         1  nsppol =         1
    nsym =         6  n1xccc =      2501  ntypat =         2  occopt =         1
================================================================================
P This job should need less than                       6.802 Mbytes of memory.
  Rough estimation (10% accuracy) of disk space for files :
_ WF disk file :      1.668 Mbytes ; DEN or POT disk file :      0.107 Mbytes.
================================================================================

--------------------------------------------------------------------------------
------------- Echo of variables that govern the present computation ------------
--------------------------------------------------------------------------------
-
- outvars: echo of selected default values                                      
-   accesswff0 =  0 , fftalg0 =112 , wfoptalg0 =  0
-
- outvars: echo of global parameters not present in the input file              
-  max_nthreads =    0
-
 -outvars: echo values of preprocessed input variables --------
            acell      9.2843000799E+00  9.2843000799E+00  1.0213270550E+01 Bohr
              amu      2.80855000E+01  1.59994000E+01
             awtr1          1
             awtr2          0
             awtr3          1
             bdgw3         24      25
           diemac      4.00000000E+00
             ecut1     6.00000000E+00 Hartree
             ecut2     5.99051324E+00 Hartree
             ecut3     5.99051324E+00 Hartree
          ecuteps1     0.00000000E+00 Hartree
          ecuteps2     1.06226803E+00 Hartree
          ecuteps3     0.00000000E+00 Hartree
         ecutsigx1     0.00000000E+00 Hartree
         ecutsigx2     0.00000000E+00 Hartree
         ecutsigx3     5.99051324E+00 Hartree
          ecutwfn1     0.00000000E+00 Hartree
          ecutwfn2     5.99051324E+00 Hartree
          ecutwfn3     5.99051324E+00 Hartree
-          fftalg         112
            fftgw1         21
            fftgw2         11
            fftgw3         11
           getkss1          0
           getkss2         -1
           getkss3         -2
           getscr1          0
           getscr2          0
           getscr3         -1
         icutcoul1          6
         icutcoul2          6
         icutcoul3          3
          inclvkb1          1
          inclvkb2          0
          inclvkb3          1
           jdtset        1    2    3
              kpt      0.00000000E+00  0.00000000E+00  2.50000000E-01
                       3.33333333E-01  0.00000000E+00  2.50000000E-01
                      -3.33333333E-01  0.00000000E+00  2.50000000E-01
                       3.33333333E-01  3.33333333E-01  2.50000000E-01
            kptgw3     0.00000000E+00  0.00000000E+00  2.50000000E-01
         kptrlatt        3    0    0      0    3    0      0    0    2
          kptrlen      2.04265411E+01
          kssform1          3
          kssform2          1
          kssform3          1
P           mkmem           4
            natom           9
            nband1         55
            nband2         50
            nband3         50
         nbandkss1         50
         nbandkss2          0
         nbandkss3          0
           nbdbuf1          5
           nbdbuf2          0
           nbdbuf3          0
           ndtset           3
            ngfft          24      24      24
             nkpt           4
           nkptgw1          0
           nkptgw2          0
           nkptgw3          1
           npweps1          0
           npweps2         41
           npweps3          0
          npwsigx1          0
          npwsigx2          0
          npwsigx3        563
           npwwfn1          0
           npwwfn2        563
           npwwfn3        563
           nsheps1          0
           nsheps2         10
           nsheps3          0
          nshsigx1          0
          nshsigx2          0
          nshsigx3        100
            nstep          20
             nsym           6
           ntypat           2
              occ1     2.000000  2.000000  2.000000  2.000000  2.000000  2.000000
                       2.000000  2.000000  2.000000  2.000000  2.000000  2.000000
                       2.000000  2.000000  2.000000  2.000000  2.000000  2.000000
                       2.000000  2.000000  2.000000  2.000000  2.000000  2.000000
                       0.000000  0.000000  0.000000  0.000000  0.000000  0.000000
                       0.000000  0.000000  0.000000  0.000000  0.000000  0.000000
                       0.000000  0.000000  0.000000  0.000000  0.000000  0.000000
                       0.000000  0.000000  0.000000  0.000000  0.000000  0.000000
                       0.000000  0.000000  0.000000  0.000000  0.000000  0.000000
                       0.000000
              occ2     2.000000  2.000000  2.000000  2.000000  2.000000  2.000000
                       2.000000  2.000000  2.000000  2.000000  2.000000  2.000000
                       2.000000  2.000000  2.000000  2.000000  2.000000  2.000000
                       2.000000  2.000000  2.000000  2.000000  2.000000  2.000000
                       0.000000  0.000000  0.000000  0.000000  0.000000  0.000000
                       0.000000  0.000000  0.000000  0.000000  0.000000  0.000000
                       0.000000  0.000000  0.000000  0.000000  0.000000  0.000000
                       0.000000  0.000000  0.000000  0.000000  0.000000  0.000000
                       0.000000  0.000000
              occ3     2.000000  2.000000  2.000000  2.000000  2.000000  2.000000
                       2.000000  2.000000  2.000000  2.000000  2.000000  2.000000
                       2.000000  2.000000  2.000000  2.000000  2.000000  2.000000
                       2.000000  2.000000  2.000000  2.000000  2.000000  2.000000
                       0.000000  0.000000  0.000000  0.000000  0.000000  0.000000
                       0.000000  0.000000  0.000000  0.000000  0.000000  0.000000
                       0.000000  0.000000  0.000000  0.000000  0.000000  0.000000
                       0.000000  0.000000  0.000000  0.000000  0.000000  0.000000
                       0.000000  0.000000
        optdriver1          0
        optdriver2          3
        optdriver3          4
            rprim      5.0000000000E-01 -8.6602540378E-01  0.0000000000E+00
                       5.0000000000E-01  8.6602540378E-01  0.0000000000E+00
                       0.0000000000E+00  0.0000000000E+00  1.0000000000E+00
           shiftk      0.00000000E+00  0.00000000E+00  5.00000000E-01
          spgroup         154
           symchi1       0
           symchi2       1
           symchi3       0
           symrel      1  0  0   0  1  0   0  0  1       1  0  0  -1 -1  0   0  0 -1
                       0  1  0  -1 -1  0   0  0  1       0  1  0   1  0  0   0  0 -1
                      -1 -1  0   1  0  0   0  0  1      -1 -1  0   0  1  0   0  0 -1
         symsigma1       0
         symsigma2       0
         symsigma3       1
            tnons      0.0000000  0.0000000  0.0000000     0.0000000  0.0000000  0.0000000
                       0.0000000  0.0000000 -0.3333333     0.0000000  0.0000000 -0.3333333
                       0.0000000  0.0000000  0.3333333     0.0000000  0.0000000  0.3333333
           tolwfr1     1.00000000E-10
           tolwfr2     0.00000000E+00
           tolwfr3     0.00000000E+00
            typat      2  1  2  2  1  1  2  2  2
              wtk        0.11111    0.33333    0.33333    0.22222
           xangst      1.6876292400E+00 -6.0843889532E-01  6.4855560000E-01
                       1.1422818000E+00 -1.9784901142E+00  0.0000000000E+00
                      -1.3707381600E+00 -1.1573103463E+00  2.4500989333E+00
                       1.6876292400E+00  6.0843889532E-01  2.9545310667E+00
                       1.1422818000E+00  1.9784901142E+00  3.6030866667E+00
                      -2.2845636000E+00  0.0000000000E+00  1.8015433333E+00
                      -3.1689108000E-01  1.7657492417E+00  4.2516422667E+00
                      -3.1689108000E-01 -1.7657492417E+00 -6.4855560000E-01
                      -1.3707381600E+00  1.1573103463E+00  1.1529877333E+00
            xcart      3.1891570774E+00 -1.1497828807E+00  1.2255924659E+00
                       2.1585997686E+00 -3.7388044724E+00  0.0000000000E+00
                      -2.5903197223E+00 -2.1869996053E+00  4.6300159825E+00
                       3.1891570774E+00  1.1497828807E+00  5.5832545671E+00
                       2.1585997686E+00  3.7388044724E+00  6.8088470331E+00
                      -4.3171995372E+00  0.0000000000E+00  3.4044235165E+00
                      -5.9883735515E-01  3.3367824861E+00  8.0344394990E+00
                      -5.9883735515E-01 -3.3367824861E+00 -1.2255924659E+00
                      -2.5903197223E+00  2.1869996053E+00  2.1788310506E+00
             xred      4.1500000000E-01  2.7200000000E-01  1.2000000000E-01
                       4.6500000000E-01  0.0000000000E+00  0.0000000000E+00
                      -1.4300000000E-01 -4.1500000000E-01  4.5333333333E-01
                       2.7200000000E-01  4.1500000000E-01  5.4666666667E-01
                       0.0000000000E+00  4.6500000000E-01  6.6666666667E-01
                      -4.6500000000E-01 -4.6500000000E-01  3.3333333333E-01
                      -2.7200000000E-01  1.4300000000E-01  7.8666666667E-01
                       1.4300000000E-01 -2.7200000000E-01 -1.2000000000E-01
                      -4.1500000000E-01 -1.4300000000E-01  2.1333333333E-01
             zcut1     3.67493260E-03 Hartree
             zcut2     3.67493260E-03 Hartree
             zcut3     3.67493254E-03 Hartree
            znucl       14.00000    8.00000

================================================================================

 chkinp: Checking input parameters for consistency, jdtset=   1.

 chkinp: Checking input parameters for consistency, jdtset=   2.

 chkinp: Checking input parameters for consistency, jdtset=   3.

================================================================================
== DATASET  1 ==================================================================
-   nproc =    1

 Exchange-correlation functional for the present dataset will be:
  LDA: new Teter (4/93) with spin-polarized option - ixc=1
 Citation for XC functional:
  S. Goedecker, M. Teter, J. Huetter, PRB 54, 1703 (1996)

 Real(R)+Recip(G) space primitive vectors, cartesian coordinates (Bohr,Bohr^-1):
 R(1)=  4.6421500 -8.0404397  0.0000000  G(1)=  0.1077087 -0.0621857  0.0000000
 R(2)=  4.6421500  8.0404397  0.0000000  G(2)=  0.1077087  0.0621857  0.0000000
 R(3)=  0.0000000  0.0000000 10.2132705  G(3)=  0.0000000  0.0000000  0.0979118
 Unit cell volume ucvol=  7.6241917E+02 bohr^3
 Angles (23,13,12)=  9.00000000E+01  9.00000000E+01  1.20000000E+02 degrees

 getcut: wavevector=  0.0000  0.0000  0.0000  ngfft=  24  24  24
         ecut(hartree)=      6.000   => boxcut(ratio)=   2.13111

--- Pseudopotential description ------------------------------------------------
- pspini: atom type   1  psp file is /home/gonze/ABINIT/ABINITv7.9.3/trunk/7.9.3-private/tests/Psps_for_tests/14si.pspnc
- pspatm: opening atomic psp file    /home/gonze/ABINIT/ABINITv7.9.3/trunk/7.9.3-private/tests/Psps_for_tests/14si.pspnc
-  Troullier-Martins psp for element  Si        Thu Oct 27 17:31:21 EDT 1994
- 14.00000   4.00000    940714                znucl, zion, pspdat
    1    1    2    2      2001   0.00000      pspcod,pspxc,lmax,lloc,mmax,r2well
    0   5.907  14.692    1   2.0872718        l,e99.0,e99.9,nproj,rcpsp
   0.00000000   0.00000000   0.00000000   0.00000000     rms, ekb1, ekb2, epsatm
    1   2.617   4.181    1   2.0872718        l,e99.0,e99.9,nproj,rcpsp
   0.00000000   0.00000000   0.00000000   0.00000000     rms, ekb1, ekb2, epsatm
    2   0.000   0.000    0   2.0872718        l,e99.0,e99.9,nproj,rcpsp
   0.00000000   0.00000000   0.00000000   0.00000000     rms, ekb1, ekb2, epsatm
    1.80626423934776    0.22824404341771    1.17378968127746   rchrg,fchrg,qchrg
 pspatm: epsatm=    1.43386982
         --- l  ekb(1:nproj) -->
             0    3.287949
             1    1.849886
 pspatm: atomic psp has been read  and splines computed

- pspini: atom type   2  psp file is /home/gonze/ABINIT/ABINITv7.9.3/trunk/7.9.3-private/tests/Psps_for_tests/08o_001023.pspfhi
- pspatm: opening atomic psp file    /home/gonze/ABINIT/ABINITv7.9.3/trunk/7.9.3-private/tests/Psps_for_tests/08o_001023.pspfhi
- O, fhi98PP: TM-type, LDA PerdewWang, l=2 local
-  8.00000   6.00000      1023                znucl, zion, pspdat
    6    7    2    2       473   0.00000      pspcod,pspxc,lmax,lloc,mmax,r2well
    1.20000000000000    0.00000000000000    0.00000000000000   rchrg,fchrg,qchrg
  1.024700          amesh (Hamman grid)
 pspatm: epsatm=    2.60350195
         --- l  ekb(1:nproj) -->
             0    4.939348
             1   -3.218107
 pspatm: atomic psp has been read  and splines computed

   9.56285816E+02                                ecore*ucvol(ha*bohr**3)
--------------------------------------------------------------------------------

P newkpt: treating     55 bands with npw=     533 for ikpt=   1 by node    0
P newkpt: treating     55 bands with npw=     539 for ikpt=   2 by node    0
P newkpt: treating     55 bands with npw=     539 for ikpt=   3 by node    0
P newkpt: treating     55 bands with npw=     546 for ikpt=   4 by node    0

_setup2: Arith. and geom. avg. npw (full set) are     539.889     539.876

================================================================================

     iter   Etot(hartree)      deltaE(h)  residm     vres2
 ETOT  1  -97.678523489173    -9.768E+01 5.720E-03 5.476E+02
 ETOT  2  -98.998519341423    -1.320E+00 9.034E-05 1.328E+02
 ETOT  3  -99.396400749240    -3.979E-01 4.524E-03 1.629E-01
 ETOT  4  -99.397020365167    -6.196E-04 4.378E-06 5.606E-03
 ETOT  5  -99.397029306271    -8.941E-06 1.897E-07 2.145E-04
 ETOT  6  -99.397029628294    -3.220E-07 5.817E-09 3.063E-06
 ETOT  7  -99.397029630610    -2.315E-09 1.198E-10 2.226E-07
 ETOT  8  -99.397029630807    -1.973E-10 8.688E-11 3.643E-09

 At SCF step    8   max residual=  8.69E-11 < tolwfr=  1.00E-10 =>converged.

 Cartesian components of stress tensor (hartree/bohr^3)
  sigma(1 1)=  4.84839831E-03  sigma(3 2)=  0.00000000E+00
  sigma(2 2)=  4.84839831E-03  sigma(3 1)=  0.00000000E+00
  sigma(3 3)=  4.70195977E-03  sigma(2 1)=  0.00000000E+00


======================================================================
 Calculating and writing out Kohn-Sham electronic Structure file
 Using conjugate gradient wavefunctions and energies (kssform=3)
 number of Gamma centered plane waves    731
 number of Gamma centered shells    128
 number of bands     50
 maximum angular momentum components      3
 Conjugate gradient eigenvalues
   k    eigenvalues [Hartree]
   1     -0.9346 -0.9178 -0.8997 -0.8967 -0.8963 -0.8956 -0.2357 -0.1724 -0.0976
         -0.0855 -0.0747 -0.0516  0.0005  0.0139  0.0334  0.0458  0.0734  0.0893
          0.0942  0.1019  0.1169  0.1495  0.1632  0.1766  0.2545  0.3727  0.4149
          0.4195  0.4708  0.4839  0.5121  0.5266  0.5765  0.5849  0.6205  0.6253
          0.6353  0.6505  0.6642  0.6670  0.6692  0.6923  0.7282  0.7700  0.7901
          0.8115  0.8136  0.8297  0.8553  0.8667
   2     -0.9293 -0.9172 -0.9051 -0.8978 -0.8971 -0.8964 -0.2216 -0.1765 -0.1182
         -0.0785 -0.0673 -0.0570 -0.0085 -0.0001  0.0334  0.0553  0.0631  0.0791
          0.0843  0.1134  0.1267  0.1299  0.1601  0.1726  0.3193  0.3778  0.3907
          0.4471  0.4721  0.5001  0.5200  0.5226  0.5364  0.5678  0.5800  0.5917
          0.6274  0.6373  0.6648  0.6892  0.6930  0.7003  0.7216  0.7382  0.7565
          0.7799  0.7900  0.8166  0.8380  0.8586
   3     -0.9296 -0.9170 -0.9054 -0.8977 -0.8972 -0.8963 -0.2224 -0.1754 -0.1192
         -0.0811 -0.0676 -0.0532 -0.0033  0.0017  0.0321  0.0422  0.0616  0.0862
          0.0992  0.1107  0.1160  0.1305  0.1526  0.1813  0.3095  0.3939  0.4191
          0.4320  0.4632  0.4678  0.4994  0.5381  0.5465  0.5710  0.5965  0.6056
          0.6216  0.6261  0.6521  0.6708  0.6900  0.7127  0.7243  0.7314  0.7800
          0.7983  0.8057  0.8237  0.8381  0.8508
   4     -0.9252 -0.9183 -0.9090 -0.8981 -0.8977 -0.8976 -0.2148 -0.1683 -0.1450
         -0.0822 -0.0707 -0.0511 -0.0045  0.0061  0.0203  0.0553  0.0595  0.0736
          0.0943  0.0952  0.1215  0.1432  0.1455  0.1656  0.3595  0.3977  0.4140
          0.4317  0.4558  0.4921  0.5121  0.5206  0.5289  0.5463  0.5577  0.5884
          0.6030  0.6413  0.6492  0.6748  0.6903  0.6961  0.7469  0.7524  0.7533
          0.7713  0.8002  0.8172  0.8500  0.8507
 Test on the normalization of the wavefunctions
  min sum_G |a(n,k,G)| =  1.000000
  max sum_G |a(n,k,G)| =  1.000000
 Test on the orthogonalization of the wavefunctions
  min sum_G a(n,k,G)a(n',k,G) =  0.000000
  max sum_G a(n,k,G)a(n',k,G) =  0.000000

================================================================================

 ----iterations are completed or convergence reached----

 Mean square residual over all n,k,spin=   1.0870E-06; max=  2.1435E-04
   0.0000  0.0000  0.2500    1  7.55535E-07 kpt; spin; max resid(k); each band:
  7.09E-12 7.09E-12 7.01E-12 7.13E-12 7.13E-12 7.01E-12 9.83E-12 9.89E-12
  1.14E-11 9.69E-12 1.11E-11 1.20E-11 7.10E-11 5.74E-11 7.10E-11 6.34E-12
  8.28E-12 4.80E-12 6.48E-11 7.87E-12 6.80E-12 6.46E-11 5.49E-11 5.95E-11
  1.06E-11 6.54E-12 1.22E-11 7.01E-12 1.03E-11 1.60E-11 8.57E-12 1.26E-11
  1.78E-11 6.98E-12 8.69E-11 6.70E-12 1.40E-11 1.44E-11 1.38E-11 1.17E-11
  9.23E-12 1.02E-11 9.32E-12 1.33E-11 1.85E-11 1.57E-11 1.24E-11 3.05E-11
  2.11E-11 3.70E-11 4.88E-11 1.18E-10 1.82E-10 1.23E-09 7.56E-07
   0.3333  0.0000  0.2500    1  4.05659E-07 kpt; spin; max resid(k); each band:
  7.11E-12 7.11E-12 7.05E-12 7.06E-12 7.05E-12 7.10E-12 9.92E-12 9.97E-12
  1.02E-11 1.04E-11 1.18E-11 1.25E-11 7.06E-11 6.60E-12 6.07E-12 6.49E-12
  6.32E-11 6.22E-12 5.97E-12 6.26E-11 6.81E-11 4.78E-12 5.99E-11 5.78E-11
  9.61E-12 9.36E-12 1.07E-11 1.10E-11 1.15E-11 1.35E-11 1.16E-11 9.15E-12
  9.56E-12 1.30E-11 1.01E-11 9.58E-12 1.13E-11 1.78E-11 8.89E-12 9.20E-12
  7.68E-12 9.29E-12 1.35E-11 1.63E-11 1.41E-11 1.85E-11 1.39E-11 1.83E-11
  1.82E-11 2.28E-11 2.88E-11 4.01E-11 4.31E-11 9.75E-08 4.06E-07
  -0.3333  0.0000  0.2500    1  2.14352E-04 kpt; spin; max resid(k); each band:
  7.10E-12 7.10E-12 7.07E-12 7.05E-12 7.14E-12 7.07E-12 9.97E-12 9.90E-12
  1.08E-11 1.02E-11 1.13E-11 9.72E-12 7.56E-12 1.13E-11 6.82E-12 6.88E-12
  7.61E-12 6.16E-12 6.86E-12 6.56E-11 5.99E-12 6.51E-11 6.49E-11 5.85E-11
  1.07E-11 8.91E-12 1.15E-11 1.06E-11 1.23E-11 1.02E-11 1.21E-11 1.10E-11
  1.52E-11 8.61E-11 1.23E-11 1.24E-11 1.40E-11 1.87E-11 1.62E-11 9.89E-12
  1.29E-11 1.68E-11 1.58E-11 9.58E-12 2.16E-11 2.39E-11 1.69E-11 3.96E-11
  4.30E-11 4.54E-11 3.20E-10 1.00E-08 2.20E-09 2.29E-05 2.14E-04
   0.3333  0.3333  0.2500    1  5.01279E-07 kpt; spin; max resid(k); each band:
  7.14E-12 7.07E-12 7.15E-12 7.08E-12 7.02E-12 7.10E-12 1.00E-11 9.76E-12
  1.02E-11 1.22E-11 9.99E-12 1.21E-11 8.12E-12 6.18E-12 8.25E-12 6.32E-11
  7.03E-11 6.79E-12 6.44E-11 6.13E-11 6.58E-11 6.23E-11 6.42E-11 6.17E-11
  8.96E-12 9.37E-12 1.01E-11 1.08E-11 6.44E-12 1.08E-11 1.49E-11 1.25E-11
  1.23E-11 9.67E-12 1.86E-11 5.51E-12 1.36E-11 9.13E-12 1.28E-11 9.15E-12
  8.44E-12 1.47E-11 1.38E-11 1.46E-11 1.99E-11 1.48E-11 2.81E-11 1.46E-11
  2.58E-11 3.21E-11 3.72E-11 8.65E-11 4.30E-09 5.01E-07 1.57E-07
 reduced coordinates (array xred) for    9 atoms
       0.415000000000      0.272000000000      0.120000000000
       0.465000000000      0.000000000000      0.000000000000
      -0.143000000000     -0.415000000000      0.453333333333
       0.272000000000      0.415000000000      0.546666666667
       0.000000000000      0.465000000000      0.666666666667
      -0.465000000000     -0.465000000000      0.333333333333
      -0.272000000000      0.143000000000      0.786666666667
       0.143000000000     -0.272000000000     -0.120000000000
      -0.415000000000     -0.143000000000      0.213333333333
 rms dE/dt=  4.7908E-01; max dE/dt=  8.2050E-01; dE/dt below (all hartree)
    1       0.820503981004     -0.343321209075      0.594667238450
    2      -0.006509126001      0.003254563001      0.000000000000
    3      -0.343321209075     -0.477182771929      0.594667238450
    4      -0.343321209075      0.820503981004     -0.594667238450
    5       0.003254563001     -0.006509126001      0.000000000000
    6       0.003254563001      0.003254563001      0.000000000000
    7      -0.477182771929      0.820503981004      0.594667238450
    8       0.820503981004     -0.477182771929     -0.594667238450
    9      -0.477182771929     -0.343321209075     -0.594667238450

 cartesian coordinates (angstrom) at end:
    1      1.68762924000000    -0.60843889531958     0.64855560000000
    2      1.14228180000000    -1.97849011415109     0.00000000000000
    3     -1.37073816000000    -1.15731034634214     2.45009893333333
    4      1.68762924000000     0.60843889531958     2.95453106666667
    5      1.14228180000000     1.97849011415109     3.60308666666667
    6     -2.28456360000000     0.00000000000000     1.80154333333333
    7     -0.31689108000000     1.76574924166173     4.25164226666667
    8     -0.31689108000000    -1.76574924166173    -0.64855560000000
    9     -1.37073816000000     1.15731034634214     1.15298773333333

 cartesian forces (hartree/bohr) at end:
    1     -0.05139674157685     0.07237323018445    -0.05822495698740
    2      0.00035054478772    -0.00060716138266    -0.00000000000000
    3      0.08837542668178     0.00832426878530    -0.05822495698740
    4     -0.05139674157685    -0.07237323018445     0.05822495698740
    5      0.00035054478772     0.00060716138266    -0.00000000000000
    6     -0.00070108957544     0.00000000000000    -0.00000000000000
    7     -0.03697868510493    -0.08069749896975    -0.05822495698740
    8     -0.03697868510493     0.08069749896975     0.05822495698740
    9      0.08837542668178    -0.00832426878530     0.05822495698740
 frms,max,avg= 5.0044205E-02 8.8375427E-02   0.000E+00  0.000E+00  0.000E+00 h/b

 cartesian forces (eV/Angstrom) at end:
    1     -2.64292649323933     3.72158081597026    -2.99404741757070
    2      0.01802573622578    -0.03122149098705    -0.00000000000000
    3      4.54444677547021     0.42805107550678    -2.99404741757070
    4     -2.64292649323933    -3.72158081597026     2.99404741757070
    5      0.01802573622578     0.03122149098705    -0.00000000000000
    6     -0.03605147245156     0.00000000000000    -0.00000000000000
    7     -1.90152028223088    -4.14963189147704    -2.99404741757070
    8     -1.90152028223088     4.14963189147704     2.99404741757070
    9      4.54444677547021    -0.42805107550678     2.99404741757070
 frms,max,avg= 2.5733763E+00 4.5444468E+00   0.000E+00  0.000E+00  0.000E+00 e/A
 length scales=  9.284300079912  9.284300079912 10.213270549578 bohr
              =  4.913040000000  4.913040000000  5.404630000000 angstroms
 prteigrs : about to open file t07o_DS1_EIG
 Fermi (or HOMO) energy (hartree) =   0.18130   Average Vxc (hartree)=  -0.38066
 Eigenvalues (hartree) for nkpt=   4  k points:
 kpt#   1, nband= 55, wtk=  0.11111, kpt=  0.0000  0.0000  0.2500 (reduced coord)
  -0.93462  -0.91777  -0.89969  -0.89673  -0.89633  -0.89557  -0.23571  -0.17244
  -0.09757  -0.08552  -0.07469  -0.05161   0.00045   0.01389   0.03339   0.04583
   0.07345   0.08933   0.09423   0.10192   0.11690   0.14954   0.16318   0.17663
   0.25447   0.37266   0.41494   0.41946   0.47083   0.48393   0.51210   0.52657
   0.57647   0.58487   0.62049   0.62530   0.63531   0.65051   0.66417   0.66701
   0.66923   0.69232   0.72817   0.76999   0.79007   0.81155   0.81363   0.82971
   0.85530   0.86670   0.88795   0.89408   0.89517   0.91215   0.92927
 kpt#   2, nband= 55, wtk=  0.33333, kpt=  0.3333  0.0000  0.2500 (reduced coord)
  -0.92928  -0.91722  -0.90506  -0.89783  -0.89713  -0.89643  -0.22160  -0.17650
  -0.11820  -0.07847  -0.06730  -0.05702  -0.00854  -0.00007   0.03345   0.05529
   0.06314   0.07912   0.08428   0.11343   0.12671   0.12990   0.16006   0.17260
   0.31927   0.37780   0.39074   0.44709   0.47205   0.50010   0.51998   0.52261
   0.53638   0.56781   0.58001   0.59170   0.62736   0.63735   0.66484   0.68922
   0.69298   0.70029   0.72156   0.73815   0.75645   0.77995   0.78996   0.81658
   0.83799   0.85865   0.87416   0.89649   0.91039   0.94561   0.95833
 kpt#   3, nband= 55, wtk=  0.33333, kpt= -0.3333  0.0000  0.2500 (reduced coord)
  -0.92963  -0.91702  -0.90538  -0.89765  -0.89715  -0.89633  -0.22237  -0.17535
  -0.11925  -0.08113  -0.06758  -0.05317  -0.00327   0.00172   0.03212   0.04224
   0.06164   0.08622   0.09924   0.11074   0.11604   0.13046   0.15259   0.18130
   0.30951   0.39386   0.41912   0.43201   0.46319   0.46782   0.49938   0.53810
   0.54652   0.57098   0.59653   0.60561   0.62156   0.62612   0.65205   0.67083
   0.69002   0.71272   0.72433   0.73136   0.78005   0.79825   0.80568   0.82372
   0.83807   0.85083   0.89090   0.90223   0.90689   0.92047   0.93501
 kpt#   4, nband= 55, wtk=  0.22222, kpt=  0.3333  0.3333  0.2500 (reduced coord)
  -0.92520  -0.91827  -0.90897  -0.89812  -0.89767  -0.89761  -0.21483  -0.16835
  -0.14498  -0.08220  -0.07070  -0.05109  -0.00454   0.00614   0.02028   0.05529
   0.05946   0.07361   0.09427   0.09520   0.12154   0.14316   0.14554   0.16555
   0.35951   0.39769   0.41398   0.43175   0.45582   0.49214   0.51213   0.52061
   0.52887   0.54629   0.55770   0.58839   0.60296   0.64127   0.64922   0.67480
   0.69029   0.69606   0.74685   0.75238   0.75331   0.77133   0.80020   0.81722
   0.85004   0.85066   0.87561   0.88592   0.90790   0.92383   0.93005
 Total charge density [el/Bohr^3]
,     Maximum=    4.8901E-01  at reduced coord.    0.0833    0.7083    0.8750
,Next maximum=    4.8901E-01  at reduced coord.    0.7083    0.0833    0.7917
,     Minimum=    1.5981E-03  at reduced coord.    0.0000    0.3333    0.1667
,Next minimum=    1.5981E-03  at reduced coord.    0.3333    0.0000    0.5000
,  Integrated=    4.8000E+01

--------------------------------------------------------------------------------
 Components of total free energy (in Hartree) :

    Kinetic energy  =  4.87385893725592E+01
    Hartree energy  =  2.62599330831070E+01
    XC energy       = -2.40541581213750E+01
    Ewald energy    = -6.95068319280861E+01
    PspCore energy  =  1.25427829794022E+00
    Loc. psp. energy= -9.58252823757467E+01
    NL   psp  energy=  1.37364420407942E+01
    >>>>>>>>> Etotal= -9.93970296308071E+01

 Other information on the energy :
    Total energy(eV)= -2.70473072782769E+03 ; Band energy (Ha)=  -1.0314521010E+01
--------------------------------------------------------------------------------

 Cartesian components of stress tensor (hartree/bohr^3)
  sigma(1 1)=  4.84839831E-03  sigma(3 2)=  0.00000000E+00
  sigma(2 2)=  4.84839831E-03  sigma(3 1)=  0.00000000E+00
  sigma(3 3)=  4.70195977E-03  sigma(2 1)=  0.00000000E+00

-Cartesian components of stress tensor (GPa)         [Pressure= -1.4121E+02 GPa]
- sigma(1 1)=  1.42644779E+02  sigma(3 2)=  0.00000000E+00
- sigma(2 2)=  1.42644779E+02  sigma(3 1)=  0.00000000E+00
- sigma(3 3)=  1.38336409E+02  sigma(2 1)=  0.00000000E+00

================================================================================
== DATASET  2 ==================================================================
-   nproc =    1

 mkfilename : getkss/=0, take file _KSS from output of DATASET   1.

 Exchange-correlation functional for the present dataset will be:
  LDA: new Teter (4/93) with spin-polarized option - ixc=1
 Citation for XC functional:
  S. Goedecker, M. Teter, J. Huetter, PRB 54, 1703 (1996)

 SCREENING: Calculation of the susceptibility and dielectric matrices 

 Based on a program developped by R.W. Godby, V. Olevano, G. Onida, and L. Reining.
 Incorporated in ABINIT by V. Olevano, G.-M. Rignanese, and M. Torrent.
.Using double precision arithmetic ; gwpc =  8

 Real(R)+Recip(G) space primitive vectors, cartesian coordinates (Bohr,Bohr^-1):
 R(1)=  4.6421500 -8.0404397  0.0000000  G(1)=  0.1077087 -0.0621857  0.0000000
 R(2)=  4.6421500  8.0404397  0.0000000  G(2)=  0.1077087  0.0621857  0.0000000
 R(3)=  0.0000000  0.0000000 10.2132705  G(3)=  0.0000000  0.0000000  0.0979118
 Unit cell volume ucvol=  7.6241917E+02 bohr^3
 Angles (23,13,12)=  9.00000000E+01  9.00000000E+01  1.20000000E+02 degrees

--- Pseudopotential description ------------------------------------------------
- pspini: atom type   1  psp file is /home/gonze/ABINIT/ABINITv7.9.3/trunk/7.9.3-private/tests/Psps_for_tests/14si.pspnc
- pspatm: opening atomic psp file    /home/gonze/ABINIT/ABINITv7.9.3/trunk/7.9.3-private/tests/Psps_for_tests/14si.pspnc
-  Troullier-Martins psp for element  Si        Thu Oct 27 17:31:21 EDT 1994
- 14.00000   4.00000    940714                znucl, zion, pspdat
    1    1    2    2      2001   0.00000      pspcod,pspxc,lmax,lloc,mmax,r2well
    0   5.907  14.692    1   2.0872718        l,e99.0,e99.9,nproj,rcpsp
   0.00000000   0.00000000   0.00000000   0.00000000     rms, ekb1, ekb2, epsatm
    1   2.617   4.181    1   2.0872718        l,e99.0,e99.9,nproj,rcpsp
   0.00000000   0.00000000   0.00000000   0.00000000     rms, ekb1, ekb2, epsatm
    2   0.000   0.000    0   2.0872718        l,e99.0,e99.9,nproj,rcpsp
   0.00000000   0.00000000   0.00000000   0.00000000     rms, ekb1, ekb2, epsatm
    1.80626423934776    0.22824404341771    1.17378968127746   rchrg,fchrg,qchrg
 pspatm: epsatm=    1.43386982
         --- l  ekb(1:nproj) -->
             0    3.287949
             1    1.849886
 pspatm: atomic psp has been read  and splines computed

- pspini: atom type   2  psp file is /home/gonze/ABINIT/ABINITv7.9.3/trunk/7.9.3-private/tests/Psps_for_tests/08o_001023.pspfhi
- pspatm: opening atomic psp file    /home/gonze/ABINIT/ABINITv7.9.3/trunk/7.9.3-private/tests/Psps_for_tests/08o_001023.pspfhi
- O, fhi98PP: TM-type, LDA PerdewWang, l=2 local
-  8.00000   6.00000      1023                znucl, zion, pspdat
    6    7    2    2       473   0.00000      pspcod,pspxc,lmax,lloc,mmax,r2well
    1.20000000000000    0.00000000000000    0.00000000000000   rchrg,fchrg,qchrg
  1.024700          amesh (Hamman grid)
 pspatm: epsatm=    2.60350195
         --- l  ekb(1:nproj) -->
             0    4.939348
             1   -3.218107
 pspatm: atomic psp has been read  and splines computed

--------------------------------------------------------------------------------

 ==== K-mesh for the wavefunctions ====
 Number of points in the irreducible wedge :     4
 Reduced coordinates and weights : 

     1)     0.00000000E+00  0.00000000E+00  2.50000000E-01       0.11111
     2)     3.33333333E-01  0.00000000E+00  2.50000000E-01       0.33333
     3)    -3.33333333E-01  0.00000000E+00  2.50000000E-01       0.33333
     4)     3.33333333E-01  3.33333333E-01  2.50000000E-01       0.22222

 Together with  6 symmetry operations and time-reversal symmetry 
 yields    18 points in the full Brillouin Zone.


 ==== Q-mesh for the screening function ====
 Number of points in the irreducible wedge :     6
 Reduced coordinates and weights : 

     1)     0.00000000E+00  0.00000000E+00  0.00000000E+00       0.05556
     2)     0.00000000E+00  0.00000000E+00  5.00000000E-01       0.05556
     3)     3.33333333E-01  0.00000000E+00  0.00000000E+00       0.33333
     4)     3.33333333E-01 -3.33333333E-01  5.00000000E-01       0.33333
     5)     3.33333333E-01  3.33333333E-01  0.00000000E+00       0.11111
     6)     3.33333333E-01  3.33333333E-01  5.00000000E-01       0.11111

 Together with  6 symmetry operations and time-reversal symmetry 
 yields    18 points in the full Brillouin Zone.


 setmesh: FFT mesh size selected  =  12x 12x 12
          total number of points  =     1728


 k       eigenvalues [eV]
  1        -25.43 -24.97 -24.48 -24.40 -24.39 -24.37  -6.41  -4.69  -2.65  -2.33
            -2.03  -1.40   0.01   0.38   0.91   1.25   2.00   2.43   2.56   2.77
             3.18   4.07   4.44   4.81   6.92  10.14  11.29  11.41  12.81  13.17
            13.93  14.33  15.69  15.92  16.88  17.02  17.29  17.70  18.07  18.15
            18.21  18.84  19.81  20.95  21.50  22.08  22.14  22.58  23.27  23.58

  2        -25.29 -24.96 -24.63 -24.43 -24.41 -24.39  -6.03  -4.80  -3.22  -2.14
            -1.83  -1.55  -0.23  -0.00   0.91   1.50   1.72   2.15   2.29   3.09
             3.45   3.53   4.36   4.70   8.69  10.28  10.63  12.17  12.85  13.61
            14.15  14.22  14.60  15.45  15.78  16.10  17.07  17.34  18.09  18.75
            18.86  19.06  19.63  20.09  20.58  21.22  21.50  22.22  22.80  23.36

  3        -25.30 -24.95 -24.64 -24.43 -24.41 -24.39  -6.05  -4.77  -3.24  -2.21
            -1.84  -1.45  -0.09   0.05   0.87   1.15   1.68   2.35   2.70   3.01
             3.16   3.55   4.15   4.93   8.42  10.72  11.40  11.76  12.60  12.73
            13.59  14.64  14.87  15.54  16.23  16.48  16.91  17.04  17.74  18.25
            18.78  19.39  19.71  19.90  21.23  21.72  21.92  22.41  22.81  23.15

  4        -25.18 -24.99 -24.73 -24.44 -24.43 -24.43  -5.85  -4.58  -3.95  -2.24
            -1.92  -1.39  -0.12   0.17   0.55   1.50   1.62   2.00   2.57   2.59
             3.31   3.90   3.96   4.50   9.78  10.82  11.27  11.75  12.40  13.39
            13.94  14.17  14.39  14.87  15.18  16.01  16.41  17.45  17.67  18.36
            18.78  18.94  20.32  20.47  20.50  20.99  21.77  22.24  23.13  23.15

 Number of electrons calculated from density =   47.9977; Expected =   48.0000
 average of density, n =  0.062954
 r_s =    1.5594
 omega_plasma =   24.2030 [eV]


 calculating chi0 at frequencies [eV] :
  1    0.000000E+00    0.000000E+00
  2    0.000000E+00    2.420297E+01


--------------------------------------------------------------------------------
  q-point number  1        q = ( 0.000000, 0.000000, 0.000000) [r.l.u.]
--------------------------------------------------------------------------------
  chi0(G,G') at the    1 th omega   0.0000   0.0000 [eV]
       1       2       3       4       5       6       7       8       9
    1  -0.000  -0.000   0.000   0.000   0.000  -0.000   0.000  -0.000  -0.000
        0.000  -0.000  -0.000  -0.000   0.000  -0.000  -0.000   0.000  -0.000

    2  -0.000 -30.803   0.000   2.746   1.383  -5.492  -2.766   2.746   1.383
        0.000  -0.000  -0.000  -4.756   2.396  -0.000  -0.000   4.756  -2.396

  chi0(G,G') at the    2 th omega   0.0000  24.2030 [eV]
       1       2       3       4       5       6       7       8       9
    1  -0.000  -0.000   0.000   0.000   0.000  -0.000   0.000  -0.000  -0.000
        0.000  -0.000  -0.000  -0.000   0.000  -0.000  -0.000   0.000  -0.000

    2  -0.000  -7.355   0.000   0.598   0.301  -1.197  -0.602   0.598   0.301
        0.000   0.000   0.000  -1.036   0.521   0.000  -0.000   1.036  -0.521

 For q-point:  0.000010 0.000020 0.000030
  dielectric constant =   5.2826
  dielectric constant without local fields =   5.6927

  Average fulfillment of the sum rule on Im[epsilon] for q-point    1 :     33.66  [%]
  Heads and wings of the symmetrical epsilon^-1(G,G') 

   Upper and lower wings at the    1 th omega   0.0000   0.0000 [eV]
       1       2       3       4       5       6       7       8       9
      0.189  -0.014   0.014   0.003   0.004  -0.018   0.018  -0.004  -0.003
      0.000  -0.005  -0.005  -0.001   0.002  -0.001  -0.001   0.002  -0.001
       1       2       3       4       5       6       7       8       9
      0.189  -0.014   0.014   0.003   0.004  -0.018   0.018  -0.004  -0.003
      0.000   0.005   0.005   0.001  -0.002   0.001   0.001  -0.002   0.001


   Upper and lower wings at the    2 th omega   0.0000  24.2030 [eV]
       1       2       3       4       5       6       7       8       9
      0.647  -0.008   0.008   0.009   0.000  -0.019   0.019  -0.000  -0.009
      0.000  -0.003  -0.003   0.000  -0.000   0.000   0.000  -0.000   0.000
       1       2       3       4       5       6       7       8       9
      0.647  -0.008   0.008   0.009   0.000  -0.019   0.019  -0.000  -0.009
      0.000   0.003   0.003  -0.000   0.000  -0.000  -0.000   0.000  -0.000




--------------------------------------------------------------------------------
  q-point number  2        q = ( 0.000000, 0.000000, 0.500000) [r.l.u.]
--------------------------------------------------------------------------------
  chi0(G,G') at the    1 th omega   0.0000   0.0000 [eV]
       1       2       3       4       5       6       7       8       9
    1 -16.119   0.000   0.000   0.899   1.718   0.899   1.718   0.899   1.718
        0.000   0.000  -0.000   0.000  -0.000   0.000   0.000  -0.000   0.000

    2   0.000 -31.068   0.000   3.775   1.742  -7.550  -3.483   3.775   1.742
       -0.000  -0.000  -0.000  -6.538   3.017  -0.000  -0.000   6.538  -3.017

  chi0(G,G') at the    2 th omega   0.0000  24.2030 [eV]
       1       2       3       4       5       6       7       8       9
    1  -2.662  -0.000   0.000   0.188   0.385   0.188   0.385   0.188   0.385
       -0.000   0.000  -0.000   0.000  -0.000   0.000  -0.000  -0.000   0.000

    2  -0.000  -9.224   0.000   1.110   0.609  -2.219  -1.217   1.110   0.609
       -0.000   0.000   0.000  -1.922   1.054  -0.000   0.000   1.922  -1.054

  Average fulfillment of the sum rule on Im[epsilon] for q-point    2 :     49.66  [%]


--------------------------------------------------------------------------------
  q-point number  3        q = ( 0.333333, 0.000000, 0.000000) [r.l.u.]
--------------------------------------------------------------------------------
  chi0(G,G') at the    1 th omega   0.0000   0.0000 [eV]
       1       2       3       4       5       6       7       8       9
    1 -12.641  -0.059   1.064   1.907   2.188   0.411   2.188   0.411  -2.524
       -0.000  -0.102  -1.843  -0.000  -0.063  -0.025   0.063   0.025  -0.000

    2  -0.059 -32.569  -0.398   3.826   1.952  -5.324  -4.014   2.617   0.458
        0.102  -0.000  -0.689  -6.626   3.509   0.052   0.064   4.637  -0.793

  chi0(G,G') at the    2 th omega   0.0000  24.2030 [eV]
       1       2       3       4       5       6       7       8       9
    1  -1.955  -0.032   0.142   0.463   0.421   0.008   0.421   0.008  -0.417
        0.000  -0.056  -0.246  -0.000   0.007  -0.000  -0.007   0.000   0.000

    2  -0.032  -7.917  -0.056   1.014   0.496  -1.019  -1.014   0.424   0.014
        0.056   0.000  -0.097  -1.756   0.885   0.099   0.013   0.932  -0.024

  Average fulfillment of the sum rule on Im[epsilon] for q-point    3 :     48.52  [%]


--------------------------------------------------------------------------------
  q-point number  4        q = ( 0.333333,-0.333333, 0.500000) [r.l.u.]
--------------------------------------------------------------------------------
  chi0(G,G') at the    1 th omega   0.0000   0.0000 [eV]
       1       2       3       4       5       6       7       8       9
    1 -21.540   1.020   0.419   1.943   2.002   1.943   2.005   0.002   2.005
       -0.000  -1.767   0.726   1.638   0.000  -1.638   0.874  -0.000  -0.874

    2   1.020 -31.062  -0.537   3.570   2.316  -7.863  -4.119   3.382   2.038
        1.767  -0.000   0.930  -7.019   4.011  -0.418  -0.025   5.858  -3.580

  chi0(G,G') at the    2 th omega   0.0000  24.2030 [eV]
       1       2       3       4       5       6       7       8       9
    1  -4.150   0.175   0.053   0.503   0.706   0.503   0.371  -0.051   0.371
        0.000  -0.303   0.092   0.227   0.000  -0.227   0.208  -0.000  -0.208

    2   0.175  -9.219  -0.037   1.258   0.736  -2.458  -1.211   0.822   0.627
        0.303   0.000   0.064  -2.112   1.274   0.033   0.025   1.423  -1.037

  Average fulfillment of the sum rule on Im[epsilon] for q-point    4 :     44.33  [%]


--------------------------------------------------------------------------------
  q-point number  5        q = ( 0.333333, 0.333333, 0.000000) [r.l.u.]
--------------------------------------------------------------------------------
  chi0(G,G') at the    1 th omega   0.0000   0.0000 [eV]
       1       2       3       4       5       6       7       8       9
    1 -25.149  -0.878   0.082   2.555   3.051  -0.925   2.555   3.051  -0.925
        0.000   0.413  -0.967   0.151  -0.248  -0.000   0.151  -0.248  -0.000

    2  -0.878 -33.263   0.335   3.538   1.871  -3.149  -4.793   3.502   0.237
       -0.413   0.000  -0.581  -7.199   3.246  -0.394   0.713   6.919  -1.575

  chi0(G,G') at the    2 th omega   0.0000  24.2030 [eV]
       1       2       3       4       5       6       7       8       9
    1  -4.925  -0.322   0.080   0.719   0.672  -0.202   0.719   0.672  -0.202
        0.000   0.094  -0.326  -0.005  -0.000  -0.000  -0.005  -0.000  -0.000

    2  -0.322  -8.626   0.100   1.024   0.533  -0.283  -1.347   0.826   0.010
       -0.094  -0.000  -0.173  -2.064   0.948  -0.011   0.049   1.835  -0.153

  Average fulfillment of the sum rule on Im[epsilon] for q-point    5 :     43.92  [%]


--------------------------------------------------------------------------------
  q-point number  6        q = ( 0.333333, 0.333333, 0.500000) [r.l.u.]
--------------------------------------------------------------------------------
  chi0(G,G') at the    1 th omega   0.0000   0.0000 [eV]
       1       2       3       4       5       6       7       8       9
    1 -28.556  -1.529  -0.432   1.966   3.369   0.730   3.124   3.355   0.730
        0.000   0.324  -0.748  -0.937  -1.121  -1.186   0.075   1.774   1.186

    2  -1.529 -31.267   0.695   4.506   2.633  -6.781  -5.048   4.139   1.861
       -0.324  -0.000  -0.406  -7.388   4.621   0.432  -0.079   6.366  -3.803

  chi0(G,G') at the    2 th omega   0.0000  24.2030 [eV]
       1       2       3       4       5       6       7       8       9
    1  -6.334  -0.385  -0.119   0.701   0.842   0.159   0.892   0.752   0.159
        0.000  -0.007  -0.206  -0.156  -0.279  -0.238   0.085   0.355   0.238

    2  -0.385  -9.217   0.052   1.275   0.747  -1.557  -1.557   1.151   0.439
        0.007   0.000  -0.169  -2.291   1.312   0.034  -0.022   2.147  -0.887

  Average fulfillment of the sum rule on Im[epsilon] for q-point    6 :     42.46  [%]

================================================================================
== DATASET  3 ==================================================================
-   nproc =    1

 mkfilename : getscr/=0, take file _SCR from output of DATASET   2.

 mkfilename : getkss/=0, take file _KSS from output of DATASET   1.

 Exchange-correlation functional for the present dataset will be:
  LDA: new Teter (4/93) with spin-polarized option - ixc=1
 Citation for XC functional:
  S. Goedecker, M. Teter, J. Huetter, PRB 54, 1703 (1996)

 SIGMA: Calculation of the GW corrections 

 Based on a program developped by R.W. Godby, V. Olevano, G. Onida, and L. Reining.
 Incorporated in ABINIT by V. Olevano, G.-M. Rignanese, and M. Torrent.
.Using double precision arithmetic ; gwpc =  8

 Real(R)+Recip(G) space primitive vectors, cartesian coordinates (Bohr,Bohr^-1):
 R(1)=  4.6421500 -8.0404397  0.0000000  G(1)=  0.1077087 -0.0621857  0.0000000
 R(2)=  4.6421500  8.0404397  0.0000000  G(2)=  0.1077087  0.0621857  0.0000000
 R(3)=  0.0000000  0.0000000 10.2132705  G(3)=  0.0000000  0.0000000  0.0979118
 Unit cell volume ucvol=  7.6241917E+02 bohr^3
 Angles (23,13,12)=  9.00000000E+01  9.00000000E+01  1.20000000E+02 degrees
--------------------------------------------------------------------------------

 ==== K-mesh for the wavefunctions ====
 Number of points in the irreducible wedge :     4
 Reduced coordinates and weights : 

     1)     0.00000000E+00  0.00000000E+00  2.50000000E-01       0.11111
     2)     3.33333333E-01  0.00000000E+00  2.50000000E-01       0.33333
     3)    -3.33333333E-01  0.00000000E+00  2.50000000E-01       0.33333
     4)     3.33333333E-01  3.33333333E-01  2.50000000E-01       0.22222

 Together with  6 symmetry operations and time-reversal symmetry 
 yields    18 points in the full Brillouin Zone.


 ==== Q-mesh for screening function ====
 Number of points in the irreducible wedge :     6
 Reduced coordinates and weights : 

     1)     0.00000000E+00  0.00000000E+00  0.00000000E+00       0.05556
     2)     0.00000000E+00  0.00000000E+00  5.00000000E-01       0.05556
     3)     3.33333333E-01  0.00000000E+00  0.00000000E+00       0.33333
     4)     3.33333333E-01 -3.33333333E-01  5.00000000E-01       0.33333
     5)     3.33333333E-01  3.33333333E-01  0.00000000E+00       0.11111
     6)     3.33333333E-01  3.33333333E-01  5.00000000E-01       0.11111

 Together with  6 symmetry operations and time-reversal symmetry 
 yields    18 points in the full Brillouin Zone.


 setmesh: FFT mesh size selected  =  15x 15x 15
          total number of points  =     3375


 k       eigenvalues [eV]
  1        -25.43 -24.97 -24.48 -24.40 -24.39 -24.37  -6.41  -4.69  -2.65  -2.33
            -2.03  -1.40   0.01   0.38   0.91   1.25   2.00   2.43   2.56   2.77
             3.18   4.07   4.44   4.81   6.92  10.14  11.29  11.41  12.81  13.17
            13.93  14.33  15.69  15.92  16.88  17.02  17.29  17.70  18.07  18.15
            18.21  18.84  19.81  20.95  21.50  22.08  22.14  22.58  23.27  23.58

  2        -25.29 -24.96 -24.63 -24.43 -24.41 -24.39  -6.03  -4.80  -3.22  -2.14
            -1.83  -1.55  -0.23  -0.00   0.91   1.50   1.72   2.15   2.29   3.09
             3.45   3.53   4.36   4.70   8.69  10.28  10.63  12.17  12.85  13.61
            14.15  14.22  14.60  15.45  15.78  16.10  17.07  17.34  18.09  18.75
            18.86  19.06  19.63  20.09  20.58  21.22  21.50  22.22  22.80  23.36

  3        -25.30 -24.95 -24.64 -24.43 -24.41 -24.39  -6.05  -4.77  -3.24  -2.21
            -1.84  -1.45  -0.09   0.05   0.87   1.15   1.68   2.35   2.70   3.01
             3.16   3.55   4.15   4.93   8.42  10.72  11.40  11.76  12.60  12.73
            13.59  14.64  14.87  15.54  16.23  16.48  16.91  17.04  17.74  18.25
            18.78  19.39  19.71  19.90  21.23  21.72  21.92  22.41  22.81  23.15

  4        -25.18 -24.99 -24.73 -24.44 -24.43 -24.43  -5.85  -4.58  -3.95  -2.24
            -1.92  -1.39  -0.12   0.17   0.55   1.50   1.62   2.00   2.57   2.59
             3.31   3.90   3.96   4.50   9.78  10.82  11.27  11.75  12.40  13.39
            13.94  14.17  14.39  14.87  15.18  16.01  16.41  17.45  17.67  18.36
            18.78  18.94  20.32  20.47  20.50  20.99  21.77  22.24  23.13  23.15

 Number of electrons calculated from density =   47.9977; Expected =   48.0000
 average of density, n =  0.062954
 r_s =    1.5594
 omega_plasma =   24.2030 [eV]


 === KS Band Gaps ===
  >>>> For spin  1
   Minimum optical gap =   2.1180 [eV], located at k-point      :   0.0000  0.0000  0.2500
   Fundamental gap     =   1.9909 [eV], Top of valence bands at :  -0.3333  0.0000  0.2500
                                        Bottom of conduction at :   0.0000  0.0000  0.2500
 SIGMA fundamental parameters:
 PLASMON POLE MODEL  1
 number of plane-waves for SigmaX                  563
 number of plane-waves for SigmaC and W             41
 number of plane-waves for wavefunctions           563
 number of bands                                    50
 number of independent spin polarizations            1
 number of spinorial components                      1
 number of k-points in IBZ                           4
 number of q-points in IBZ                           6
 number of symmetry operations                       6
 number of k-points in BZ                           18
 number of q-points in BZ                           18
 number of frequencies for dSigma/dE                 9
 frequency step for dSigma/dE [eV]                0.25
 number of omega for Sigma on real axis              0
 max omega for Sigma on real axis  [eV]           0.00
 zcut for avoiding poles [eV]                     0.10

 EPSILON^-1 parameters (SCR file):
 dimension of the eps^-1 matrix on file             41
 dimension of the eps^-1 matrix used                41
 number of plane-waves for wavefunctions           563
 number of bands                                    50
 number of q-points in IBZ                           6
 number of frequencies                               2
 number of real frequencies                          1
 number of imag frequencies                          1

 matrix elements of self-energy operator (all in [eV])

 Perturbative Calculation

 k =    0.000   0.000   0.250
 Band     E0 <VxcLDA>   SigX SigC(E0)      Z dSigC/dE  Sig(E)    E-E0       E
   24   4.806 -16.240 -19.536   3.337   0.837  -0.195 -16.206   0.034   4.840
   25   6.924 -12.256  -8.580  -1.818   0.859  -0.165 -10.661   1.596   8.520

 E^0_gap          2.118
 E^GW_gap         3.680
 DeltaE^GW_gap    1.562


== END DATASET(S) ==============================================================
================================================================================
  
 -outvars: echo values of variables after computation  --------
            acell      9.2843000799E+00  9.2843000799E+00  1.0213270550E+01 Bohr
              amu      2.80855000E+01  1.59994000E+01
             awtr1          1
             awtr2          0
             awtr3          1
             bdgw3         24      25
           diemac      4.00000000E+00
             ecut1     6.00000000E+00 Hartree
             ecut2     5.99051324E+00 Hartree
             ecut3     5.99051324E+00 Hartree
          ecuteps1     0.00000000E+00 Hartree
          ecuteps2     1.06226803E+00 Hartree
          ecuteps3     0.00000000E+00 Hartree
         ecutsigx1     0.00000000E+00 Hartree
         ecutsigx2     0.00000000E+00 Hartree
         ecutsigx3     5.99051324E+00 Hartree
          ecutwfn1     0.00000000E+00 Hartree
          ecutwfn2     5.99051324E+00 Hartree
          ecutwfn3     5.99051324E+00 Hartree
           etotal1    -9.9397029631E+01
           etotal2     0.0000000000E+00
           etotal3     0.0000000000E+00
            fcart1    -5.1396741577E-02  7.2373230184E-02 -5.8224956987E-02
                       3.5054478772E-04 -6.0716138266E-04 -4.9432841017E-30
                       8.8375426682E-02  8.3242687853E-03 -5.8224956987E-02
                      -5.1396741577E-02 -7.2373230184E-02  5.8224956987E-02
                       3.5054478772E-04  6.0716138266E-04 -0.0000000000E+00
                      -7.0108957544E-04  7.7098821155E-19 -0.0000000000E+00
                      -3.6978685105E-02 -8.0697498970E-02 -5.8224956987E-02
                      -3.6978685105E-02  8.0697498970E-02  5.8224956987E-02
                       8.8375426682E-02 -8.3242687853E-03  5.8224956987E-02
            fcart2     0.0000000000E+00  0.0000000000E+00  0.0000000000E+00
                       0.0000000000E+00  0.0000000000E+00  0.0000000000E+00
                       0.0000000000E+00  0.0000000000E+00  0.0000000000E+00
                       0.0000000000E+00  0.0000000000E+00  0.0000000000E+00
                       0.0000000000E+00  0.0000000000E+00  0.0000000000E+00
                       0.0000000000E+00  0.0000000000E+00  0.0000000000E+00
                       0.0000000000E+00  0.0000000000E+00  0.0000000000E+00
                       0.0000000000E+00  0.0000000000E+00  0.0000000000E+00
                       0.0000000000E+00  0.0000000000E+00  0.0000000000E+00
            fcart3     0.0000000000E+00  0.0000000000E+00  0.0000000000E+00
                       0.0000000000E+00  0.0000000000E+00  0.0000000000E+00
                       0.0000000000E+00  0.0000000000E+00  0.0000000000E+00
                       0.0000000000E+00  0.0000000000E+00  0.0000000000E+00
                       0.0000000000E+00  0.0000000000E+00  0.0000000000E+00
                       0.0000000000E+00  0.0000000000E+00  0.0000000000E+00
                       0.0000000000E+00  0.0000000000E+00  0.0000000000E+00
                       0.0000000000E+00  0.0000000000E+00  0.0000000000E+00
                       0.0000000000E+00  0.0000000000E+00  0.0000000000E+00
-          fftalg         112
            fftgw1         21
            fftgw2         11
            fftgw3         11
           getkss1          0
           getkss2         -1
           getkss3         -2
           getscr1          0
           getscr2          0
           getscr3         -1
         icutcoul1          6
         icutcoul2          6
         icutcoul3          3
          inclvkb1          1
          inclvkb2          0
          inclvkb3          1
           jdtset        1    2    3
              kpt      0.00000000E+00  0.00000000E+00  2.50000000E-01
                       3.33333333E-01  0.00000000E+00  2.50000000E-01
                      -3.33333333E-01  0.00000000E+00  2.50000000E-01
                       3.33333333E-01  3.33333333E-01  2.50000000E-01
            kptgw3     0.00000000E+00  0.00000000E+00  2.50000000E-01
         kptrlatt        3    0    0      0    3    0      0    0    2
          kptrlen      2.04265411E+01
          kssform1          3
          kssform2          1
          kssform3          1
P           mkmem           4
            natom           9
            nband1         55
            nband2         50
            nband3         50
         nbandkss1         50
         nbandkss2          0
         nbandkss3          0
           nbdbuf1          5
           nbdbuf2          0
           nbdbuf3          0
           ndtset           3
            ngfft          24      24      24
             nkpt           4
           nkptgw1          0
           nkptgw2          0
           nkptgw3          1
           npweps1          0
           npweps2         41
           npweps3          0
          npwsigx1          0
          npwsigx2          0
          npwsigx3        563
           npwwfn1          0
           npwwfn2        563
           npwwfn3        563
           nsheps1          0
           nsheps2         10
           nsheps3          0
          nshsigx1          0
          nshsigx2          0
          nshsigx3        100
            nstep          20
             nsym           6
           ntypat           2
              occ1     2.000000  2.000000  2.000000  2.000000  2.000000  2.000000
                       2.000000  2.000000  2.000000  2.000000  2.000000  2.000000
                       2.000000  2.000000  2.000000  2.000000  2.000000  2.000000
                       2.000000  2.000000  2.000000  2.000000  2.000000  2.000000
                       0.000000  0.000000  0.000000  0.000000  0.000000  0.000000
                       0.000000  0.000000  0.000000  0.000000  0.000000  0.000000
                       0.000000  0.000000  0.000000  0.000000  0.000000  0.000000
                       0.000000  0.000000  0.000000  0.000000  0.000000  0.000000
                       0.000000  0.000000  0.000000  0.000000  0.000000  0.000000
                       0.000000
              occ2     2.000000  2.000000  2.000000  2.000000  2.000000  2.000000
                       2.000000  2.000000  2.000000  2.000000  2.000000  2.000000
                       2.000000  2.000000  2.000000  2.000000  2.000000  2.000000
                       2.000000  2.000000  2.000000  2.000000  2.000000  2.000000
                       0.000000  0.000000  0.000000  0.000000  0.000000  0.000000
                       0.000000  0.000000  0.000000  0.000000  0.000000  0.000000
                       0.000000  0.000000  0.000000  0.000000  0.000000  0.000000
                       0.000000  0.000000  0.000000  0.000000  0.000000  0.000000
                       0.000000  0.000000
              occ3     2.000000  2.000000  2.000000  2.000000  2.000000  2.000000
                       2.000000  2.000000  2.000000  2.000000  2.000000  2.000000
                       2.000000  2.000000  2.000000  2.000000  2.000000  2.000000
                       2.000000  2.000000  2.000000  2.000000  2.000000  2.000000
                       0.000000  0.000000  0.000000  0.000000  0.000000  0.000000
                       0.000000  0.000000  0.000000  0.000000  0.000000  0.000000
                       0.000000  0.000000  0.000000  0.000000  0.000000  0.000000
                       0.000000  0.000000  0.000000  0.000000  0.000000  0.000000
                       0.000000  0.000000
        optdriver1          0
        optdriver2          3
        optdriver3          4
            rprim      5.0000000000E-01 -8.6602540378E-01  0.0000000000E+00
                       5.0000000000E-01  8.6602540378E-01  0.0000000000E+00
                       0.0000000000E+00  0.0000000000E+00  1.0000000000E+00
           shiftk      0.00000000E+00  0.00000000E+00  5.00000000E-01
          spgroup         154
           strten1     4.8483983061E-03  4.8483983062E-03  4.7019597723E-03
                       0.0000000000E+00  0.0000000000E+00  0.0000000000E+00
           strten2     0.0000000000E+00  0.0000000000E+00  0.0000000000E+00
                       0.0000000000E+00  0.0000000000E+00  0.0000000000E+00
           strten3     0.0000000000E+00  0.0000000000E+00  0.0000000000E+00
                       0.0000000000E+00  0.0000000000E+00  0.0000000000E+00
           symchi1       0
           symchi2       1
           symchi3       0
           symrel      1  0  0   0  1  0   0  0  1       1  0  0  -1 -1  0   0  0 -1
                       0  1  0  -1 -1  0   0  0  1       0  1  0   1  0  0   0  0 -1
                      -1 -1  0   1  0  0   0  0  1      -1 -1  0   0  1  0   0  0 -1
         symsigma1       0
         symsigma2       0
         symsigma3       1
            tnons      0.0000000  0.0000000  0.0000000     0.0000000  0.0000000  0.0000000
                       0.0000000  0.0000000 -0.3333333     0.0000000  0.0000000 -0.3333333
                       0.0000000  0.0000000  0.3333333     0.0000000  0.0000000  0.3333333
           tolwfr1     1.00000000E-10
           tolwfr2     0.00000000E+00
           tolwfr3     0.00000000E+00
            typat      2  1  2  2  1  1  2  2  2
              wtk        0.11111    0.33333    0.33333    0.22222
           xangst      1.6876292400E+00 -6.0843889532E-01  6.4855560000E-01
                       1.1422818000E+00 -1.9784901142E+00  0.0000000000E+00
                      -1.3707381600E+00 -1.1573103463E+00  2.4500989333E+00
                       1.6876292400E+00  6.0843889532E-01  2.9545310667E+00
                       1.1422818000E+00  1.9784901142E+00  3.6030866667E+00
                      -2.2845636000E+00  0.0000000000E+00  1.8015433333E+00
                      -3.1689108000E-01  1.7657492417E+00  4.2516422667E+00
                      -3.1689108000E-01 -1.7657492417E+00 -6.4855560000E-01
                      -1.3707381600E+00  1.1573103463E+00  1.1529877333E+00
            xcart      3.1891570774E+00 -1.1497828807E+00  1.2255924659E+00
                       2.1585997686E+00 -3.7388044724E+00  0.0000000000E+00
                      -2.5903197223E+00 -2.1869996053E+00  4.6300159825E+00
                       3.1891570774E+00  1.1497828807E+00  5.5832545671E+00
                       2.1585997686E+00  3.7388044724E+00  6.8088470331E+00
                      -4.3171995372E+00  0.0000000000E+00  3.4044235165E+00
                      -5.9883735515E-01  3.3367824861E+00  8.0344394990E+00
                      -5.9883735515E-01 -3.3367824861E+00 -1.2255924659E+00
                      -2.5903197223E+00  2.1869996053E+00  2.1788310506E+00
             xred      4.1500000000E-01  2.7200000000E-01  1.2000000000E-01
                       4.6500000000E-01  0.0000000000E+00  0.0000000000E+00
                      -1.4300000000E-01 -4.1500000000E-01  4.5333333333E-01
                       2.7200000000E-01  4.1500000000E-01  5.4666666667E-01
                       0.0000000000E+00  4.6500000000E-01  6.6666666667E-01
                      -4.6500000000E-01 -4.6500000000E-01  3.3333333333E-01
                      -2.7200000000E-01  1.4300000000E-01  7.8666666667E-01
                       1.4300000000E-01 -2.7200000000E-01 -1.2000000000E-01
                      -4.1500000000E-01 -1.4300000000E-01  2.1333333333E-01
             zcut1     3.67493260E-03 Hartree
             zcut2     3.67493260E-03 Hartree
             zcut3     3.67493254E-03 Hartree
            znucl       14.00000    8.00000

================================================================================


- Timing analysis has been suppressed with timopt=0



================================================================================

 Suggested references for the acknowledgment of ABINIT usage.

 The users of ABINIT have little formal obligations with respect to the ABINIT group
 (those specified in the GNU General Public License, http://www.gnu.org/copyleft/gpl.txt).
 However, it is common practice in the scientific literature,
 to acknowledge the efforts of people that have made the research possible.
 In this spirit, please find below suggested citations of work written by ABINIT developers,
 corresponding to implementations inside of ABINIT that you have used in the present run.
 Note also that it will be of great value to readers of publications presenting these results,
 to read papers enabling them to understand the theoretical formalism and details
 of the ABINIT implementation.
 For information on why they are suggested, see also http://www.abinit.org/about/?text=acknowledgments.

 [1] Ab initio pseudopotentials for electronic structure calculations of poly-atomic systems, 
 using density-functional theory.
 M. Fuchs, M. Scheffler, Comput. Phys. Commun. 119, 67 (1999).
 Comment : Some pseudopotential generated using the FHI code were used.

 [2] ABINIT : First-principles approach of materials and nanosystem properties.
 X. Gonze, B. Amadon, P.-M. Anglade, J.-M. Beuken, F. Bottin, P. Boulanger, F. Bruneval,
 D. Caliste, R. Caracas, M. Cote, T. Deutsch, L. Genovese, Ph. Ghosez, M. Giantomassi
 S. Goedecker, D.R. Hamann, P. Hermet, F. Jollet, G. Jomard, S. Leroux, M. Mancini, S. Mazevet,
 M.J.T. Oliveira, G. Onida, Y. Pouillon, T. Rangel, G.-M. Rignanese, D. Sangalli, R. Shaltaf,
 M. Torrent, M.J. Verstraete, G. Zerah, J.W. Zwanziger
 Computer Phys. Comm. 180, 2582-2615 (2009).
 Comment : the third generic paper describing the ABINIT project.
 Note that a version of this paper, that is not formatted for Computer Phys. Comm. 
 is available at http://www.abinit.org/about/ABINIT_CPC_v10.pdf .
 The licence allows the authors to put it on the Web.

 [3] A brief introduction to the ABINIT software package.
 X. Gonze, G.-M. Rignanese, M. Verstraete, J.-M. Beuken, Y. Pouillon, R. Caracas, F. Jollet,
 M. Torrent, G. Zerah, M. Mikami, Ph. Ghosez, M. Veithen, J.-Y. Raty, V. Olevano, F. Bruneval,
 L. Reining, R. Godby, G. Onida, D.R. Hamann, and D.C. Allan.
 Z. Kristallogr. 220, 558-562 (2005).
 Comment : the second generic paper describing the ABINIT project. Note that this paper
 should be cited especially if you are using the GW part of ABINIT, as several authors
 of this part are not in the list of authors of the first or third paper.
 The .pdf of the latter paper is available at http://www.abinit.org/about/zfk_0505-06_558-562.pdf.
 Note that it should not redistributed (Copyright by Oldenburg Wissenshaftverlag,
 the licence allows the authors to put it on the Web).


 And optionally :

 [4] First-principles computation of material properties : the ABINIT software project. 
 X. Gonze, J.-M. Beuken, R. Caracas, F. Detraux, M. Fuchs, G.-M. Rignanese, L. Sindic,
 M. Verstraete, G. Zerah, F. Jollet, M. Torrent, A. Roy, M. Mikami, Ph. Ghosez, J.-Y. Raty, D.C. Allan.
 Computational Materials Science 25, 478-492 (2002). http://dx.doi.org/10.1016/S0927-0256(02)00325-7
 Comment : the original paper describing the ABINIT project.

 [5] Fast radix 2, 3, 4 and 5 kernels for Fast Fourier Transformations
 on computers with overlapping multiply-add instructions.
 S. Goedecker, SIAM J. on Scientific Computing 18, 1605 (1997).
-
- Proc.   0 individual time (sec): cpu=         13.3  wall=         13.7

================================================================================

 Calculation completed.
.Delivered    8 WARNINGs and   7 COMMENTs to log file.
+Overall time at end (sec) : cpu=         13.3  wall=         13.7
