
.Version 7.9.3 of ABINIT 
.(sequential version, prepared for a x86_64_linux_gnu4.7 computer) 

.Copyright (C) 1998-2014 ABINIT group . 
 ABINIT comes with ABSOLUTELY NO WARRANTY.
 It is free software, and you are welcome to redistribute it
 under certain conditions (GNU General Public License,
 see ~abinit/COPYING or http://www.gnu.org/copyleft/gpl.txt).

 ABINIT is a project of the Universite Catholique de Louvain,
 Corning Inc. and other collaborators, see ~abinit/doc/developers/contributors.txt .
 Please read ~abinit/doc/users/acknowledgments.html for suggested
 acknowledgments of the ABINIT effort.
 For more information, see http://www.abinit.org .

.Starting date : Sat 30 Aug 2014.
- ( at 09h40 )
  
- input  file    -> tsv4_90.in
- output file    -> tsv4_90.out
- root for input  files -> tsv4_90i
- root for output files -> tsv4_90o


 Symmetries : space group Fd -3 m (#227); Bravais cF (face-center cubic)
================================================================================
 Values of the parameters that define the memory need of the present run
   intxc =         0  ionmov =         0    iscf =         5 xclevel =         1
  lmnmax =         2   lnmax =         2   mband =         5  mffmem =         1
P  mgfft =        18   mkmem =         8 mpssoang=         3     mpw =       266
  mqgrid =      3001   natom =         2    nfft =      5832    nkpt =         8
  nloalg =         4  nspden =         2 nspinor =         1  nsppol =         2
    nsym =        48  n1xccc =      2501  ntypat =         1  occopt =         1
================================================================================
P This job should need less than                       2.963 Mbytes of memory.
  Rough estimation (10% accuracy) of disk space for files :
_ WF disk file :      0.327 Mbytes ; DEN or POT disk file :      0.091 Mbytes.
================================================================================

--------------------------------------------------------------------------------
------------- Echo of variables that govern the present computation ------------
--------------------------------------------------------------------------------
-
- outvars: echo of selected default values                                      
-   accesswff0 =  0 , fftalg0 =112 , wfoptalg0 =  0
-
- outvars: echo of global parameters not present in the input file              
-  max_nthreads =    0
-
 -outvars: echo values of preprocessed input variables --------
            acell      1.0259324000E+01  1.0259324000E+01  1.0259324000E+01 Bohr
              amu      2.80855000E+01
           diemac      1.20000000E+01
             ecut      7.50000000E+00 Hartree
-          fftalg         112
             iscf           5
           istwfk        1    1    1    1    1    1    1    1
              kpt      0.00000000E+00  0.00000000E+00  0.00000000E+00
                       5.00000000E-01  0.00000000E+00  0.00000000E+00
                       0.00000000E+00  5.00000000E-01  0.00000000E+00
                       5.00000000E-01  5.00000000E-01  0.00000000E+00
                       0.00000000E+00  0.00000000E+00  5.00000000E-01
                       5.00000000E-01  0.00000000E+00  5.00000000E-01
                       0.00000000E+00  5.00000000E-01  5.00000000E-01
                       5.00000000E-01  5.00000000E-01  5.00000000E-01
           kptopt           2
         kptrlatt        2    0    0      0    2    0      0    0    2
          kptrlen      1.45088751E+01
P           mkmem           8
            natom           2
            nband           5
            ngfft          18      18      18
             nkpt           8
           nspden           2
           nsppol           2
            nstep          10
             nsym          48
           ntypat           1
              occ      1.000000  1.000000  1.000000  1.000000  0.000000
                       1.000000  1.000000  1.000000  1.000000  0.000000
            prtwf           2
            rprim      0.0000000000E+00  5.0000000000E-01  5.0000000000E-01
                       5.0000000000E-01  0.0000000000E+00  5.0000000000E-01
                       5.0000000000E-01  5.0000000000E-01  0.0000000000E+00
          spgroup         227
           symrel      1  0  0   0  1  0   0  0  1      -1  0  0   0 -1  0   0  0 -1
                       0 -1  1   0 -1  0   1 -1  0       0  1 -1   0  1  0  -1  1  0
                      -1  0  0  -1  0  1  -1  1  0       1  0  0   1  0 -1   1 -1  0
                       0  1 -1   1  0 -1   0  0 -1       0 -1  1  -1  0  1   0  0  1
                      -1  0  0  -1  1  0  -1  0  1       1  0  0   1 -1  0   1  0 -1
                       0 -1  1   1 -1  0   0 -1  0       0  1 -1  -1  1  0   0  1  0
                       1  0  0   0  0  1   0  1  0      -1  0  0   0  0 -1   0 -1  0
                       0  1 -1   0  0 -1   1  0 -1       0 -1  1   0  0  1  -1  0  1
                      -1  0  1  -1  1  0  -1  0  0       1  0 -1   1 -1  0   1  0  0
                       0 -1  0   1 -1  0   0 -1  1       0  1  0  -1  1  0   0  1 -1
                       1  0 -1   0  0 -1   0  1 -1      -1  0  1   0  0  1   0 -1  1
                       0  1  0   0  0  1   1  0  0       0 -1  0   0  0 -1  -1  0  0
                       1  0 -1   0  1 -1   0  0 -1      -1  0  1   0 -1  1   0  0  1
                       0 -1  0   0 -1  1   1 -1  0       0  1  0   0  1 -1  -1  1  0
                      -1  0  1  -1  0  0  -1  1  0       1  0 -1   1  0  0   1 -1  0
                       0  1  0   1  0  0   0  0  1       0 -1  0  -1  0  0   0  0 -1
                       0  0 -1   0  1 -1   1  0 -1       0  0  1   0 -1  1  -1  0  1
                       1 -1  0   0 -1  1   0 -1  0      -1  1  0   0  1 -1   0  1  0
                       0  0  1   1  0  0   0  1  0       0  0 -1  -1  0  0   0 -1  0
                      -1  1  0  -1  0  0  -1  0  1       1 -1  0   1  0  0   1  0 -1
                       0  0  1   0  1  0   1  0  0       0  0 -1   0 -1  0  -1  0  0
                       1 -1  0   0 -1  0   0 -1  1      -1  1  0   0  1  0   0  1 -1
                       0  0 -1   1  0 -1   0  1 -1       0  0  1  -1  0  1   0 -1  1
                      -1  1  0  -1  0  1  -1  0  0       1 -1  0   1  0 -1   1  0  0
            tnons      0.0000000  0.0000000  0.0000000     0.0000000  0.0000000  0.0000000
                       0.0000000  0.5000000  0.0000000     0.0000000  0.5000000  0.0000000
                       0.5000000  0.0000000  0.0000000     0.5000000  0.0000000  0.0000000
                       0.0000000  0.0000000  0.5000000     0.0000000  0.0000000  0.5000000
                       0.5000000  0.0000000  0.0000000     0.5000000  0.0000000  0.0000000
                       0.0000000  0.5000000  0.0000000     0.0000000  0.5000000  0.0000000
                       0.0000000  0.0000000  0.0000000     0.0000000  0.0000000  0.0000000
                       0.0000000  0.0000000  0.5000000     0.0000000  0.0000000  0.5000000
                       0.5000000  0.0000000  0.0000000     0.5000000  0.0000000  0.0000000
                       0.0000000  0.5000000  0.0000000     0.0000000  0.5000000  0.0000000
                       0.0000000  0.0000000  0.5000000     0.0000000  0.0000000  0.5000000
                       0.0000000  0.0000000  0.0000000     0.0000000  0.0000000  0.0000000
                       0.0000000  0.0000000  0.5000000     0.0000000  0.0000000  0.5000000
                       0.0000000  0.5000000  0.0000000     0.0000000  0.5000000  0.0000000
                       0.5000000  0.0000000  0.0000000     0.5000000  0.0000000  0.0000000
                       0.0000000  0.0000000  0.0000000     0.0000000  0.0000000  0.0000000
                       0.0000000  0.0000000  0.5000000     0.0000000  0.0000000  0.5000000
                       0.0000000  0.5000000  0.0000000     0.0000000  0.5000000  0.0000000
                       0.0000000  0.0000000  0.0000000     0.0000000  0.0000000  0.0000000
                       0.5000000  0.0000000  0.0000000     0.5000000  0.0000000  0.0000000
                       0.0000000  0.0000000  0.0000000     0.0000000  0.0000000  0.0000000
                       0.0000000  0.5000000  0.0000000     0.0000000  0.5000000  0.0000000
                       0.0000000  0.0000000  0.5000000     0.0000000  0.0000000  0.5000000
                       0.5000000  0.0000000  0.0000000     0.5000000  0.0000000  0.0000000
           toldfe      1.00000000E-06 Hartree
            typat      1  1
              wtk        0.12500    0.12500    0.12500    0.12500    0.12500    0.12500
                         0.12500    0.12500
           xangst     -6.7862505454E-01 -6.7862505454E-01 -6.7862505454E-01
                       6.7862505454E-01  6.7862505454E-01  6.7862505454E-01
            xcart     -1.2824155000E+00 -1.2824155000E+00 -1.2824155000E+00
                       1.2824155000E+00  1.2824155000E+00  1.2824155000E+00
             xred     -1.2500000000E-01 -1.2500000000E-01 -1.2500000000E-01
                       1.2500000000E-01  1.2500000000E-01  1.2500000000E-01
            znucl       14.00000

================================================================================

 chkinp: Checking input parameters for consistency.

================================================================================
== DATASET  1 ==================================================================
-   nproc =    1

 Exchange-correlation functional for the present dataset will be:
  LDA: new Teter (4/93) with spin-polarized option - ixc=1
 Citation for XC functional:
  S. Goedecker, M. Teter, J. Huetter, PRB 54, 1703 (1996)

 Real(R)+Recip(G) space primitive vectors, cartesian coordinates (Bohr,Bohr^-1):
 R(1)=  0.0000000  5.1296620  5.1296620  G(1)= -0.0974723  0.0974723  0.0974723
 R(2)=  5.1296620  0.0000000  5.1296620  G(2)=  0.0974723 -0.0974723  0.0974723
 R(3)=  5.1296620  5.1296620  0.0000000  G(3)=  0.0974723  0.0974723 -0.0974723
 Unit cell volume ucvol=  2.6995803E+02 bohr^3
 Angles (23,13,12)=  6.00000000E+01  6.00000000E+01  6.00000000E+01 degrees

 getcut: wavevector=  0.0000  0.0000  0.0000  ngfft=  18  18  18
         ecut(hartree)=      7.500   => boxcut(ratio)=   2.01887

--- Pseudopotential description ------------------------------------------------
- pspini: atom type   1  psp file is /data/ABINIT/testf_gcc47_serial/trunk_7.9.3-private/tests/Psps_for_tests/14si.pspnc
- pspatm: opening atomic psp file    /data/ABINIT/testf_gcc47_serial/trunk_7.9.3-private/tests/Psps_for_tests/14si.pspnc
-  Troullier-Martins psp for element  Si        Thu Oct 27 17:31:21 EDT 1994
- 14.00000   4.00000    940714                znucl, zion, pspdat
    1    1    2    2      2001   0.00000      pspcod,pspxc,lmax,lloc,mmax,r2well
    0   5.907  14.692    1   2.0872718        l,e99.0,e99.9,nproj,rcpsp
   0.00000000   0.00000000   0.00000000   0.00000000     rms, ekb1, ekb2, epsatm
    1   2.617   4.181    1   2.0872718        l,e99.0,e99.9,nproj,rcpsp
   0.00000000   0.00000000   0.00000000   0.00000000     rms, ekb1, ekb2, epsatm
    2   0.000   0.000    0   2.0872718        l,e99.0,e99.9,nproj,rcpsp
   0.00000000   0.00000000   0.00000000   0.00000000     rms, ekb1, ekb2, epsatm
    1.80626423934776    0.22824404341771    1.17378968127746   rchrg,fchrg,qchrg
 pspatm: epsatm=    1.43386982
         --- l  ekb(1:nproj) -->
             0    3.287949
             1    1.849886
 pspatm: atomic psp has been read  and splines computed

   2.29419171E+01                                ecore*ucvol(ha*bohr**3)
--------------------------------------------------------------------------------

P newkpt: treating      5 bands with npw=     259 for ikpt=   1 by node    0
P newkpt: treating      5 bands with npw=     266 for ikpt=   2 by node    0
P newkpt: treating      5 bands with npw=     266 for ikpt=   3 by node    0
P newkpt: treating      5 bands with npw=     254 for ikpt=   4 by node    0
P newkpt: treating      5 bands with npw=     266 for ikpt=   5 by node    0
P newkpt: treating      5 bands with npw=     254 for ikpt=   6 by node    0
P newkpt: treating      5 bands with npw=     254 for ikpt=   7 by node    0
P newkpt: treating      5 bands with npw=     266 for ikpt=   8 by node    0
P newkpt: treating      5 bands with npw=     259 for ikpt=   1 by node    0
P newkpt: treating      5 bands with npw=     266 for ikpt=   2 by node    0
P newkpt: treating      5 bands with npw=     266 for ikpt=   3 by node    0
P newkpt: treating      5 bands with npw=     254 for ikpt=   4 by node    0
P newkpt: treating      5 bands with npw=     266 for ikpt=   5 by node    0
P newkpt: treating      5 bands with npw=     254 for ikpt=   6 by node    0
P newkpt: treating      5 bands with npw=     254 for ikpt=   7 by node    0
P newkpt: treating      5 bands with npw=     266 for ikpt=   8 by node    0

_setup2: Arith. and geom. avg. npw (full set) are     260.625     260.565

================================================================================

     iter   Etot(hartree)      deltaE(h)  residm     vres2
 ETOT  1  -8.7673908119976    -8.767E+00 1.931E-03 1.364E+01
 ETOT  2  -8.7748922099055    -7.501E-03 1.013E-06 4.555E-01
 ETOT  3  -8.7750159417575    -1.237E-04 2.721E-06 1.071E-01
 ETOT  4  -8.7750342866699    -1.834E-05 5.630E-08 1.266E-02
 ETOT  5  -8.7750367271649    -2.440E-06 7.571E-08 7.521E-04
 ETOT  6  -8.7750369105583    -1.834E-07 1.372E-09 1.679E-05
 ETOT  7  -8.7750369143218    -3.764E-09 1.459E-10 3.622E-08

 At SCF step    7, etot is converged : 
  for the second time, diff in etot=  3.764E-09 < toldfe=  1.000E-06

 Cartesian components of stress tensor (hartree/bohr^3)
  sigma(1 1)= -1.79052179E-04  sigma(3 2)=  0.00000000E+00
  sigma(2 2)= -1.79052179E-04  sigma(3 1)=  0.00000000E+00
  sigma(3 3)= -1.79052179E-04  sigma(2 1)=  0.00000000E+00

================================================================================

 ----iterations are completed or convergence reached----

 Mean square residual over all n,k,spin=   3.9083E-11; max=  1.4595E-10
   0.0000  0.0000  0.0000    1  3.31224E-11 kpt; spin; max resid(k); each band:
  1.00E-12 4.38E-13 4.50E-13 4.38E-13 3.31E-11
   0.5000  0.0000  0.0000    1  1.45949E-10 kpt; spin; max resid(k); each band:
  7.15E-13 1.40E-10 6.55E-13 6.55E-13 1.46E-10
   0.0000  0.5000  0.0000    1  1.40991E-10 kpt; spin; max resid(k); each band:
  7.15E-13 1.40E-10 6.55E-13 6.55E-13 1.41E-10
   0.5000  0.5000  0.0000    1  6.71371E-11 kpt; spin; max resid(k); each band:
  6.13E-11 6.08E-13 7.44E-13 7.44E-13 6.71E-11
   0.0000  0.0000  0.5000    1  1.41600E-10 kpt; spin; max resid(k); each band:
  7.15E-13 1.40E-10 6.55E-13 6.55E-13 1.42E-10
   0.5000  0.0000  0.5000    1  6.71371E-11 kpt; spin; max resid(k); each band:
  6.13E-11 5.87E-13 7.44E-13 7.44E-13 6.71E-11
   0.0000  0.5000  0.5000    1  6.71371E-11 kpt; spin; max resid(k); each band:
  6.12E-11 4.97E-13 7.44E-13 7.44E-13 6.71E-11
   0.5000  0.5000  0.5000    1  1.40971E-10 kpt; spin; max resid(k); each band:
  7.15E-13 1.40E-10 6.55E-13 6.55E-13 1.41E-10
   0.0000  0.0000  0.0000    2  3.31224E-11 kpt; spin; max resid(k); each band:
  1.00E-12 4.38E-13 4.50E-13 4.38E-13 3.31E-11
   0.5000  0.0000  0.0000    2  1.45949E-10 kpt; spin; max resid(k); each band:
  7.15E-13 1.40E-10 6.55E-13 6.55E-13 1.46E-10
   0.0000  0.5000  0.0000    2  1.40991E-10 kpt; spin; max resid(k); each band:
  7.15E-13 1.40E-10 6.55E-13 6.55E-13 1.41E-10
   0.5000  0.5000  0.0000    2  6.71371E-11 kpt; spin; max resid(k); each band:
  6.13E-11 6.08E-13 7.44E-13 7.44E-13 6.71E-11
   0.0000  0.0000  0.5000    2  1.41600E-10 kpt; spin; max resid(k); each band:
  7.15E-13 1.40E-10 6.55E-13 6.55E-13 1.42E-10
   0.5000  0.0000  0.5000    2  6.71371E-11 kpt; spin; max resid(k); each band:
  6.13E-11 5.87E-13 7.44E-13 7.44E-13 6.71E-11
   0.0000  0.5000  0.5000    2  6.71371E-11 kpt; spin; max resid(k); each band:
  6.12E-11 4.97E-13 7.44E-13 7.44E-13 6.71E-11
   0.5000  0.5000  0.5000    2  1.40971E-10 kpt; spin; max resid(k); each band:
  7.15E-13 1.40E-10 6.55E-13 6.55E-13 1.41E-10

 outqmc : enter
 outqmc : will open CASINO pwfn.data file
 outqmc : QMC trial wave function file for CASINO generated by ABINIT
 outqmc : done with writing of QMC trial wave function file for CASINO

 reduced coordinates (array xred) for    2 atoms
      -0.125000000000     -0.125000000000     -0.125000000000
       0.125000000000      0.125000000000      0.125000000000
 rms dE/dt=  1.7705E-30; max dE/dt=  0.0000E+00; dE/dt below (all hartree)
    1       0.000000000000      0.000000000000      0.000000000000
    2       0.000000000000     -0.000000000000     -0.000000000000

 cartesian coordinates (angstrom) at end:
    1     -0.67862505454255    -0.67862505454255    -0.67862505454255
    2      0.67862505454255     0.67862505454255     0.67862505454255

 cartesian forces (hartree/bohr) at end:
    1     -0.00000000000000     0.00000000000000    -0.00000000000000
    2      0.00000000000000    -0.00000000000000     0.00000000000000
 frms,max,avg= 1.9407251E-31 2.5630698E-31   0.000E+00  0.000E+00  0.000E+00 h/b

 cartesian forces (eV/Angstrom) at end:
    1     -0.00000000000000     0.00000000000000    -0.00000000000000
    2      0.00000000000000    -0.00000000000000     0.00000000000000
 frms,max,avg= 9.9796090E-30 1.3179834E-29   0.000E+00  0.000E+00  0.000E+00 e/A
 length scales= 10.259324000000 10.259324000000 10.259324000000 bohr
              =  5.429000436340  5.429000436340  5.429000436340 angstroms
 prteigrs : about to open file tsv4_90o_EIG
 Fermi (or HOMO) energy (hartree) =   0.22385   Average Vxc (hartree)=  -0.34892
 Eigenvalues (hartree) for nkpt=   8  k points, SPIN UP:
 kpt#   1, nband=  5, wtk=  0.12500, kpt=  0.0000  0.0000  0.0000 (reduced coord)
  -0.22022   0.22385   0.22385   0.22385   0.31138
 kpt#   2, nband=  5, wtk=  0.12500, kpt=  0.5000  0.0000  0.0000 (reduced coord)
  -0.13280  -0.03806   0.17807   0.17807   0.27251
 kpt#   3, nband=  5, wtk=  0.12500, kpt=  0.0000  0.5000  0.0000 (reduced coord)
  -0.13280  -0.03806   0.17807   0.17807   0.27251
 kpt#   4, nband=  5, wtk=  0.12500, kpt=  0.5000  0.5000  0.0000 (reduced coord)
  -0.06610  -0.06610   0.11515   0.11515   0.23929
 kpt#   5, nband=  5, wtk=  0.12500, kpt=  0.0000  0.0000  0.5000 (reduced coord)
  -0.13280  -0.03806   0.17807   0.17807   0.27251
 kpt#   6, nband=  5, wtk=  0.12500, kpt=  0.5000  0.0000  0.5000 (reduced coord)
  -0.06610  -0.06610   0.11515   0.11515   0.23929
 kpt#   7, nband=  5, wtk=  0.12500, kpt=  0.0000  0.5000  0.5000 (reduced coord)
  -0.06610  -0.06610   0.11515   0.11515   0.23929
 kpt#   8, nband=  5, wtk=  0.12500, kpt=  0.5000  0.5000  0.5000 (reduced coord)
  -0.13280  -0.03806   0.17807   0.17807   0.27251
 Eigenvalues (hartree) for nkpt=   8  k points, SPIN DOWN:
 kpt#   1, nband=  5, wtk=  0.12500, kpt=  0.0000  0.0000  0.0000 (reduced coord)
  -0.22022   0.22385   0.22385   0.22385   0.31138
 kpt#   2, nband=  5, wtk=  0.12500, kpt=  0.5000  0.0000  0.0000 (reduced coord)
  -0.13280  -0.03806   0.17807   0.17807   0.27251
 kpt#   3, nband=  5, wtk=  0.12500, kpt=  0.0000  0.5000  0.0000 (reduced coord)
  -0.13280  -0.03806   0.17807   0.17807   0.27251
 kpt#   4, nband=  5, wtk=  0.12500, kpt=  0.5000  0.5000  0.0000 (reduced coord)
  -0.06610  -0.06610   0.11515   0.11515   0.23929
 kpt#   5, nband=  5, wtk=  0.12500, kpt=  0.0000  0.0000  0.5000 (reduced coord)
  -0.13280  -0.03806   0.17807   0.17807   0.27251
 kpt#   6, nband=  5, wtk=  0.12500, kpt=  0.5000  0.0000  0.5000 (reduced coord)
  -0.06610  -0.06610   0.11515   0.11515   0.23929
 kpt#   7, nband=  5, wtk=  0.12500, kpt=  0.0000  0.5000  0.5000 (reduced coord)
  -0.06610  -0.06610   0.11515   0.11515   0.23929
 kpt#   8, nband=  5, wtk=  0.12500, kpt=  0.5000  0.5000  0.5000 (reduced coord)
  -0.13280  -0.03806   0.17807   0.17807   0.27251
 Total charge density [el/Bohr^3]
,     Maximum=    9.3144E-02  at reduced coord.    0.0000    0.0000    0.5000
,Next maximum=    9.3144E-02  at reduced coord.    0.0000    0.5000    0.0000
,     Minimum=    2.0770E-03  at reduced coord.    0.3889    0.3889    0.3333
,Next minimum=    2.0770E-03  at reduced coord.    0.3889    0.3333    0.3889
,  Integrated=    8.0000E+00
 Spin up density      [el/Bohr^3]
,     Maximum=    4.6572E-02  at reduced coord.    0.0000    0.0000    0.5000
,Next maximum=    4.6572E-02  at reduced coord.    0.0000    0.5000    0.0000
,     Minimum=    1.0385E-03  at reduced coord.    0.3889    0.3889    0.3333
,Next minimum=    1.0385E-03  at reduced coord.    0.3889    0.3333    0.3889
,  Integrated=    4.0000E+00
 Spin down density    [el/Bohr^3]
,     Maximum=    4.6572E-02  at reduced coord.    0.0000    0.0000    0.5000
,Next maximum=    4.6572E-02  at reduced coord.    0.0000    0.5000    0.0000
,     Minimum=    1.0385E-03  at reduced coord.    0.3889    0.3889    0.3333
,Next minimum=    1.0385E-03  at reduced coord.    0.3889    0.3333    0.3889
,  Integrated=    4.0000E+00
 Magnetization (spin up - spin down) [el/Bohr^3]
,     Maximum=    0.0000E+00  at reduced coord.    0.9444    0.9444    0.9444
,Next maximum=    0.0000E+00  at reduced coord.    0.8889    0.9444    0.9444
,     Minimum=    0.0000E+00  at reduced coord.    0.0000    0.0000    0.0000
,Next minimum=    0.0000E+00  at reduced coord.    0.0556    0.0000    0.0000
,  Integrated=    0.0000E+00
 Relative magnetization (=zeta, between -1 and 1)
,     Maximum=    0.0000E+00  at reduced coord.    0.9444    0.9444    0.9444
,Next maximum=    0.0000E+00  at reduced coord.    0.8889    0.9444    0.9444
,     Minimum=    0.0000E+00  at reduced coord.    0.0000    0.0000    0.0000
,Next minimum=    0.0000E+00  at reduced coord.    0.0556    0.0000    0.0000

--------------------------------------------------------------------------------
 Components of total free energy (in Hartree) :

    Kinetic energy  =  3.22250435795827E+00
    Hartree energy  =  6.22918956579453E-01
    XC energy       = -3.56452734545556E+00
    Ewald energy    = -8.40101830357140E+00
    PspCore energy  =  8.49832746608354E-02
    Loc. psp. energy= -2.57379512429319E+00
    NL   psp  energy=  1.83389726979977E+00
    >>>>>>>>> Etotal= -8.77503691432183E+00

 Other information on the energy :
    Total energy(eV)= -2.38780897861281E+02 ; Band energy (Ha)=   3.7167327352E-01
--------------------------------------------------------------------------------

 Cartesian components of stress tensor (hartree/bohr^3)
  sigma(1 1)= -1.79052179E-04  sigma(3 2)=  0.00000000E+00
  sigma(2 2)= -1.79052179E-04  sigma(3 1)=  0.00000000E+00
  sigma(3 3)= -1.79052179E-04  sigma(2 1)=  0.00000000E+00

-Cartesian components of stress tensor (GPa)         [Pressure=  5.2679E+00 GPa]
- sigma(1 1)= -5.26789610E+00  sigma(3 2)=  0.00000000E+00
- sigma(2 2)= -5.26789610E+00  sigma(3 1)=  0.00000000E+00
- sigma(3 3)= -5.26789610E+00  sigma(2 1)=  0.00000000E+00

== END DATASET(S) ==============================================================
================================================================================
  
 -outvars: echo values of variables after computation  --------
            acell      1.0259324000E+01  1.0259324000E+01  1.0259324000E+01 Bohr
              amu      2.80855000E+01
           diemac      1.20000000E+01
             ecut      7.50000000E+00 Hartree
           etotal     -8.7750369143E+00
            fcart     -2.5630697995E-31  1.5378418797E-31 -1.5378418797E-31
                       2.5630697995E-31 -1.5378418797E-31  1.5378418797E-31
-          fftalg         112
             iscf           5
           istwfk        1    1    1    1    1    1    1    1
              kpt      0.00000000E+00  0.00000000E+00  0.00000000E+00
                       5.00000000E-01  0.00000000E+00  0.00000000E+00
                       0.00000000E+00  5.00000000E-01  0.00000000E+00
                       5.00000000E-01  5.00000000E-01  0.00000000E+00
                       0.00000000E+00  0.00000000E+00  5.00000000E-01
                       5.00000000E-01  0.00000000E+00  5.00000000E-01
                       0.00000000E+00  5.00000000E-01  5.00000000E-01
                       5.00000000E-01  5.00000000E-01  5.00000000E-01
           kptopt           2
         kptrlatt        2    0    0      0    2    0      0    0    2
          kptrlen      1.45088751E+01
P           mkmem           8
            natom           2
            nband           5
            ngfft          18      18      18
             nkpt           8
           nspden           2
           nsppol           2
            nstep          10
             nsym          48
           ntypat           1
              occ      1.000000  1.000000  1.000000  1.000000  0.000000
                       1.000000  1.000000  1.000000  1.000000  0.000000
            prtwf           2
            rprim      0.0000000000E+00  5.0000000000E-01  5.0000000000E-01
                       5.0000000000E-01  0.0000000000E+00  5.0000000000E-01
                       5.0000000000E-01  5.0000000000E-01  0.0000000000E+00
          spgroup         227
           strten     -1.7905217913E-04 -1.7905217913E-04 -1.7905217913E-04
                       0.0000000000E+00  0.0000000000E+00  0.0000000000E+00
           symrel      1  0  0   0  1  0   0  0  1      -1  0  0   0 -1  0   0  0 -1
                       0 -1  1   0 -1  0   1 -1  0       0  1 -1   0  1  0  -1  1  0
                      -1  0  0  -1  0  1  -1  1  0       1  0  0   1  0 -1   1 -1  0
                       0  1 -1   1  0 -1   0  0 -1       0 -1  1  -1  0  1   0  0  1
                      -1  0  0  -1  1  0  -1  0  1       1  0  0   1 -1  0   1  0 -1
                       0 -1  1   1 -1  0   0 -1  0       0  1 -1  -1  1  0   0  1  0
                       1  0  0   0  0  1   0  1  0      -1  0  0   0  0 -1   0 -1  0
                       0  1 -1   0  0 -1   1  0 -1       0 -1  1   0  0  1  -1  0  1
                      -1  0  1  -1  1  0  -1  0  0       1  0 -1   1 -1  0   1  0  0
                       0 -1  0   1 -1  0   0 -1  1       0  1  0  -1  1  0   0  1 -1
                       1  0 -1   0  0 -1   0  1 -1      -1  0  1   0  0  1   0 -1  1
                       0  1  0   0  0  1   1  0  0       0 -1  0   0  0 -1  -1  0  0
                       1  0 -1   0  1 -1   0  0 -1      -1  0  1   0 -1  1   0  0  1
                       0 -1  0   0 -1  1   1 -1  0       0  1  0   0  1 -1  -1  1  0
                      -1  0  1  -1  0  0  -1  1  0       1  0 -1   1  0  0   1 -1  0
                       0  1  0   1  0  0   0  0  1       0 -1  0  -1  0  0   0  0 -1
                       0  0 -1   0  1 -1   1  0 -1       0  0  1   0 -1  1  -1  0  1
                       1 -1  0   0 -1  1   0 -1  0      -1  1  0   0  1 -1   0  1  0
                       0  0  1   1  0  0   0  1  0       0  0 -1  -1  0  0   0 -1  0
                      -1  1  0  -1  0  0  -1  0  1       1 -1  0   1  0  0   1  0 -1
                       0  0  1   0  1  0   1  0  0       0  0 -1   0 -1  0  -1  0  0
                       1 -1  0   0 -1  0   0 -1  1      -1  1  0   0  1  0   0  1 -1
                       0  0 -1   1  0 -1   0  1 -1       0  0  1  -1  0  1   0 -1  1
                      -1  1  0  -1  0  1  -1  0  0       1 -1  0   1  0 -1   1  0  0
            tnons      0.0000000  0.0000000  0.0000000     0.0000000  0.0000000  0.0000000
                       0.0000000  0.5000000  0.0000000     0.0000000  0.5000000  0.0000000
                       0.5000000  0.0000000  0.0000000     0.5000000  0.0000000  0.0000000
                       0.0000000  0.0000000  0.5000000     0.0000000  0.0000000  0.5000000
                       0.5000000  0.0000000  0.0000000     0.5000000  0.0000000  0.0000000
                       0.0000000  0.5000000  0.0000000     0.0000000  0.5000000  0.0000000
                       0.0000000  0.0000000  0.0000000     0.0000000  0.0000000  0.0000000
                       0.0000000  0.0000000  0.5000000     0.0000000  0.0000000  0.5000000
                       0.5000000  0.0000000  0.0000000     0.5000000  0.0000000  0.0000000
                       0.0000000  0.5000000  0.0000000     0.0000000  0.5000000  0.0000000
                       0.0000000  0.0000000  0.5000000     0.0000000  0.0000000  0.5000000
                       0.0000000  0.0000000  0.0000000     0.0000000  0.0000000  0.0000000
                       0.0000000  0.0000000  0.5000000     0.0000000  0.0000000  0.5000000
                       0.0000000  0.5000000  0.0000000     0.0000000  0.5000000  0.0000000
                       0.5000000  0.0000000  0.0000000     0.5000000  0.0000000  0.0000000
                       0.0000000  0.0000000  0.0000000     0.0000000  0.0000000  0.0000000
                       0.0000000  0.0000000  0.5000000     0.0000000  0.0000000  0.5000000
                       0.0000000  0.5000000  0.0000000     0.0000000  0.5000000  0.0000000
                       0.0000000  0.0000000  0.0000000     0.0000000  0.0000000  0.0000000
                       0.5000000  0.0000000  0.0000000     0.5000000  0.0000000  0.0000000
                       0.0000000  0.0000000  0.0000000     0.0000000  0.0000000  0.0000000
                       0.0000000  0.5000000  0.0000000     0.0000000  0.5000000  0.0000000
                       0.0000000  0.0000000  0.5000000     0.0000000  0.0000000  0.5000000
                       0.5000000  0.0000000  0.0000000     0.5000000  0.0000000  0.0000000
           toldfe      1.00000000E-06 Hartree
            typat      1  1
              wtk        0.12500    0.12500    0.12500    0.12500    0.12500    0.12500
                         0.12500    0.12500
           xangst     -6.7862505454E-01 -6.7862505454E-01 -6.7862505454E-01
                       6.7862505454E-01  6.7862505454E-01  6.7862505454E-01
            xcart     -1.2824155000E+00 -1.2824155000E+00 -1.2824155000E+00
                       1.2824155000E+00  1.2824155000E+00  1.2824155000E+00
             xred     -1.2500000000E-01 -1.2500000000E-01 -1.2500000000E-01
                       1.2500000000E-01  1.2500000000E-01  1.2500000000E-01
            znucl       14.00000

================================================================================

- Total cpu        time (s,m,h):          1.4        0.02      0.000
- Total wall clock time (s,m,h):          1.4        0.02      0.000
-
- For major independent code sections, cpu and wall times (sec),
-  as well as % of the time and number of calls for node 0-
-<BEGIN_TIMER mpi_nprocs = 1, omp_nthreads = 1, mpi_rank = 0>
- cpu_time =            1.4, wall_time =            1.4
-
- routine                        cpu     %       wall     %      number of calls  Gflops 
-                                                                  (-1=no count)
- fourwf%(pot)                   0.505  37.2      0.502  36.9           3300      -1.00    
- pspini                         0.133   9.8      0.133   9.8              1      -1.00    
- timing timab                   0.114   8.4      0.114   8.4             10      -1.00    
- invars2                        0.107   7.9      0.107   7.9              1      -1.00    
- nonlop(apply)                  0.071   5.2      0.064   4.7           3300      -1.00    
- projbd                         0.050   3.7      0.033   2.4           5160      -1.00    
- fourwf%(den)                   0.040   2.9      0.037   2.7            448      -1.00    
- abinit(2)                      0.024   1.8      0.024   1.8              1      -1.00    
- vtowfk(ssdiag)                 0.022   1.6      0.024   1.8             -1      -1.00    
- getghc-other                   0.018   1.3      0.029   2.1             -1      -1.00    
- xc:pot/=fourdp                 0.010   0.7      0.011   0.8              8      -1.00    
- fourdp                         0.007   0.5      0.007   0.5             63      -1.00    
- vtowfk(contrib)                0.002   0.1      0.007   0.5            112      -1.00    
- others (92)                    0.021   1.5      0.023   1.7             -1      -1.00    
-<END_TIMER>
-
- subtotal                       1.124  82.7      1.115  82.0

- For major independent code sections, cpu and wall times (sec),
- as well as % of the total time and number of calls 

-<BEGIN_TIMER mpi_nprocs = 1, omp_nthreads = 1, mpi_rank = world>
- cpu_time =           1.4, wall_time =           1.4
-
- routine                         cpu     %       wall     %      number of calls Gflops 
-                                                                  (-1=no count)
- fourwf%(pot)                   0.505  37.2      0.502  36.9           3300      -1.00    
- pspini                         0.133   9.8      0.133   9.8              1      -1.00    
- timing timab                   0.114   8.4      0.114   8.4             10      -1.00    
- invars2                        0.107   7.9      0.107   7.9              1      -1.00    
- nonlop(apply)                  0.071   5.2      0.064   4.7           3300      -1.00    
- projbd                         0.050   3.7      0.033   2.4           5160      -1.00    
- fourwf%(den)                   0.040   2.9      0.037   2.7            448      -1.00    
- abinit(2)                      0.024   1.8      0.024   1.8              1      -1.00    
- vtowfk(ssdiag)                 0.022   1.6      0.024   1.8             -1      -1.00    
- getghc-other                   0.018   1.3      0.029   2.1             -1      -1.00    
- xc:pot/=fourdp                 0.010   0.7      0.011   0.8              8      -1.00    
- fourdp                         0.007   0.5      0.007   0.5             63      -1.00    
- vtowfk(contrib)                0.002   0.1      0.007   0.5            112      -1.00    
- others (92)                    0.021   1.5      0.023   1.7             -1      -1.00    
-<END_TIMER>

- subtotal                       1.124  82.7      1.115  82.0

================================================================================

 Suggested references for the acknowledgment of ABINIT usage.

 The users of ABINIT have little formal obligations with respect to the ABINIT group
 (those specified in the GNU General Public License, http://www.gnu.org/copyleft/gpl.txt).
 However, it is common practice in the scientific literature,
 to acknowledge the efforts of people that have made the research possible.
 In this spirit, please find below suggested citations of work written by ABINIT developers,
 corresponding to implementations inside of ABINIT that you have used in the present run.
 Note also that it will be of great value to readers of publications presenting these results,
 to read papers enabling them to understand the theoretical formalism and details
 of the ABINIT implementation.
 For information on why they are suggested, see also http://www.abinit.org/about/?text=acknowledgments.

 [1] ABINIT : First-principles approach of materials and nanosystem properties.
 X. Gonze, B. Amadon, P.-M. Anglade, J.-M. Beuken, F. Bottin, P. Boulanger, F. Bruneval,
 D. Caliste, R. Caracas, M. Cote, T. Deutsch, L. Genovese, Ph. Ghosez, M. Giantomassi
 S. Goedecker, D.R. Hamann, P. Hermet, F. Jollet, G. Jomard, S. Leroux, M. Mancini, S. Mazevet,
 M.J.T. Oliveira, G. Onida, Y. Pouillon, T. Rangel, G.-M. Rignanese, D. Sangalli, R. Shaltaf,
 M. Torrent, M.J. Verstraete, G. Zerah, J.W. Zwanziger
 Computer Phys. Comm. 180, 2582-2615 (2009).
 Comment : the third generic paper describing the ABINIT project.
 Note that a version of this paper, that is not formatted for Computer Phys. Comm. 
 is available at http://www.abinit.org/about/ABINIT_CPC_v10.pdf .
 The licence allows the authors to put it on the Web.

 [2] A brief introduction to the ABINIT software package.
 X. Gonze, G.-M. Rignanese, M. Verstraete, J.-M. Beuken, Y. Pouillon, R. Caracas, F. Jollet,
 M. Torrent, G. Zerah, M. Mikami, Ph. Ghosez, M. Veithen, J.-Y. Raty, V. Olevano, F. Bruneval,
 L. Reining, R. Godby, G. Onida, D.R. Hamann, and D.C. Allan.
 Z. Kristallogr. 220, 558-562 (2005).
 Comment : the second generic paper describing the ABINIT project. Note that this paper
 should be cited especially if you are using the GW part of ABINIT, as several authors
 of this part are not in the list of authors of the first or third paper.
 The .pdf of the latter paper is available at http://www.abinit.org/about/zfk_0505-06_558-562.pdf.
 Note that it should not redistributed (Copyright by Oldenburg Wissenshaftverlag,
 the licence allows the authors to put it on the Web).


 And optionally :

 [3] First-principles computation of material properties : the ABINIT software project. 
 X. Gonze, J.-M. Beuken, R. Caracas, F. Detraux, M. Fuchs, G.-M. Rignanese, L. Sindic,
 M. Verstraete, G. Zerah, F. Jollet, M. Torrent, A. Roy, M. Mikami, Ph. Ghosez, J.-Y. Raty, D.C. Allan.
 Computational Materials Science 25, 478-492 (2002). http://dx.doi.org/10.1016/S0927-0256(02)00325-7
 Comment : the original paper describing the ABINIT project.

 [4] Fast radix 2, 3, 4 and 5 kernels for Fast Fourier Transformations
 on computers with overlapping multiply-add instructions.
 S. Goedecker, SIAM J. on Scientific Computing 18, 1605 (1997).

 [5] Towards a potential-based conjugate gradient algorithm for order-N self-consistent
 total energy calculations.
 X. Gonze, Phys. Rev. B 54, 4383 (1996).
 Comment : The potential-based conjugate-gradient algorithm, used when iscf=5, is not published.
 However, many elements of this algorithm have been explained in the paper above.
-
- Proc.   0 individual time (sec): cpu=          1.4  wall=          1.4

================================================================================

 Calculation completed.
.Delivered    0 WARNINGs and   0 COMMENTs to log file.
+Overall time at end (sec) : cpu=          1.4  wall=          1.4
