
.Version 7.9.3 of ABINIT 
.(MPI version, prepared for a x86_64_linux_gnu4.7 computer) 

.Copyright (C) 1998-2014 ABINIT group . 
 ABINIT comes with ABSOLUTELY NO WARRANTY.
 It is free software, and you are welcome to redistribute it
 under certain conditions (GNU General Public License,
 see ~abinit/COPYING or http://www.gnu.org/copyleft/gpl.txt).

 ABINIT is a project of the Universite Catholique de Louvain,
 Corning Inc. and other collaborators, see ~abinit/doc/developers/contributors.txt .
 Please read ~abinit/doc/users/acknowledgments.html for suggested
 acknowledgments of the ABINIT effort.
 For more information, see http://www.abinit.org .

.Starting date : Sat 30 Aug 2014.
- ( at 22h32 )
  
- input  file    -> t12.in
- output file    -> t12.out
- root for input  files -> t12i
- root for output files -> t12o


 DATASET    1 : space group P4 m m (# 99); Bravais tP (primitive tetrag.)
================================================================================
 Values of the parameters that define the memory need for DATASET  1.
   intxc =         0  ionmov =         0    iscf =         5 xclevel =         1
  lmnmax =         1   lnmax =         1   mband =         1  mffmem =         1
P  mgfft =        24   mkmem =         1 mpssoang=         1     mpw =       280
  mqgrid =      3001   natom =         2    nfft =      9600    nkpt =         1
  nloalg =         4  nspden =         2 nspinor =         1  nsppol =         2
    nsym =         8  n1xccc =         0  ntypat =         1  occopt =         1
================================================================================
P This job should need less than                       3.651 Mbytes of memory.
  Rough estimation (10% accuracy) of disk space for files :
_ WF disk file :      0.011 Mbytes ; DEN or POT disk file :      0.148 Mbytes.
================================================================================


 DATASET    2 : space group P4 m m (# 99); Bravais tP (primitive tetrag.)
================================================================================
 Values of the parameters that define the memory need for DATASET  2 (RF).
   intxc =         0    iscf =         5 xclevel =         1  lmnmax =         1
   lnmax =         1   mband =         1  mffmem =         1   mgfft =        24
P  mkmem =         1  mkqmem =         1  mk1mem =         1 mpssoang=         1
     mpw =       559  mqgrid =      3001   natom =         2    nfft =      9600
    nkpt =         1  nloalg =         4  nspden =         2 nspinor =         1
  nsppol =         2    nsym =         8  n1xccc =         0  ntypat =         1
  occopt =         1
================================================================================
P This job should need less than                       4.248 Mbytes of memory.
  Rough estimation (10% accuracy) of disk space for files :
_ WF disk file :      0.019 Mbytes ; DEN or POT disk file :      0.148 Mbytes.
================================================================================


 DATASET    3 : magnetic group, Shubnikov type III
 Fedorov space group P4/m m m (#123); Bravais tP (primitive tetrag.)
 Magnetic point group 4/m'mm (# 26)
================================================================================
 Values of the parameters that define the memory need for DATASET  3.
   intxc =         0  ionmov =         0    iscf =         5 xclevel =         1
  lmnmax =         1   lnmax =         1   mband =         1  mffmem =         1
P  mgfft =        24   mkmem =         1 mpssoang=         1     mpw =       280
  mqgrid =      3001   natom =         2    nfft =      9600    nkpt =         1
  nloalg =         4  nspden =         2 nspinor =         1  nsppol =         1
    nsym =        16  n1xccc =         0  ntypat =         1  occopt =         1
================================================================================
P This job should need less than                       3.866 Mbytes of memory.
  Rough estimation (10% accuracy) of disk space for files :
_ WF disk file :      0.006 Mbytes ; DEN or POT disk file :      0.075 Mbytes.
================================================================================


 DATASET    4 : magnetic group, Shubnikov type III
 Fedorov space group P4/m m m (#123); Bravais tP (primitive tetrag.)
 Magnetic point group 4/m'mm (# 26)
================================================================================
 Values of the parameters that define the memory need for DATASET  4.
   intxc =         0  ionmov =         0    iscf =         5 xclevel =         1
  lmnmax =         1   lnmax =         1   mband =         1  mffmem =         1
P  mgfft =        24   mkmem =         1 mpssoang=         1     mpw =       280
  mqgrid =      3001   natom =         2    nfft =      9600    nkpt =         1
  nloalg =         4  nspden =         2 nspinor =         1  nsppol =         1
    nsym =        16  n1xccc =         0  ntypat =         1  occopt =         1
================================================================================
P This job should need less than                       3.866 Mbytes of memory.
  Rough estimation (10% accuracy) of disk space for files :
_ WF disk file :      0.006 Mbytes ; DEN or POT disk file :      0.075 Mbytes.
================================================================================


 DATASET    5 : magnetic group, Shubnikov type III
 Fedorov space group P4/m m m (#123); Bravais tP (primitive tetrag.)
 Magnetic point group 4/m'mm (# 26)
================================================================================
 Values of the parameters that define the memory need for DATASET  5.
   intxc =         0  ionmov =         0    iscf =         5 xclevel =         1
  lmnmax =         1   lnmax =         1   mband =         1  mffmem =         1
P  mgfft =        24   mkmem =         1 mpssoang=         1     mpw =       280
  mqgrid =      3001   natom =         2    nfft =      9600    nkpt =         1
  nloalg =         4  nspden =         2 nspinor =         1  nsppol =         1
    nsym =        16  n1xccc =         0  ntypat =         1  occopt =         1
================================================================================
P This job should need less than                       3.866 Mbytes of memory.
  Rough estimation (10% accuracy) of disk space for files :
_ WF disk file :      0.006 Mbytes ; DEN or POT disk file :      0.075 Mbytes.
================================================================================


 DATASET    6 : magnetic group, Shubnikov type III
 Fedorov space group P4/m m m (#123); Bravais tP (primitive tetrag.)
 Magnetic point group 4/m'mm (# 26)
================================================================================
 Values of the parameters that define the memory need for DATASET  6 (RF).
   intxc =         0    iscf =         5 xclevel =         1  lmnmax =         1
   lnmax =         1   mband =         1  mffmem =         1   mgfft =        24
P  mkmem =         1  mkqmem =         1  mk1mem =         1 mpssoang=         1
     mpw =       559  mqgrid =      3001   natom =         2    nfft =      9600
    nkpt =         1  nloalg =         4  nspden =         2 nspinor =         1
  nsppol =         2    nsym =        16  n1xccc =         0  ntypat =         1
  occopt =         1
================================================================================
P This job should need less than                       4.249 Mbytes of memory.
  Rough estimation (10% accuracy) of disk space for files :
_ WF disk file :      0.019 Mbytes ; DEN or POT disk file :      0.148 Mbytes.
================================================================================

--------------------------------------------------------------------------------
------------- Echo of variables that govern the present computation ------------
--------------------------------------------------------------------------------
-
- outvars: echo of selected default values                                      
-   accesswff0 =  0 , fftalg0 =112 , wfoptalg0 =  0
-
- outvars: echo of global parameters not present in the input file              
-  max_nthreads =    0
-
 -outvars: echo values of preprocessed input variables --------
            acell      1.2000000000E+01  1.0000000000E+01  1.0000000000E+01 Bohr
              amu      1.00794000E+00
        bs_loband1          0       0
        bs_loband2          0       0
        bs_loband3          0
        bs_loband4          0
        bs_loband5          0
        bs_loband6          0       0
      chksymbreak           0
           diemac      1.00000000E+00
           diemix      5.00000000E-01
             ecut      4.50000000E+00 Hartree
-          fftalg         112
           getwfk1          0
           getwfk2          1
           getwfk3          1
           getwfk4          1
           getwfk5          1
           getwfk6          3
             iscf           5
           istwfk1       2
           istwfk2       1
           istwfk3       2
           istwfk4       2
           istwfk5       2
           istwfk6       1
           jdtset        1    2    3    4    5    6
           kptopt           0
P           mkmem           1
P          mkqmem           1
P          mk1mem           1
            natom           2
            nband1          1
            nband2          1
            nband3          1
            nband4          1
            nband5          1
            nband6          1
           ndtset           6
            ngfft          24      20      20
             nkpt           1
             nqpt1          0
             nqpt2          1
             nqpt3          0
             nqpt4          0
             nqpt5          0
             nqpt6          1
           nspden           2
           nsppol1          2
           nsppol2          2
           nsppol3          1
           nsppol4          1
           nsppol5          1
           nsppol6          2
            nstep          40
             nsym1          8
             nsym2          8
             nsym3         16
             nsym4         16
             nsym5         16
             nsym6         16
           ntypat           1
              occ1     1.000000
                       1.000000
              occ2     1.000000
                       1.000000
              occ3     2.000000
              occ4     2.000000
              occ5     2.000000
              occ6     1.000000
                       1.000000
        optdriver1          0
        optdriver2          1
        optdriver3          0
        optdriver4          0
        optdriver5          0
        optdriver6          1
        prtdensph1          0
        prtdensph2          0
        prtdensph3          1
        prtdensph4          1
        prtdensph5          1
        prtdensph6          0
        ptgroupma1          0
        ptgroupma2          0
        ptgroupma3         26
        ptgroupma4         26
        ptgroupma5         26
        ptgroupma6         26
          rfatpol           1       2
            rfdir           1       0       0
           rfphon1          0
           rfphon2          1
           rfphon3          0
           rfphon4          0
           rfphon5          0
           rfphon6          1
          spgroup1         99
          spgroup2         99
          spgroup3        123
          spgroup4        123
          spgroup5        123
          spgroup6        123
           spinat1     0.0000000000E+00  0.0000000000E+00  9.9000000000E-01
                       0.0000000000E+00  0.0000000000E+00 -1.0000000000E+00
           spinat2     0.0000000000E+00  0.0000000000E+00  9.9000000000E-01
                       0.0000000000E+00  0.0000000000E+00 -1.0000000000E+00
           spinat3     0.0000000000E+00  0.0000000000E+00  1.0000000000E+00
                       0.0000000000E+00  0.0000000000E+00 -1.0000000000E+00
           spinat4     0.0000000000E+00  0.0000000000E+00  1.0000000000E+00
                       0.0000000000E+00  0.0000000000E+00 -1.0000000000E+00
           spinat5     0.0000000000E+00  0.0000000000E+00  1.0000000000E+00
                       0.0000000000E+00  0.0000000000E+00 -1.0000000000E+00
           spinat6     0.0000000000E+00  0.0000000000E+00  1.0000000000E+00
                       0.0000000000E+00  0.0000000000E+00 -1.0000000000E+00
           symafm1       1    1    1    1    1    1    1    1
           symafm2       1    1    1    1    1    1    1    1
           symafm3       1   -1   -1    1    1   -1   -1    1    1   -1
                        -1    1    1   -1   -1    1
           symafm4       1   -1   -1    1    1   -1   -1    1    1   -1
                        -1    1    1   -1   -1    1
           symafm5       1   -1   -1    1    1   -1   -1    1    1   -1
                        -1    1    1   -1   -1    1
           symafm6       1   -1   -1    1    1   -1   -1    1    1   -1
                        -1    1    1   -1   -1    1
           symrel1     1  0  0   0  1  0   0  0  1       1  0  0   0  1  0   0  0 -1
                       1  0  0   0 -1  0   0  0 -1       1  0  0   0 -1  0   0  0  1
                       1  0  0   0  0  1   0  1  0       1  0  0   0  0  1   0 -1  0
                       1  0  0   0  0 -1   0 -1  0       1  0  0   0  0 -1   0  1  0
           symrel2     1  0  0   0  1  0   0  0  1       1  0  0   0  1  0   0  0 -1
                       1  0  0   0 -1  0   0  0 -1       1  0  0   0 -1  0   0  0  1
                       1  0  0   0  0  1   0  1  0       1  0  0   0  0  1   0 -1  0
                       1  0  0   0  0 -1   0 -1  0       1  0  0   0  0 -1   0  1  0
           symrel3     1  0  0   0  1  0   0  0  1      -1  0  0   0 -1  0   0  0 -1
                      -1  0  0   0 -1  0   0  0  1       1  0  0   0  1  0   0  0 -1
                       1  0  0   0 -1  0   0  0 -1      -1  0  0   0  1  0   0  0  1
                      -1  0  0   0  1  0   0  0 -1       1  0  0   0 -1  0   0  0  1
                       1  0  0   0  0  1   0  1  0      -1  0  0   0  0 -1   0 -1  0
                      -1  0  0   0  0 -1   0  1  0       1  0  0   0  0  1   0 -1  0
                       1  0  0   0  0 -1   0 -1  0      -1  0  0   0  0  1   0  1  0
                      -1  0  0   0  0  1   0 -1  0       1  0  0   0  0 -1   0  1  0
           symrel4     1  0  0   0  1  0   0  0  1      -1  0  0   0 -1  0   0  0 -1
                      -1  0  0   0 -1  0   0  0  1       1  0  0   0  1  0   0  0 -1
                       1  0  0   0 -1  0   0  0 -1      -1  0  0   0  1  0   0  0  1
                      -1  0  0   0  1  0   0  0 -1       1  0  0   0 -1  0   0  0  1
                       1  0  0   0  0  1   0  1  0      -1  0  0   0  0 -1   0 -1  0
                      -1  0  0   0  0 -1   0  1  0       1  0  0   0  0  1   0 -1  0
                       1  0  0   0  0 -1   0 -1  0      -1  0  0   0  0  1   0  1  0
                      -1  0  0   0  0  1   0 -1  0       1  0  0   0  0 -1   0  1  0
           symrel5     1  0  0   0  1  0   0  0  1      -1  0  0   0 -1  0   0  0 -1
                      -1  0  0   0 -1  0   0  0  1       1  0  0   0  1  0   0  0 -1
                       1  0  0   0 -1  0   0  0 -1      -1  0  0   0  1  0   0  0  1
                      -1  0  0   0  1  0   0  0 -1       1  0  0   0 -1  0   0  0  1
                       1  0  0   0  0  1   0  1  0      -1  0  0   0  0 -1   0 -1  0
                      -1  0  0   0  0 -1   0  1  0       1  0  0   0  0  1   0 -1  0
                       1  0  0   0  0 -1   0 -1  0      -1  0  0   0  0  1   0  1  0
                      -1  0  0   0  0  1   0 -1  0       1  0  0   0  0 -1   0  1  0
           symrel6     1  0  0   0  1  0   0  0  1      -1  0  0   0 -1  0   0  0 -1
                      -1  0  0   0 -1  0   0  0  1       1  0  0   0  1  0   0  0 -1
                       1  0  0   0 -1  0   0  0 -1      -1  0  0   0  1  0   0  0  1
                      -1  0  0   0  1  0   0  0 -1       1  0  0   0 -1  0   0  0  1
                       1  0  0   0  0  1   0  1  0      -1  0  0   0  0 -1   0 -1  0
                      -1  0  0   0  0 -1   0  1  0       1  0  0   0  0  1   0 -1  0
                       1  0  0   0  0 -1   0 -1  0      -1  0  0   0  0  1   0  1  0
                      -1  0  0   0  0  1   0 -1  0       1  0  0   0  0 -1   0  1  0
            tnons1     0.0000000  0.0000000  0.0000000     0.0000000  0.0000000  0.0000000
                       0.0000000  0.0000000  0.0000000     0.0000000  0.0000000  0.0000000
                       0.0000000  0.0000000  0.0000000     0.0000000  0.0000000  0.0000000
                       0.0000000  0.0000000  0.0000000     0.0000000  0.0000000  0.0000000
            tnons2     0.0000000  0.0000000  0.0000000     0.0000000  0.0000000  0.0000000
                       0.0000000  0.0000000  0.0000000     0.0000000  0.0000000  0.0000000
                       0.0000000  0.0000000  0.0000000     0.0000000  0.0000000  0.0000000
                       0.0000000  0.0000000  0.0000000     0.0000000  0.0000000  0.0000000
            tnons3     0.0000000  0.0000000  0.0000000     0.0000000  0.0000000  0.0000000
                       0.0000000  0.0000000  0.0000000     0.0000000  0.0000000  0.0000000
                       0.0000000  0.0000000  0.0000000     0.0000000  0.0000000  0.0000000
                       0.0000000  0.0000000  0.0000000     0.0000000  0.0000000  0.0000000
                       0.0000000  0.0000000  0.0000000     0.0000000  0.0000000  0.0000000
                       0.0000000  0.0000000  0.0000000     0.0000000  0.0000000  0.0000000
                       0.0000000  0.0000000  0.0000000     0.0000000  0.0000000  0.0000000
                       0.0000000  0.0000000  0.0000000     0.0000000  0.0000000  0.0000000
            tnons4     0.0000000  0.0000000  0.0000000    -0.0000833  0.0000000  0.0000000
                      -0.0000833  0.0000000  0.0000000     0.0000000  0.0000000  0.0000000
                       0.0000000  0.0000000  0.0000000    -0.0000833  0.0000000  0.0000000
                      -0.0000833  0.0000000  0.0000000     0.0000000  0.0000000  0.0000000
                       0.0000000  0.0000000  0.0000000    -0.0000833  0.0000000  0.0000000
                      -0.0000833  0.0000000  0.0000000     0.0000000  0.0000000  0.0000000
                       0.0000000  0.0000000  0.0000000    -0.0000833  0.0000000  0.0000000
                      -0.0000833  0.0000000  0.0000000     0.0000000  0.0000000  0.0000000
            tnons5     0.0000000  0.0000000  0.0000000     0.0000833  0.0000000  0.0000000
                       0.0000833  0.0000000  0.0000000     0.0000000  0.0000000  0.0000000
                       0.0000000  0.0000000  0.0000000     0.0000833  0.0000000  0.0000000
                       0.0000833  0.0000000  0.0000000     0.0000000  0.0000000  0.0000000
                       0.0000000  0.0000000  0.0000000     0.0000833  0.0000000  0.0000000
                       0.0000833  0.0000000  0.0000000     0.0000000  0.0000000  0.0000000
                       0.0000000  0.0000000  0.0000000     0.0000833  0.0000000  0.0000000
                       0.0000833  0.0000000  0.0000000     0.0000000  0.0000000  0.0000000
            tnons6     0.0000000  0.0000000  0.0000000     0.0000000  0.0000000  0.0000000
                       0.0000000  0.0000000  0.0000000     0.0000000  0.0000000  0.0000000
                       0.0000000  0.0000000  0.0000000     0.0000000  0.0000000  0.0000000
                       0.0000000  0.0000000  0.0000000     0.0000000  0.0000000  0.0000000
                       0.0000000  0.0000000  0.0000000     0.0000000  0.0000000  0.0000000
                       0.0000000  0.0000000  0.0000000     0.0000000  0.0000000  0.0000000
                       0.0000000  0.0000000  0.0000000     0.0000000  0.0000000  0.0000000
                       0.0000000  0.0000000  0.0000000     0.0000000  0.0000000  0.0000000
           tolvrs1     1.00000000E-14
           tolvrs2     1.00000000E-08
           tolvrs3     1.00000000E-14
           tolvrs4     1.00000000E-14
           tolvrs5     1.00000000E-14
           tolvrs6     1.00000000E-08
            typat      1  1
           xangst1    -1.0583544172E+00  0.0000000000E+00  0.0000000000E+00
                       1.0583544172E+00  0.0000000000E+00  0.0000000000E+00
           xangst2    -1.0583544172E+00  0.0000000000E+00  0.0000000000E+00
                       1.0583544172E+00  0.0000000000E+00  0.0000000000E+00
           xangst3    -1.0583544172E+00  0.0000000000E+00  0.0000000000E+00
                       1.0583544172E+00  0.0000000000E+00  0.0000000000E+00
           xangst4    -1.0588835944E+00  0.0000000000E+00  0.0000000000E+00
                       1.0583544172E+00  0.0000000000E+00  0.0000000000E+00
           xangst5    -1.0578252400E+00  0.0000000000E+00  0.0000000000E+00
                       1.0583544172E+00  0.0000000000E+00  0.0000000000E+00
           xangst6    -1.0583544172E+00  0.0000000000E+00  0.0000000000E+00
                       1.0583544172E+00  0.0000000000E+00  0.0000000000E+00
            xcart1    -2.0000000000E+00  0.0000000000E+00  0.0000000000E+00
                       2.0000000000E+00  0.0000000000E+00  0.0000000000E+00
            xcart2    -2.0000000000E+00  0.0000000000E+00  0.0000000000E+00
                       2.0000000000E+00  0.0000000000E+00  0.0000000000E+00
            xcart3    -2.0000000000E+00  0.0000000000E+00  0.0000000000E+00
                       2.0000000000E+00  0.0000000000E+00  0.0000000000E+00
            xcart4    -2.0010000000E+00  0.0000000000E+00  0.0000000000E+00
                       2.0000000000E+00  0.0000000000E+00  0.0000000000E+00
            xcart5    -1.9990000000E+00  0.0000000000E+00  0.0000000000E+00
                       2.0000000000E+00  0.0000000000E+00  0.0000000000E+00
            xcart6    -2.0000000000E+00  0.0000000000E+00  0.0000000000E+00
                       2.0000000000E+00  0.0000000000E+00  0.0000000000E+00
             xred1    -1.6666666667E-01  0.0000000000E+00  0.0000000000E+00
                       1.6666666667E-01  0.0000000000E+00  0.0000000000E+00
             xred2    -1.6666666667E-01  0.0000000000E+00  0.0000000000E+00
                       1.6666666667E-01  0.0000000000E+00  0.0000000000E+00
             xred3    -1.6666666667E-01  0.0000000000E+00  0.0000000000E+00
                       1.6666666667E-01  0.0000000000E+00  0.0000000000E+00
             xred4    -1.6675000000E-01  0.0000000000E+00  0.0000000000E+00
                       1.6666666667E-01  0.0000000000E+00  0.0000000000E+00
             xred5    -1.6658333333E-01  0.0000000000E+00  0.0000000000E+00
                       1.6666666667E-01  0.0000000000E+00  0.0000000000E+00
             xred6    -1.6666666667E-01  0.0000000000E+00  0.0000000000E+00
                       1.6666666667E-01  0.0000000000E+00  0.0000000000E+00
            znucl        1.00000

================================================================================

 chkinp: Checking input parameters for consistency, jdtset=   1.

 chkinp: Checking input parameters for consistency, jdtset=   2.

 chkinp: Checking input parameters for consistency, jdtset=   3.

 chkinp: Checking input parameters for consistency, jdtset=   4.

 chkinp: Checking input parameters for consistency, jdtset=   5.

 chkinp: Checking input parameters for consistency, jdtset=   6.

================================================================================
== DATASET  1 ==================================================================
-   nproc =    1

 Exchange-correlation functional for the present dataset will be:
  LDA: new Teter (4/93) with spin-polarized option - ixc=1
 Citation for XC functional:
  S. Goedecker, M. Teter, J. Huetter, PRB 54, 1703 (1996)

 Real(R)+Recip(G) space primitive vectors, cartesian coordinates (Bohr,Bohr^-1):
 R(1)= 12.0000000  0.0000000  0.0000000  G(1)=  0.0833333  0.0000000  0.0000000
 R(2)=  0.0000000 10.0000000  0.0000000  G(2)=  0.0000000  0.1000000  0.0000000
 R(3)=  0.0000000  0.0000000 10.0000000  G(3)=  0.0000000  0.0000000  0.1000000
 Unit cell volume ucvol=  1.2000000E+03 bohr^3
 Angles (23,13,12)=  9.00000000E+01  9.00000000E+01  9.00000000E+01 degrees

 getcut: wavevector=  0.0000  0.0000  0.0000  ngfft=  24  20  20
         ecut(hartree)=      4.500   => boxcut(ratio)=   2.09440

--- Pseudopotential description ------------------------------------------------
- pspini: atom type   1  psp file is /home/gonze/ABINIT/ABINITv7.9.3/trunk/7.9.3-private/tests/Psps_for_tests/1h.pspnc
- pspatm: opening atomic psp file    /home/gonze/ABINIT/ABINITv7.9.3/trunk/7.9.3-private/tests/Psps_for_tests/1h.pspnc
-  Troullier-Martins psp for element  H         Thu Oct 27 17:28:54 EDT 1994
-  1.00000   1.00000    940714                znucl, zion, pspdat
    1    1    0    0      2001   0.00000      pspcod,pspxc,lmax,lloc,mmax,r2well
    0   7.740  11.990    0   1.5855604        l,e99.0,e99.9,nproj,rcpsp
   0.00000000   0.00000000   0.00000000   0.00000000     rms, ekb1, ekb2, epsatm
    0.00000000000000    0.00000000000000    0.00000000000000   rchrg,fchrg,qchrg
 Note: local psp for atom with Z=  1.0
 pspatm: epsatm=    0.04198703
         --- l  ekb(1:nproj) -->
 pspatm: atomic psp has been read  and splines computed

   1.67948119E-01                                ecore*ucvol(ha*bohr**3)
--------------------------------------------------------------------------------

P newkpt: treating      1 bands with npw=     280 for ikpt=   1 by node    0
P newkpt: treating      1 bands with npw=     280 for ikpt=   1 by node    0

_setup2: Arith. and geom. avg. npw (full set) are     559.000     559.000

================================================================================

     iter   Etot(hartree)      deltaE(h)  residm     vres2
 ETOT  1 -0.94128102807795    -9.413E-01 3.085E-04 4.513E+00
 ETOT  2 -0.94290179672931    -1.621E-03 2.772E-10 1.394E+00
 ETOT  3 -0.94438017265934    -1.478E-03 8.531E-06 3.466E-01
 ETOT  4 -0.94468942855484    -3.093E-04 1.039E-06 7.366E-02
 ETOT  5 -0.94481072610686    -1.213E-04 5.462E-07 1.711E-01
 ETOT  6 -0.94481773566519    -7.010E-06 4.486E-08 1.827E-01
 ETOT  7 -0.94484298775581    -2.525E-05 1.892E-07 4.315E-02
 ETOT  8 -0.94485806396665    -1.508E-05 2.574E-07 3.464E-03
 ETOT  9 -0.94485852065868    -4.567E-07 4.719E-09 5.528E-04
 ETOT 10 -0.94485861471380    -9.406E-08 1.227E-09 6.088E-05
 ETOT 11 -0.94485863895348    -2.424E-08 3.360E-10 2.187E-05
 ETOT 12 -0.94485865783221    -1.888E-08 9.395E-11 5.325E-06
 ETOT 13 -0.94485867343205    -1.560E-08 1.882E-10 4.609E-06
 ETOT 14 -0.94485867566129    -2.229E-09 4.397E-11 7.564E-06
 ETOT 15 -0.94485867763021    -1.969E-09 1.843E-11 1.540E-06
 ETOT 16 -0.94485867811849    -4.883E-10 5.823E-12 4.326E-07
 ETOT 17 -0.94485867822976    -1.113E-10 1.325E-12 6.814E-08
 ETOT 18 -0.94485867828627    -5.651E-11 5.108E-13 1.619E-08
 ETOT 19 -0.94485867829140    -5.137E-12 5.493E-14 8.120E-09
 ETOT 20 -0.94485867829564    -4.235E-12 3.079E-14 1.970E-09
 ETOT 21 -0.94485867829829    -2.649E-12 2.029E-14 8.102E-10
 ETOT 22 -0.94485867829956    -1.271E-12 1.765E-14 2.197E-09
 ETOT 23 -0.94485867830002    -4.627E-13 4.287E-15 4.220E-10
 ETOT 24 -0.94485867830015    -1.259E-13 1.905E-15 6.138E-11
 ETOT 25 -0.94485867830017    -2.354E-14 7.743E-17 6.503E-11
 ETOT 26 -0.94485867830017     4.441E-16 8.515E-17 1.026E-11
 ETOT 27 -0.94485867830017    -2.220E-16 4.575E-17 9.180E-13
 ETOT 28 -0.94485867830016     5.995E-15 1.059E-17 5.374E-12
 ETOT 29 -0.94485867830017    -4.885E-15 1.298E-17 6.979E-13
 ETOT 30 -0.94485867830017     1.554E-15 5.101E-18 1.777E-12
 ETOT 31 -0.94485867830016     4.885E-15 3.531E-18 2.703E-13
 ETOT 32 -0.94485867830017    -4.663E-15 1.601E-18 3.032E-14
 ETOT 33 -0.94485867830018    -1.243E-14 1.227E-19 1.602E-14
 ETOT 34 -0.94485867830016     1.932E-14 3.251E-20 1.968E-15

 At SCF step   34       vres2   =  1.97E-15 < tolvrs=  1.00E-14 =>converged.

 Cartesian components of stress tensor (hartree/bohr^3)
  sigma(1 1)=  1.46229849E-04  sigma(3 2)=  0.00000000E+00
  sigma(2 2)=  5.18750564E-05  sigma(3 1)=  0.00000000E+00
  sigma(3 3)=  5.18750564E-05  sigma(2 1)=  0.00000000E+00

================================================================================

 ----iterations are completed or convergence reached----

 Mean square residual over all n,k,spin=   1.8867E-20; max=  3.2513E-20
   0.0000  0.0000  0.0000    1  5.22031E-21 kpt; spin; max resid(k); each band:
  5.22E-21
   0.0000  0.0000  0.0000    2  3.25129E-20 kpt; spin; max resid(k); each band:
  3.25E-20
 reduced coordinates (array xred) for    2 atoms
      -0.166666666667      0.000000000000      0.000000000000
       0.166666666667      0.000000000000      0.000000000000
 rms dE/dt=  1.8514E-01; max dE/dt=  3.2068E-01; dE/dt below (all hartree)
    1      -0.320675553235      0.000000000000      0.000000000000
    2       0.320675554752      0.000000000000      0.000000000000

 cartesian coordinates (angstrom) at end:
    1     -1.05835441718000     0.00000000000000     0.00000000000000
    2      1.05835441718000     0.00000000000000     0.00000000000000

 cartesian forces (hartree/bohr) at end:
    1      0.02672296283277    -0.00000000000000    -0.00000000000000
    2     -0.02672296283277    -0.00000000000000    -0.00000000000000
 frms,max,avg= 1.5428510E-02 2.6722963E-02  -6.319E-11  0.000E+00  0.000E+00 h/b

 cartesian forces (eV/Angstrom) at end:
    1      1.37414988347023    -0.00000000000000    -0.00000000000000
    2     -1.37414988347023    -0.00000000000000    -0.00000000000000
 frms,max,avg= 7.9336581E-01 1.3741499E+00  -3.250E-09  0.000E+00  0.000E+00 e/A
 length scales= 12.000000000000 10.000000000000 10.000000000000 bohr
              =  6.350126503080  5.291772085900  5.291772085900 angstroms
 prteigrs : about to open file t12o_DS1_EIG
 Fermi (or HOMO) energy (hartree) =  -0.26531   Average Vxc (hartree)=  -0.09436
 Eigenvalues (hartree) for nkpt=   1  k points, SPIN UP:
 kpt#   1, nband=  1, wtk=  1.00000, kpt=  0.0000  0.0000  0.0000 (reduced coord)
  -0.26531
 Eigenvalues (hartree) for nkpt=   1  k points, SPIN DOWN:
 kpt#   1, nband=  1, wtk=  1.00000, kpt=  0.0000  0.0000  0.0000 (reduced coord)
  -0.26531
 Total charge density [el/Bohr^3]
,     Maximum=    8.7821E-02  at reduced coord.    0.8333    0.0000    0.0000
,Next maximum=    8.7821E-02  at reduced coord.    0.1667    0.0000    0.0000
,     Minimum=    3.4576E-06  at reduced coord.    0.5000    0.3500    0.3500
,Next minimum=    3.4576E-06  at reduced coord.    0.5000    0.6500    0.3500
,  Integrated=    2.0000E+00
 Spin up density      [el/Bohr^3]
,     Maximum=    7.7804E-02  at reduced coord.    0.8333    0.0000    0.0000
,Next maximum=    6.4707E-02  at reduced coord.    0.8750    0.0000    0.0000
,     Minimum=    2.0668E-07  at reduced coord.    0.3333    0.5000    0.3000
,Next minimum=    2.0668E-07  at reduced coord.    0.3333    0.3000    0.5000
,  Integrated=    1.0000E+00
 Spin down density    [el/Bohr^3]
,     Maximum=    7.7804E-02  at reduced coord.    0.1667    0.0000    0.0000
,Next maximum=    6.4707E-02  at reduced coord.    0.1250    0.0000    0.0000
,     Minimum=    2.0668E-07  at reduced coord.    0.6667    0.5000    0.3000
,Next minimum=    2.0668E-07  at reduced coord.    0.6667    0.3000    0.5000
,  Integrated=    1.0000E+00
 Magnetization (spin up - spin down) [el/Bohr^3]
,     Maximum=    6.7787E-02  at reduced coord.    0.8333    0.0000    0.0000
,Next maximum=    5.4827E-02  at reduced coord.    0.8333    0.0000    0.9500
,     Minimum=   -6.7787E-02  at reduced coord.    0.1667    0.0000    0.0000
,Next minimum=   -5.4827E-02  at reduced coord.    0.1667    0.0500    0.0000
,  Integrated=    0.0000E+00
 Relative magnetization (=zeta, between -1 and 1)
,     Maximum=    9.5411E-01  at reduced coord.    0.6667    0.5000    0.7000
,Next maximum=    9.5411E-01  at reduced coord.    0.6667    0.7000    0.5000
,     Minimum=   -9.5411E-01  at reduced coord.    0.3333    0.5000    0.3000
,Next minimum=   -9.5411E-01  at reduced coord.    0.3333    0.3000    0.5000

--------------------------------------------------------------------------------
 Components of total free energy (in Hartree) :

    Kinetic energy  =  6.44892413018250E-01
    Hartree energy  =  3.01931979973056E-01
    XC energy       = -4.74903723454161E-01
    Ewald energy    = -2.59505324422668E-01
    PspCore energy  =  1.39956766161846E-04
    Loc. psp. energy= -1.15741398018080E+00
    NL   psp  energy=  0.00000000000000E+00
    >>>>>>>>> Etotal= -9.44858678300160E-01

 Other information on the energy :
    Total energy(eV)= -2.57109121886779E+01 ; Band energy (Ha)=  -5.3061604913E-01
--------------------------------------------------------------------------------

 Cartesian components of stress tensor (hartree/bohr^3)
  sigma(1 1)=  1.46229849E-04  sigma(3 2)=  0.00000000E+00
  sigma(2 2)=  5.18750564E-05  sigma(3 1)=  0.00000000E+00
  sigma(3 3)=  5.18750564E-05  sigma(2 1)=  0.00000000E+00

-Cartesian components of stress tensor (GPa)         [Pressure= -2.4516E+00 GPa]
- sigma(1 1)=  4.30222998E+00  sigma(3 2)=  0.00000000E+00
- sigma(2 2)=  1.52621659E+00  sigma(3 1)=  0.00000000E+00
- sigma(3 3)=  1.52621659E+00  sigma(2 1)=  0.00000000E+00

================================================================================
== DATASET  2 ==================================================================
-   nproc =    1

 mkfilename : getwfk/=0, take file _WFK from output of DATASET   1.

 Exchange-correlation functional for the present dataset will be:
  LDA: new Teter (4/93) with spin-polarized option - ixc=1
 Citation for XC functional:
  S. Goedecker, M. Teter, J. Huetter, PRB 54, 1703 (1996)

 Real(R)+Recip(G) space primitive vectors, cartesian coordinates (Bohr,Bohr^-1):
 R(1)= 12.0000000  0.0000000  0.0000000  G(1)=  0.0833333  0.0000000  0.0000000
 R(2)=  0.0000000 10.0000000  0.0000000  G(2)=  0.0000000  0.1000000  0.0000000
 R(3)=  0.0000000  0.0000000 10.0000000  G(3)=  0.0000000  0.0000000  0.1000000
 Unit cell volume ucvol=  1.2000000E+03 bohr^3
 Angles (23,13,12)=  9.00000000E+01  9.00000000E+01  9.00000000E+01 degrees
 setup1 : take into account q-point for computing boxcut.

 getcut: wavevector=  0.0000  0.0000  0.0000  ngfft=  24  20  20
         ecut(hartree)=      4.500   => boxcut(ratio)=   2.09440
--------------------------------------------------------------------------------

-inwffil : will read wavefunctions from disk file t12o_DS1_WFK
- newkpt: read input wf with ikpt,npw=   1     280, make ikpt,npw=   1     559
- newkpt: read input wf with ikpt,npw=   1     280, make ikpt,npw=   1     559


 ==>  initialize data related to q vector <== 

 The list of irreducible perturbations for this q vector is:
    1)    idir= 1    ipert=   1
    2)    idir= 1    ipert=   2

================================================================================

--------------------------------------------------------------------------------
 Perturbation wavevector (in red.coord.)   0.000000  0.000000  0.000000
 Perturbation : displacement of atom   1   along direction   1
 Found     8 symmetries that leave the perturbation invariant.
 symkpt : not enough symmetry to change the number of k points.

--------------------------------------------------------------------------------

-inwffil : will read wavefunctions from disk file t12o_DS1_WFK
- newkpt: read input wf with ikpt,npw=   1     280, make ikpt,npw=   1     559
- newkpt: read input wf with ikpt,npw=   1     280, make ikpt,npw=   1     559

--------------------------------------------------------------------------------

-inwffil : will read wavefunctions from disk file t12o_DS1_WFK
- newkpt: read input wf with ikpt,npw=   1     280, make ikpt,npw=   1     559
- newkpt: read input wf with ikpt,npw=   1     280, make ikpt,npw=   1     559

 Initialisation of the first-order wave-functions :
  ireadwf=   0
P newkpt: treating      1 bands with npw=     559 for ikpt=   1 by node    0
P newkpt: treating      1 bands with npw=     559 for ikpt=   1 by node    0


     iter   2DEtotal(Ha)        deltaE(Ha) residm    vres2
-ETOT  1  -2.1168713109647     -5.560E+01 1.316E-01 2.423E+03
 ETOT  2  -5.2278063628006     -3.111E+00 1.563E-02 3.486E+02
 ETOT  3  -5.3960980242565     -1.683E-01 4.177E-04 3.731E+02
 ETOT  4  -5.8678409365668     -4.717E-01 1.241E-03 9.486E+01
 ETOT  5  -6.1715958843290     -3.038E-01 2.771E-03 2.458E+01
 ETOT  6  -6.2794084613370     -1.078E-01 6.363E-04 5.062E+00
 ETOT  7  -6.2794435523712     -3.509E-05 2.146E-06 9.235E+00
 ETOT  8  -6.2793152213025      1.283E-04 3.484E-07 1.094E+01
 ETOT  9  -6.2794536086815     -1.384E-04 1.640E-06 7.411E+00
 ETOT 10  -6.2794649459130     -1.134E-05 7.605E-08 8.185E+00
 ETOT 11  -6.2821878519021     -2.723E-03 1.120E-05 2.301E+00
 ETOT 12  -6.2828383420567     -6.505E-04 5.536E-06 3.215E-01
 ETOT 13  -6.2829131954924     -7.485E-05 1.920E-07 9.942E-02
 ETOT 14  -6.2829526183880     -3.942E-05 2.914E-07 3.770E-03
 ETOT 15  -6.2829619524166     -9.334E-06 1.935E-08 9.361E-04
 ETOT 16  -6.2829661591692     -4.207E-06 3.556E-08 8.802E-03
 ETOT 17  -6.2829672307545     -1.072E-06 2.412E-09 1.946E-03
 ETOT 18  -6.2829675853858     -3.546E-07 4.399E-09 4.720E-05
 ETOT 19  -6.2829675920774     -6.692E-09 5.791E-11 8.494E-06
 ETOT 20  -6.2829675878769      4.200E-09 2.922E-11 6.729E-05
 ETOT 21  -6.2829675926798     -4.803E-09 9.884E-12 3.462E-06
 ETOT 22  -6.2829675938751     -1.195E-09 3.496E-12 9.125E-07
 ETOT 23  -6.2829675940071     -1.320E-10 2.695E-13 1.493E-06
 ETOT 24  -6.2829675943741     -3.670E-10 8.879E-13 3.723E-07
 ETOT 25  -6.2829675947610     -3.869E-10 2.133E-12 7.104E-08
 ETOT 26  -6.2829675948123     -5.126E-11 3.611E-13 8.447E-09

 At SCF step   26       vres2   =  8.45E-09 < tolvrs=  1.00E-08 =>converged.
================================================================================

 ----iterations are completed or convergence reached----

 Mean square residual over all n,k,spin=   2.4948E-13; max=  3.6112E-13
   0.0000  0.0000  0.0000    1  3.61124E-13 kpt; spin; max resid(k); each band:
  3.61E-13
   0.0000  0.0000  0.0000    2  1.37844E-13 kpt; spin; max resid(k); each band:
  1.38E-13

 Thirteen components of 2nd-order total energy (hartree) are
 1,2,3: 0th-order hamiltonian combined with 1st-order wavefunctions
     kin0=   9.22413394E+01 eigvalue=   3.27569852E+01  local=  -6.53918744E+01
 4,5,6: 1st-order hamiltonian combined with 1st and 0th-order wfs
 loc psp =  -1.19523181E+02  Hartree=   1.79488639E+01     xc=  -1.77937259E+01
 note that "loc psp" includes a xc core correction that could be resolved
 7,8,9: eventually, occupation + non-local contributions
    edocc=   0.00000000E+00     enl0=   0.00000000E+00   enl1=   0.00000000E+00
 1-9 gives the relaxation energy (to be shifted if some occ is /=2.0)
   erelax=  -5.97615925E+01
 10,11,12 Non-relaxation  contributions : frozen-wavefunctions and Ewald
 fr.local=   4.81858265E+01 fr.nonlo=   0.00000000E+00  Ewald=   5.29279845E+00
 13,14 Frozen wf xc core corrections (1) and (2)
 frxc 1  =   0.00000000E+00  frxc 2 =   0.00000000E+00
 Resulting in :
 2DEtotal=   -0.6282967595E+01 Ha. Also 2DEtotal=   -0.170968243002E+03 eV
    (2DErelax=   -5.9761592536E+01 Ha. 2DEnonrelax=    5.3478624942E+01 Ha)
    (  non-var. 2DEtotal :   -6.2829654437E+00 Ha)


--------------------------------------------------------------------------------
 Perturbation wavevector (in red.coord.)   0.000000  0.000000  0.000000
 Perturbation : displacement of atom   2   along direction   1
 Found     8 symmetries that leave the perturbation invariant.
 symkpt : not enough symmetry to change the number of k points.

--------------------------------------------------------------------------------

-inwffil : will read wavefunctions from disk file t12o_DS1_WFK
- newkpt: read input wf with ikpt,npw=   1     280, make ikpt,npw=   1     559
- newkpt: read input wf with ikpt,npw=   1     280, make ikpt,npw=   1     559

--------------------------------------------------------------------------------

-inwffil : will read wavefunctions from disk file t12o_DS1_WFK
- newkpt: read input wf with ikpt,npw=   1     280, make ikpt,npw=   1     559
- newkpt: read input wf with ikpt,npw=   1     280, make ikpt,npw=   1     559

 Initialisation of the first-order wave-functions :
  ireadwf=   0
P newkpt: treating      1 bands with npw=     559 for ikpt=   1 by node    0
P newkpt: treating      1 bands with npw=     559 for ikpt=   1 by node    0


     iter   2DEtotal(Ha)        deltaE(Ha) residm    vres2
-ETOT  1  -2.1168714431513     -5.560E+01 1.316E-01 2.423E+03
 ETOT  2  -5.1220429900814     -3.005E+00 1.715E-02 3.692E+02
 ETOT  3  -5.3966886312700     -2.746E-01 7.071E-04 3.747E+02
 ETOT  4  -5.8788573754000     -4.822E-01 1.355E-03 8.940E+01
 ETOT  5  -6.1747771685036     -2.959E-01 2.542E-03 2.178E+01
 ETOT  6  -6.2797493945695     -1.050E-01 5.930E-04 4.510E+00
 ETOT  7  -6.2798895433860     -1.401E-04 2.088E-06 8.898E+00
 ETOT  8  -6.2798215019355      6.804E-05 3.153E-07 1.038E+01
 ETOT  9  -6.2822506564423     -2.429E-03 1.070E-05 2.533E+00
 ETOT 10  -6.2828456300678     -5.950E-04 7.012E-06 1.599E-01
 ETOT 11  -6.2829106486803     -6.502E-05 1.457E-07 5.286E-02
 ETOT 12  -6.2829540924294     -4.344E-05 4.968E-07 1.140E-03
 ETOT 13  -6.2829618997080     -7.807E-06 1.807E-08 9.298E-04
 ETOT 14  -6.2829654765456     -3.577E-06 8.724E-08 6.042E-03
 ETOT 15  -6.2829667425032     -1.266E-06 6.803E-09 3.484E-03
 ETOT 16  -6.2829675207230     -7.782E-07 2.547E-09 7.238E-04
 ETOT 17  -6.2829675369511     -1.623E-08 2.727E-10 4.199E-04
 ETOT 18  -6.2829676632194     -1.263E-07 5.252E-10 8.779E-05
 ETOT 19  -6.2829677078591     -4.464E-08 2.262E-10 8.029E-06
 ETOT 20  -6.2829677186990     -1.084E-08 1.399E-10 2.065E-06
 ETOT 21  -6.2829677196304     -9.314E-10 1.234E-11 1.599E-06
 ETOT 22  -6.2829677198182     -1.878E-10 8.500E-13 1.842E-06
 ETOT 23  -6.2829677205840     -7.658E-10 2.921E-12 3.509E-07
 ETOT 24  -6.2829677210710     -4.870E-10 3.352E-12 1.931E-07
 ETOT 25  -6.2829677210961     -2.515E-11 3.119E-14 3.425E-08
 ETOT 26  -6.2829677211016     -5.450E-12 2.229E-14 1.288E-09

 At SCF step   26       vres2   =  1.29E-09 < tolvrs=  1.00E-08 =>converged.
================================================================================

 ----iterations are completed or convergence reached----

 Mean square residual over all n,k,spin=   1.2626E-14; max=  2.2291E-14
   0.0000  0.0000  0.0000    1  2.96047E-15 kpt; spin; max resid(k); each band:
  2.96E-15
   0.0000  0.0000  0.0000    2  2.22908E-14 kpt; spin; max resid(k); each band:
  2.23E-14

 Thirteen components of 2nd-order total energy (hartree) are
 1,2,3: 0th-order hamiltonian combined with 1st-order wavefunctions
     kin0=   9.22413792E+01 eigvalue=   3.27570070E+01  local=  -6.53919260E+01
 4,5,6: 1st-order hamiltonian combined with 1st and 0th-order wfs
 loc psp =  -1.19523183E+02  Hartree=   1.79488631E+01     xc=  -1.77937331E+01
 note that "loc psp" includes a xc core correction that could be resolved
 7,8,9: eventually, occupation + non-local contributions
    edocc=   0.00000000E+00     enl0=   0.00000000E+00   enl1=   0.00000000E+00
 1-9 gives the relaxation energy (to be shifted if some occ is /=2.0)
   erelax=  -5.97615925E+01
 10,11,12 Non-relaxation  contributions : frozen-wavefunctions and Ewald
 fr.local=   4.81858263E+01 fr.nonlo=   0.00000000E+00  Ewald=   5.29279845E+00
 13,14 Frozen wf xc core corrections (1) and (2)
 frxc 1  =   0.00000000E+00  frxc 2 =   0.00000000E+00
 Resulting in :
 2DEtotal=   -0.6282967721E+01 Ha. Also 2DEtotal=   -0.170968246439E+03 eV
    (2DErelax=   -5.9761592451E+01 Ha. 2DEnonrelax=    5.3478624730E+01 Ha)
    (  non-var. 2DEtotal :   -6.2829665837E+00 Ha)

================================================================================

 ---- first-order wavefunction calculations are completed ----


 ==> Compute Derivative Database <==
  
  2nd-order matrix (non-cartesian coordinates, masses not included,
   asr not included )
     j1       j2             matrix element
  dir pert dir pert     real part     imaginary part
  
   1    1   1    1        -6.2829654437         0.0000000000
   1    1   2    1         0.0000000000         0.0000000000
   1    1   3    1         0.0000000000         0.0000000000
   1    1   1    2         6.2829592466         0.0000000000
   1    1   2    2        -0.0000000000        -0.0000000000
   1    1   3    2        -0.0000000000        -0.0000000000
   1    1   2    4         0.0000000000         0.0000000000
   1    1   3    4         0.0000000000         0.0000000000
  
   2    1   1    1         0.0000000000         0.0000000000
   2    1   3    1         0.0000000000         0.0000000000
   2    1   1    2         0.0000000000        -0.0000000000
   2    1   3    2        -0.0000000000         0.0000000000
   2    1   1    4         0.0000000000         0.0000000000
   2    1   3    4         0.0000000000         0.0000000000
  
   3    1   1    1         0.0000000000         0.0000000000
   3    1   2    1         0.0000000000         0.0000000000
   3    1   1    2         0.0000000000        -0.0000000000
   3    1   2    2        -0.0000000000         0.0000000000
   3    1   1    4         0.0000000000         0.0000000000
   3    1   2    4         0.0000000000         0.0000000000
  
   1    2   1    1         6.2829571923        -0.0000000000
   1    2   2    1         0.0000000000         0.0000000000
   1    2   3    1         0.0000000000         0.0000000000
   1    2   1    2        -6.2829665837         0.0000000000
   1    2   2    2        -0.0000000000         0.0000000000
   1    2   3    2        -0.0000000000         0.0000000000
   1    2   2    4         0.0000000000         0.0000000000
   1    2   3    4         0.0000000000         0.0000000000
  
   2    2   1    1        -0.0000000000         0.0000000000
   2    2   3    1        -0.0000000000        -0.0000000000
   2    2   1    2        -0.0000000000         0.0000000000
   2    2   3    2         0.0000000000         0.0000000000
   2    2   1    4         0.0000000000         0.0000000000
   2    2   3    4         0.0000000000         0.0000000000
  
   3    2   1    1        -0.0000000000         0.0000000000
   3    2   2    1        -0.0000000000        -0.0000000000
   3    2   1    2        -0.0000000000         0.0000000000
   3    2   2    2         0.0000000000         0.0000000000
   3    2   1    4         0.0000000000         0.0000000000
   3    2   2    4         0.0000000000         0.0000000000
  
   1    4   2    1         0.0000000000         0.0000000000
   1    4   3    1         0.0000000000         0.0000000000
   1    4   2    2         0.0000000000         0.0000000000
   1    4   3    2         0.0000000000         0.0000000000
   1    4   2    4         0.0000000000         0.0000000000
   1    4   3    4         0.0000000000         0.0000000000
  
   2    4   1    1         0.0000000000         0.0000000000
   2    4   3    1         0.0000000000         0.0000000000
   2    4   1    2         0.0000000000         0.0000000000
   2    4   3    2         0.0000000000         0.0000000000
   2    4   1    4         0.0000000000         0.0000000000
   2    4   3    4         0.0000000000         0.0000000000
  
   3    4   1    1         0.0000000000         0.0000000000
   3    4   2    1         0.0000000000         0.0000000000
   3    4   1    2         0.0000000000         0.0000000000
   3    4   2    2         0.0000000000         0.0000000000
   3    4   1    4         0.0000000000         0.0000000000
   3    4   2    4         0.0000000000         0.0000000000
  
  
  Dynamical matrix, in cartesian coordinates,
   if specified in the inputs, asr has been imposed
     j1       j2             matrix element
  dir pert dir pert     real part    imaginary part
  
   1    1   1    1        -0.0436317045         0.0000000000
   1    1   2    1         0.0000000000         0.0000000000
   1    1   3    1         0.0000000000         0.0000000000
   1    1   1    2         0.0436316614         0.0000000000
   1    1   2    2        -0.0000000000        -0.0000000000
   1    1   3    2        -0.0000000000        -0.0000000000
  
   2    1   1    1         0.0000000000         0.0000000000
   2    1   3    1         0.0000000000         0.0000000000
   2    1   1    2         0.0000000000        -0.0000000000
   2    1   3    2        -0.0000000000         0.0000000000
  
   3    1   1    1         0.0000000000         0.0000000000
   3    1   2    1         0.0000000000         0.0000000000
   3    1   1    2         0.0000000000        -0.0000000000
   3    1   2    2        -0.0000000000         0.0000000000
  
   1    2   1    1         0.0436316472        -0.0000000000
   1    2   2    1         0.0000000000         0.0000000000
   1    2   3    1         0.0000000000         0.0000000000
   1    2   1    2        -0.0436317124         0.0000000000
   1    2   2    2        -0.0000000000         0.0000000000
   1    2   3    2        -0.0000000000         0.0000000000
  
   2    2   1    1        -0.0000000000         0.0000000000
   2    2   3    1        -0.0000000000        -0.0000000000
   2    2   1    2        -0.0000000000         0.0000000000
   2    2   3    2         0.0000000000         0.0000000000
  
   3    2   1    1        -0.0000000000         0.0000000000
   3    2   2    1        -0.0000000000        -0.0000000000
   3    2   1    2        -0.0000000000         0.0000000000
   3    2   2    2         0.0000000000         0.0000000000
 
  Phonon wavevector (reduced coordinates) :  0.00000  0.00000  0.00000
 Phonon energies in Hartree :
  -6.891577E-03 -5.427614E-06  0.000000E+00  0.000000E+00  0.000000E+00
   0.000000E+00
 Phonon frequencies in cm-1    :
- -1.512526E+03 -1.191224E+00  0.000000E+00  0.000000E+00  0.000000E+00
-  0.000000E+00
 chkph3 : WARNING -
  The dynamical matrix was incomplete : phonon frequencies may be wrong ...

================================================================================
== DATASET  3 ==================================================================
-   nproc =    1

 mkfilename : getwfk/=0, take file _WFK from output of DATASET   1.

 Exchange-correlation functional for the present dataset will be:
  LDA: new Teter (4/93) with spin-polarized option - ixc=1
 Citation for XC functional:
  S. Goedecker, M. Teter, J. Huetter, PRB 54, 1703 (1996)

 Real(R)+Recip(G) space primitive vectors, cartesian coordinates (Bohr,Bohr^-1):
 R(1)= 12.0000000  0.0000000  0.0000000  G(1)=  0.0833333  0.0000000  0.0000000
 R(2)=  0.0000000 10.0000000  0.0000000  G(2)=  0.0000000  0.1000000  0.0000000
 R(3)=  0.0000000  0.0000000 10.0000000  G(3)=  0.0000000  0.0000000  0.1000000
 Unit cell volume ucvol=  1.2000000E+03 bohr^3
 Angles (23,13,12)=  9.00000000E+01  9.00000000E+01  9.00000000E+01 degrees

 getcut: wavevector=  0.0000  0.0000  0.0000  ngfft=  24  20  20
         ecut(hartree)=      4.500   => boxcut(ratio)=   2.09440
--------------------------------------------------------------------------------

-inwffil : will read wavefunctions from disk file t12o_DS1_WFK
P newkpt: treating      1 bands with npw=     280 for ikpt=   1 by node    0

_setup2: Arith. and geom. avg. npw (full set) are     559.000     559.000

================================================================================

     iter   Etot(hartree)      deltaE(h)  residm     vres2
 ETOT  1 -0.94485867830017    -9.449E-01 1.081E-24 8.229E-17

 At SCF step    1       vres2   =  8.23E-17 < tolvrs=  1.00E-14 =>converged.

 Cartesian components of stress tensor (hartree/bohr^3)
  sigma(1 1)=  1.46229850E-04  sigma(3 2)=  0.00000000E+00
  sigma(2 2)=  5.18750563E-05  sigma(3 1)=  0.00000000E+00
  sigma(3 3)=  5.18750563E-05  sigma(2 1)=  0.00000000E+00


 Integrated total density in atomic spheres:
 -------------------------------------------
 Atom  Sphere radius  Integrated_up_density  Integrated_dn_density  Total(up+dn)   Diff(up-dn)
    1        2.00000             0.57411973             0.10278569    0.67690542    0.47133404
    2        2.00000             0.10278569             0.57411973    0.67690542   -0.47133404
 Note: Diff(up-dn) can be considered as a rough approximation of a local magnetic moment.


================================================================================

 ----iterations are completed or convergence reached----

 Mean square residual over all n,k,spin=   1.0810E-24; max=  1.0810E-24
   0.0000  0.0000  0.0000    1  1.08104E-24 kpt; spin; max resid(k); each band:
  1.08E-24
 reduced coordinates (array xred) for    2 atoms
      -0.166666666667      0.000000000000      0.000000000000
       0.166666666667      0.000000000000      0.000000000000
 rms dE/dt=  1.8514E-01; max dE/dt=  3.2068E-01; dE/dt below (all hartree)
    1      -0.320675554449      0.000000000000      0.000000000000
    2       0.320675554449      0.000000000000      0.000000000000

 cartesian coordinates (angstrom) at end:
    1     -1.05835441718000     0.00000000000000     0.00000000000000
    2      1.05835441718000     0.00000000000000     0.00000000000000

 cartesian forces (hartree/bohr) at end:
    1      0.02672296287071    -0.00000000000000    -0.00000000000000
    2     -0.02672296287071    -0.00000000000000    -0.00000000000000
 frms,max,avg= 1.5428510E-02 2.6722963E-02   0.000E+00  0.000E+00  0.000E+00 h/b

 cartesian forces (eV/Angstrom) at end:
    1      1.37414988542129    -0.00000000000000    -0.00000000000000
    2     -1.37414988542129    -0.00000000000000    -0.00000000000000
 frms,max,avg= 7.9336581E-01 1.3741499E+00   0.000E+00  0.000E+00  0.000E+00 e/A
 length scales= 12.000000000000 10.000000000000 10.000000000000 bohr
              =  6.350126503080  5.291772085900  5.291772085900 angstroms
 prteigrs : about to open file t12o_DS3_EIG
 Fermi (or HOMO) energy (hartree) =  -0.26531   Average Vxc (hartree)=  -0.09436
 Eigenvalues (hartree) for nkpt=   1  k points:
 kpt#   1, nband=  1, wtk=  1.00000, kpt=  0.0000  0.0000  0.0000 (reduced coord)
  -0.26531
 Total charge density [el/Bohr^3]
,     Maximum=    8.7821E-02  at reduced coord.    0.8333    0.0000    0.0000
,Next maximum=    8.7821E-02  at reduced coord.    0.1667    0.0000    0.0000
,     Minimum=    3.4576E-06  at reduced coord.    0.5000    0.3500    0.3500
,Next minimum=    3.4576E-06  at reduced coord.    0.5000    0.6500    0.3500
,  Integrated=    2.0000E+00
 Spin up density      [el/Bohr^3]
,     Maximum=    7.7804E-02  at reduced coord.    0.8333    0.0000    0.0000
,Next maximum=    6.4707E-02  at reduced coord.    0.8750    0.0000    0.0000
,     Minimum=    2.0668E-07  at reduced coord.    0.3333    0.5000    0.3000
,Next minimum=    2.0668E-07  at reduced coord.    0.3333    0.3000    0.5000
,  Integrated=    1.0000E+00
 Spin down density    [el/Bohr^3]
,     Maximum=    7.7804E-02  at reduced coord.    0.1667    0.0000    0.0000
,Next maximum=    6.4707E-02  at reduced coord.    0.1250    0.0000    0.0000
,     Minimum=    2.0668E-07  at reduced coord.    0.6667    0.5000    0.3000
,Next minimum=    2.0668E-07  at reduced coord.    0.6667    0.3000    0.5000
,  Integrated=    1.0000E+00
 Magnetization (spin up - spin down) [el/Bohr^3]
,     Maximum=    6.7787E-02  at reduced coord.    0.8333    0.0000    0.0000
,Next maximum=    5.4827E-02  at reduced coord.    0.8333    0.0000    0.9500
,     Minimum=   -6.7787E-02  at reduced coord.    0.1667    0.0000    0.0000
,Next minimum=   -5.4827E-02  at reduced coord.    0.1667    0.0500    0.0000
,  Integrated=    0.0000E+00
 Relative magnetization (=zeta, between -1 and 1)
,     Maximum=    9.5411E-01  at reduced coord.    0.6667    0.5000    0.7000
,Next maximum=    9.5411E-01  at reduced coord.    0.6667    0.7000    0.5000
,     Minimum=   -9.5411E-01  at reduced coord.    0.3333    0.5000    0.3000
,Next minimum=   -9.5411E-01  at reduced coord.    0.3333    0.3000    0.5000

--------------------------------------------------------------------------------
 Components of total free energy (in Hartree) :

    Kinetic energy  =  6.44892412805421E-01
    Hartree energy  =  3.01931979933724E-01
    XC energy       = -4.74903723310181E-01
    Ewald energy    = -2.59505324422668E-01
    PspCore energy  =  1.39956766161846E-04
    Loc. psp. energy= -1.15741398007263E+00
    NL   psp  energy=  0.00000000000000E+00
    >>>>>>>>> Etotal= -9.44858678300166E-01

 Other information on the energy :
    Total energy(eV)= -2.57109121886781E+01 ; Band energy (Ha)=  -5.3061604926E-01
--------------------------------------------------------------------------------

 Cartesian components of stress tensor (hartree/bohr^3)
  sigma(1 1)=  1.46229850E-04  sigma(3 2)=  0.00000000E+00
  sigma(2 2)=  5.18750563E-05  sigma(3 1)=  0.00000000E+00
  sigma(3 3)=  5.18750563E-05  sigma(2 1)=  0.00000000E+00

-Cartesian components of stress tensor (GPa)         [Pressure= -2.4516E+00 GPa]
- sigma(1 1)=  4.30222998E+00  sigma(3 2)=  0.00000000E+00
- sigma(2 2)=  1.52621659E+00  sigma(3 1)=  0.00000000E+00
- sigma(3 3)=  1.52621659E+00  sigma(2 1)=  0.00000000E+00

================================================================================
== DATASET  4 ==================================================================
-   nproc =    1

 mkfilename : getwfk/=0, take file _WFK from output of DATASET   1.

 Exchange-correlation functional for the present dataset will be:
  LDA: new Teter (4/93) with spin-polarized option - ixc=1
 Citation for XC functional:
  S. Goedecker, M. Teter, J. Huetter, PRB 54, 1703 (1996)

 Real(R)+Recip(G) space primitive vectors, cartesian coordinates (Bohr,Bohr^-1):
 R(1)= 12.0000000  0.0000000  0.0000000  G(1)=  0.0833333  0.0000000  0.0000000
 R(2)=  0.0000000 10.0000000  0.0000000  G(2)=  0.0000000  0.1000000  0.0000000
 R(3)=  0.0000000  0.0000000 10.0000000  G(3)=  0.0000000  0.0000000  0.1000000
 Unit cell volume ucvol=  1.2000000E+03 bohr^3
 Angles (23,13,12)=  9.00000000E+01  9.00000000E+01  9.00000000E+01 degrees

 getcut: wavevector=  0.0000  0.0000  0.0000  ngfft=  24  20  20
         ecut(hartree)=      4.500   => boxcut(ratio)=   2.09440
--------------------------------------------------------------------------------

-inwffil : will read wavefunctions from disk file t12o_DS1_WFK
P newkpt: treating      1 bands with npw=     280 for ikpt=   1 by node    0

_setup2: Arith. and geom. avg. npw (full set) are     559.000     559.000

================================================================================

     iter   Etot(hartree)      deltaE(h)  residm     vres2
 ETOT  1 -0.94483196516669    -9.448E-01 1.232E-11 2.214E-05
 ETOT  2 -0.94483197378163    -8.615E-09 1.290E-13 4.364E-06
 ETOT  3 -0.94483197583489    -2.053E-09 9.416E-12 2.600E-07
 ETOT  4 -0.94483197640387    -5.690E-10 1.885E-12 1.156E-07
 ETOT  5 -0.94483197706871    -6.648E-10 1.080E-11 1.220E-07
 ETOT  6 -0.94483197713958    -7.087E-11 5.967E-14 2.778E-09
 ETOT  7 -0.94483197714187    -2.292E-12 2.756E-14 2.203E-09
 ETOT  8 -0.94483197714265    -7.807E-13 2.860E-16 2.516E-11
 ETOT  9 -0.94483197714267    -1.998E-14 5.489E-17 2.243E-13
 ETOT 10 -0.94483197714268    -5.551E-15 1.908E-18 1.099E-13
 ETOT 11 -0.94483197714266     1.710E-14 3.200E-19 1.922E-15

 At SCF step   11       vres2   =  1.92E-15 < tolvrs=  1.00E-14 =>converged.

 Cartesian components of stress tensor (hartree/bohr^3)
  sigma(1 1)=  1.46133905E-04  sigma(3 2)=  0.00000000E+00
  sigma(2 2)=  5.18774731E-05  sigma(3 1)=  0.00000000E+00
  sigma(3 3)=  5.18774731E-05  sigma(2 1)=  0.00000000E+00


 Integrated total density in atomic spheres:
 -------------------------------------------
 Atom  Sphere radius  Integrated_up_density  Integrated_dn_density  Total(up+dn)   Diff(up-dn)
    1        2.00000             0.57091697             0.10114811    0.67206508    0.46976886
    2        2.00000             0.10260910             0.57428130    0.67689041   -0.47167220
 Note: Diff(up-dn) can be considered as a rough approximation of a local magnetic moment.


================================================================================

 ----iterations are completed or convergence reached----

 Mean square residual over all n,k,spin=   3.1998E-19; max=  3.1998E-19
   0.0000  0.0000  0.0000    1  3.19980E-19 kpt; spin; max resid(k); each band:
  3.20E-19
 reduced coordinates (array xred) for    2 atoms
      -0.166750000000      0.000000000000      0.000000000000
       0.166666666667      0.000000000000      0.000000000000
 rms dE/dt=  1.8484E-01; max dE/dt=  3.2015E-01; dE/dt below (all hartree)
    1      -0.320152337584      0.000000000000      0.000000000000
    2       0.320152337584      0.000000000000      0.000000000000

 cartesian coordinates (angstrom) at end:
    1     -1.05888359438859     0.00000000000000     0.00000000000000
    2      1.05835441718000     0.00000000000000     0.00000000000000

 cartesian forces (hartree/bohr) at end:
    1      0.02667936146534    -0.00000000000000    -0.00000000000000
    2     -0.02667936146534    -0.00000000000000    -0.00000000000000
 frms,max,avg= 1.5403337E-02 2.6679361E-02   0.000E+00  0.000E+00  0.000E+00 h/b

 cartesian forces (eV/Angstrom) at end:
    1      1.37190781119899    -0.00000000000000    -0.00000000000000
    2     -1.37190781119899    -0.00000000000000    -0.00000000000000
 frms,max,avg= 7.9207134E-01 1.3719078E+00   0.000E+00  0.000E+00  0.000E+00 e/A
 length scales= 12.000000000000 10.000000000000 10.000000000000 bohr
              =  6.350126503080  5.291772085900  5.291772085900 angstroms
 prteigrs : about to open file t12o_DS4_EIG
 Fermi (or HOMO) energy (hartree) =  -0.26530   Average Vxc (hartree)=  -0.09436
 Eigenvalues (hartree) for nkpt=   1  k points:
 kpt#   1, nband=  1, wtk=  1.00000, kpt=  0.0000  0.0000  0.0000 (reduced coord)
  -0.26530
 Total charge density [el/Bohr^3]
,     Maximum=    8.7834E-02  at reduced coord.    0.8333    0.0000    0.0000
,Next maximum=    8.7829E-02  at reduced coord.    0.1667    0.0000    0.0000
,     Minimum=    3.4608E-06  at reduced coord.    0.5000    0.3500    0.3500
,Next minimum=    3.4608E-06  at reduced coord.    0.5000    0.6500    0.3500
,  Integrated=    2.0000E+00
 Spin up density      [el/Bohr^3]
,     Maximum=    7.7834E-02  at reduced coord.    0.8333    0.0000    0.0000
,Next maximum=    6.4676E-02  at reduced coord.    0.8750    0.0000    0.0000
,     Minimum=    2.0588E-07  at reduced coord.    0.3333    0.5000    0.3000
,Next minimum=    2.0588E-07  at reduced coord.    0.3333    0.3000    0.5000
,  Integrated=    1.0000E+00
 Spin down density    [el/Bohr^3]
,     Maximum=    7.7831E-02  at reduced coord.    0.1667    0.0000    0.0000
,Next maximum=    6.4725E-02  at reduced coord.    0.1250    0.0000    0.0000
,     Minimum=    2.0623E-07  at reduced coord.    0.6667    0.5000    0.3000
,Next minimum=    2.0623E-07  at reduced coord.    0.6667    0.3000    0.5000
,  Integrated=    1.0000E+00
 Magnetization (spin up - spin down) [el/Bohr^3]
,     Maximum=    6.7833E-02  at reduced coord.    0.8333    0.0000    0.0000
,Next maximum=    5.4892E-02  at reduced coord.    0.7917    0.0000    0.0000
,     Minimum=   -6.7833E-02  at reduced coord.    0.1667    0.0000    0.0000
,Next minimum=   -5.4864E-02  at reduced coord.    0.1667    0.0500    0.0000
,  Integrated=    0.0000E+00
 Relative magnetization (=zeta, between -1 and 1)
,     Maximum=    9.5427E-01  at reduced coord.    0.6667    0.5000    0.7000
,Next maximum=    9.5427E-01  at reduced coord.    0.6667    0.7000    0.5000
,     Minimum=   -9.5431E-01  at reduced coord.    0.3333    0.5000    0.3000
,Next minimum=   -9.5431E-01  at reduced coord.    0.3333    0.3000    0.5000

--------------------------------------------------------------------------------
 Components of total free energy (in Hartree) :

    Kinetic energy  =  6.44987506834711E-01
    Hartree energy  =  3.01882791963916E-01
    XC energy       = -4.74938960625949E-01
    Ewald energy    = -2.59556025206874E-01
    PspCore energy  =  1.39956766161846E-04
    Loc. psp. energy= -1.15734724687463E+00
    NL   psp  energy=  0.00000000000000E+00
    >>>>>>>>> Etotal= -9.44831977142661E-01

 Other information on the energy :
    Total energy(eV)= -2.57101856132317E+01 ; Band energy (Ha)=  -5.3060355014E-01
--------------------------------------------------------------------------------

 Cartesian components of stress tensor (hartree/bohr^3)
  sigma(1 1)=  1.46133905E-04  sigma(3 2)=  0.00000000E+00
  sigma(2 2)=  5.18774731E-05  sigma(3 1)=  0.00000000E+00
  sigma(3 3)=  5.18774731E-05  sigma(2 1)=  0.00000000E+00

-Cartesian components of stress tensor (GPa)         [Pressure= -2.4507E+00 GPa]
- sigma(1 1)=  4.29940718E+00  sigma(3 2)=  0.00000000E+00
- sigma(2 2)=  1.52628770E+00  sigma(3 1)=  0.00000000E+00
- sigma(3 3)=  1.52628770E+00  sigma(2 1)=  0.00000000E+00

================================================================================
== DATASET  5 ==================================================================
-   nproc =    1

 mkfilename : getwfk/=0, take file _WFK from output of DATASET   1.

 Exchange-correlation functional for the present dataset will be:
  LDA: new Teter (4/93) with spin-polarized option - ixc=1
 Citation for XC functional:
  S. Goedecker, M. Teter, J. Huetter, PRB 54, 1703 (1996)

 Real(R)+Recip(G) space primitive vectors, cartesian coordinates (Bohr,Bohr^-1):
 R(1)= 12.0000000  0.0000000  0.0000000  G(1)=  0.0833333  0.0000000  0.0000000
 R(2)=  0.0000000 10.0000000  0.0000000  G(2)=  0.0000000  0.1000000  0.0000000
 R(3)=  0.0000000  0.0000000 10.0000000  G(3)=  0.0000000  0.0000000  0.1000000
 Unit cell volume ucvol=  1.2000000E+03 bohr^3
 Angles (23,13,12)=  9.00000000E+01  9.00000000E+01  9.00000000E+01 degrees

 getcut: wavevector=  0.0000  0.0000  0.0000  ngfft=  24  20  20
         ecut(hartree)=      4.500   => boxcut(ratio)=   2.09440
--------------------------------------------------------------------------------

-inwffil : will read wavefunctions from disk file t12o_DS1_WFK
P newkpt: treating      1 bands with npw=     280 for ikpt=   1 by node    0

_setup2: Arith. and geom. avg. npw (full set) are     559.000     559.000

================================================================================

     iter   Etot(hartree)      deltaE(h)  residm     vres2
 ETOT  1 -0.94488541110208    -9.449E-01 1.230E-11 2.214E-05
 ETOT  2 -0.94488541972231    -8.620E-09 1.293E-13 4.365E-06
 ETOT  3 -0.94488542177728    -2.055E-09 9.417E-12 2.599E-07
 ETOT  4 -0.94488542234716    -5.699E-10 1.887E-12 1.157E-07
 ETOT  5 -0.94488542301493    -6.678E-10 1.087E-11 1.225E-07
 ETOT  6 -0.94488542308626    -7.133E-11 6.118E-14 2.799E-09
 ETOT  7 -0.94488542308858    -2.319E-12 2.848E-14 2.218E-09
 ETOT  8 -0.94488542308938    -8.031E-13 2.879E-16 2.543E-11
 ETOT  9 -0.94488542308939    -7.994E-15 5.496E-17 2.293E-13
 ETOT 10 -0.94488542308941    -1.554E-14 1.942E-18 1.113E-13
 ETOT 11 -0.94488542308941    -3.553E-15 3.565E-19 2.089E-15

 At SCF step   11       vres2   =  2.09E-15 < tolvrs=  1.00E-14 =>converged.

 Cartesian components of stress tensor (hartree/bohr^3)
  sigma(1 1)=  1.46325884E-04  sigma(3 2)=  0.00000000E+00
  sigma(2 2)=  5.18726413E-05  sigma(3 1)=  0.00000000E+00
  sigma(3 3)=  5.18726413E-05  sigma(2 1)=  0.00000000E+00


 Integrated total density in atomic spheres:
 -------------------------------------------
 Atom  Sphere radius  Integrated_up_density  Integrated_dn_density  Total(up+dn)   Diff(up-dn)
    1        2.00000             0.57106980             0.10243390    0.67350370    0.46863590
    2        2.00000             0.10296267             0.57395782    0.67692049   -0.47099516
 Note: Diff(up-dn) can be considered as a rough approximation of a local magnetic moment.


================================================================================

 ----iterations are completed or convergence reached----

 Mean square residual over all n,k,spin=   3.5653E-19; max=  3.5653E-19
   0.0000  0.0000  0.0000    1  3.56526E-19 kpt; spin; max resid(k); each band:
  3.57E-19
 reduced coordinates (array xred) for    2 atoms
      -0.166583333333      0.000000000000      0.000000000000
       0.166666666667      0.000000000000      0.000000000000
 rms dE/dt=  1.8544E-01; max dE/dt=  3.2120E-01; dE/dt below (all hartree)
    1      -0.321199521026      0.000000000000      0.000000000000
    2       0.321199521026      0.000000000000      0.000000000000

 cartesian coordinates (angstrom) at end:
    1     -1.05782523997141     0.00000000000000     0.00000000000000
    2      1.05835441718000     0.00000000000000     0.00000000000000

 cartesian forces (hartree/bohr) at end:
    1      0.02676662675220    -0.00000000000000    -0.00000000000000
    2     -0.02676662675220    -0.00000000000000    -0.00000000000000
 frms,max,avg= 1.5453719E-02 2.6766627E-02   0.000E+00  0.000E+00  0.000E+00 h/b

 cartesian forces (eV/Angstrom) at end:
    1      1.37639517229431    -0.00000000000000    -0.00000000000000
    2     -1.37639517229431    -0.00000000000000    -0.00000000000000
 frms,max,avg= 7.9466212E-01 1.3763952E+00   0.000E+00  0.000E+00  0.000E+00 e/A
 length scales= 12.000000000000 10.000000000000 10.000000000000 bohr
              =  6.350126503080  5.291772085900  5.291772085900 angstroms
 prteigrs : about to open file t12o_DS5_EIG
 Fermi (or HOMO) energy (hartree) =  -0.26531   Average Vxc (hartree)=  -0.09436
 Eigenvalues (hartree) for nkpt=   1  k points:
 kpt#   1, nband=  1, wtk=  1.00000, kpt=  0.0000  0.0000  0.0000 (reduced coord)
  -0.26531
 Total charge density [el/Bohr^3]
,     Maximum=    8.7812E-02  at reduced coord.    0.1667    0.0000    0.0000
,Next maximum=    8.7807E-02  at reduced coord.    0.8333    0.0000    0.0000
,     Minimum=    3.4543E-06  at reduced coord.    0.5000    0.3500    0.3500
,Next minimum=    3.4543E-06  at reduced coord.    0.5000    0.6500    0.3500
,  Integrated=    2.0000E+00
 Spin up density      [el/Bohr^3]
,     Maximum=    7.7774E-02  at reduced coord.    0.8333    0.0000    0.0000
,Next maximum=    6.4737E-02  at reduced coord.    0.8750    0.0000    0.0000
,     Minimum=    2.0750E-07  at reduced coord.    0.3333    0.5000    0.3000
,Next minimum=    2.0750E-07  at reduced coord.    0.3333    0.3000    0.5000
,  Integrated=    1.0000E+00
 Spin down density    [el/Bohr^3]
,     Maximum=    7.7776E-02  at reduced coord.    0.1667    0.0000    0.0000
,Next maximum=    6.4688E-02  at reduced coord.    0.1250    0.0000    0.0000
,     Minimum=    2.0713E-07  at reduced coord.    0.6667    0.5000    0.3000
,Next minimum=    2.0713E-07  at reduced coord.    0.6667    0.3000    0.5000
,  Integrated=    1.0000E+00
 Magnetization (spin up - spin down) [el/Bohr^3]
,     Maximum=    6.7740E-02  at reduced coord.    0.8333    0.0000    0.0000
,Next maximum=    5.4789E-02  at reduced coord.    0.8333    0.0000    0.9500
,     Minimum=   -6.7740E-02  at reduced coord.    0.1667    0.0000    0.0000
,Next minimum=   -5.4789E-02  at reduced coord.    0.1667    0.0500    0.0000
,  Integrated=    0.0000E+00
 Relative magnetization (=zeta, between -1 and 1)
,     Maximum=    9.5394E-01  at reduced coord.    0.6667    0.5000    0.7000
,Next maximum=    9.5394E-01  at reduced coord.    0.6667    0.7000    0.5000
,     Minimum=   -9.5390E-01  at reduced coord.    0.3333    0.5000    0.3000
,Next minimum=   -9.5390E-01  at reduced coord.    0.3333    0.3000    0.5000

--------------------------------------------------------------------------------
 Components of total free energy (in Hartree) :

    Kinetic energy  =  6.44797231916756E-01
    Hartree energy  =  3.01981220504398E-01
    XC energy       = -4.74868447737370E-01
    Ewald energy    = -2.59454586882920E-01
    PspCore energy  =  1.39956766161846E-04
    Loc. psp. energy= -1.15748079765643E+00
    NL   psp  energy=  0.00000000000000E+00
    >>>>>>>>> Etotal= -9.44885423089409E-01

 Other information on the energy :
    Total energy(eV)= -2.57116399514044E+01 ; Band energy (Ha)=  -5.3062855865E-01
--------------------------------------------------------------------------------

 Cartesian components of stress tensor (hartree/bohr^3)
  sigma(1 1)=  1.46325884E-04  sigma(3 2)=  0.00000000E+00
  sigma(2 2)=  5.18726413E-05  sigma(3 1)=  0.00000000E+00
  sigma(3 3)=  5.18726413E-05  sigma(2 1)=  0.00000000E+00

-Cartesian components of stress tensor (GPa)         [Pressure= -2.4524E+00 GPa]
- sigma(1 1)=  4.30505542E+00  sigma(3 2)=  0.00000000E+00
- sigma(2 2)=  1.52614554E+00  sigma(3 1)=  0.00000000E+00
- sigma(3 3)=  1.52614554E+00  sigma(2 1)=  0.00000000E+00

================================================================================
== DATASET  6 ==================================================================
-   nproc =    1

 mkfilename : getwfk/=0, take file _WFK from output of DATASET   3.

 Exchange-correlation functional for the present dataset will be:
  LDA: new Teter (4/93) with spin-polarized option - ixc=1
 Citation for XC functional:
  S. Goedecker, M. Teter, J. Huetter, PRB 54, 1703 (1996)

 Real(R)+Recip(G) space primitive vectors, cartesian coordinates (Bohr,Bohr^-1):
 R(1)= 12.0000000  0.0000000  0.0000000  G(1)=  0.0833333  0.0000000  0.0000000
 R(2)=  0.0000000 10.0000000  0.0000000  G(2)=  0.0000000  0.1000000  0.0000000
 R(3)=  0.0000000  0.0000000 10.0000000  G(3)=  0.0000000  0.0000000  0.1000000
 Unit cell volume ucvol=  1.2000000E+03 bohr^3
 Angles (23,13,12)=  9.00000000E+01  9.00000000E+01  9.00000000E+01 degrees
 setup1 : take into account q-point for computing boxcut.

 getcut: wavevector=  0.0000  0.0000  0.0000  ngfft=  24  20  20
         ecut(hartree)=      4.500   => boxcut(ratio)=   2.09440
--------------------------------------------------------------------------------

-inwffil : will read wavefunctions from disk file t12o_DS3_WFK
- newkpt: read input wf with ikpt,npw=   1     280, make ikpt,npw=   1     559
- newkpt: read input wf with ikpt,npw=   1     280, make ikpt,npw=   1     559


 ==>  initialize data related to q vector <== 

 The list of irreducible perturbations for this q vector is:
    1)    idir= 1    ipert=   1

================================================================================

 The perturbation idir=   1  ipert=   2 is
 symmetric of a previously calculated perturbation.
 So, its SCF calculation is not needed.


--------------------------------------------------------------------------------
 Perturbation wavevector (in red.coord.)   0.000000  0.000000  0.000000
 Perturbation : displacement of atom   1   along direction   1
 Found     8 symmetries that leave the perturbation invariant.
 symkpt : not enough symmetry to change the number of k points.

--------------------------------------------------------------------------------

-inwffil : will read wavefunctions from disk file t12o_DS3_WFK
- newkpt: read input wf with ikpt,npw=   1     280, make ikpt,npw=   1     559
- newkpt: read input wf with ikpt,npw=   1     280, make ikpt,npw=   1     559

--------------------------------------------------------------------------------

-inwffil : will read wavefunctions from disk file t12o_DS3_WFK
- newkpt: read input wf with ikpt,npw=   1     280, make ikpt,npw=   1     559
- newkpt: read input wf with ikpt,npw=   1     280, make ikpt,npw=   1     559

 Initialisation of the first-order wave-functions :
  ireadwf=   0
P newkpt: treating      1 bands with npw=     559 for ikpt=   1 by node    0
P newkpt: treating      1 bands with npw=     559 for ikpt=   1 by node    0


     iter   2DEtotal(Ha)        deltaE(Ha) residm    vres2
-ETOT  1  -2.1168713549224     -5.560E+01 1.316E-01 2.423E+03
 ETOT  2  -5.2278064118774     -3.111E+00 1.563E-02 3.486E+02
 ETOT  3  -5.3960980786793     -1.683E-01 4.177E-04 3.731E+02
 ETOT  4  -5.8678409928089     -4.717E-01 1.241E-03 9.486E+01
 ETOT  5  -6.1715959436292     -3.038E-01 2.771E-03 2.458E+01
 ETOT  6  -6.2794085224098     -1.078E-01 6.363E-04 5.062E+00
 ETOT  7  -6.2794436134526     -3.509E-05 2.146E-06 9.235E+00
 ETOT  8  -6.2793152823851      1.283E-04 3.484E-07 1.094E+01
 ETOT  9  -6.2794536697592     -1.384E-04 1.640E-06 7.411E+00
 ETOT 10  -6.2794650069891     -1.134E-05 7.605E-08 8.185E+00
 ETOT 11  -6.2821879130270     -2.723E-03 1.120E-05 2.301E+00
 ETOT 12  -6.2828384031972     -6.505E-04 5.536E-06 3.215E-01
 ETOT 13  -6.2829132566346     -7.485E-05 1.920E-07 9.942E-02
 ETOT 14  -6.2829526795302     -3.942E-05 2.914E-07 3.770E-03
 ETOT 15  -6.2829620135576     -9.334E-06 1.935E-08 9.361E-04
 ETOT 16  -6.2829662203145     -4.207E-06 3.556E-08 8.802E-03
 ETOT 17  -6.2829672918972     -1.072E-06 2.412E-09 1.946E-03
 ETOT 18  -6.2829676465299     -3.546E-07 4.399E-09 4.720E-05
 ETOT 19  -6.2829676532207     -6.691E-09 5.791E-11 8.494E-06
 ETOT 20  -6.2829676490210      4.200E-09 2.922E-11 6.729E-05
 ETOT 21  -6.2829676538228     -4.802E-09 9.884E-12 3.462E-06
 ETOT 22  -6.2829676550193     -1.197E-09 3.496E-12 9.125E-07
 ETOT 23  -6.2829676551526     -1.333E-10 2.695E-13 1.493E-06
 ETOT 24  -6.2829676555215     -3.689E-10 8.879E-13 3.723E-07
 ETOT 25  -6.2829676559049     -3.834E-10 2.133E-12 7.104E-08
 ETOT 26  -6.2829676559562     -5.133E-11 3.611E-13 8.447E-09

 At SCF step   26       vres2   =  8.45E-09 < tolvrs=  1.00E-08 =>converged.
================================================================================

 ----iterations are completed or convergence reached----

 Mean square residual over all n,k,spin=   2.4948E-13; max=  3.6112E-13
   0.0000  0.0000  0.0000    1  3.61124E-13 kpt; spin; max resid(k); each band:
  3.61E-13
   0.0000  0.0000  0.0000    2  1.37844E-13 kpt; spin; max resid(k); each band:
  1.38E-13

 Thirteen components of 2nd-order total energy (hartree) are
 1,2,3: 0th-order hamiltonian combined with 1st-order wavefunctions
     kin0=   9.22413396E+01 eigvalue=   3.27569853E+01  local=  -6.53918746E+01
 4,5,6: 1st-order hamiltonian combined with 1st and 0th-order wfs
 loc psp =  -1.19523181E+02  Hartree=   1.79488639E+01     xc=  -1.77937259E+01
 note that "loc psp" includes a xc core correction that could be resolved
 7,8,9: eventually, occupation + non-local contributions
    edocc=   0.00000000E+00     enl0=   0.00000000E+00   enl1=   0.00000000E+00
 1-9 gives the relaxation energy (to be shifted if some occ is /=2.0)
   erelax=  -5.97615925E+01
 10,11,12 Non-relaxation  contributions : frozen-wavefunctions and Ewald
 fr.local=   4.81858264E+01 fr.nonlo=   0.00000000E+00  Ewald=   5.29279845E+00
 13,14 Frozen wf xc core corrections (1) and (2)
 frxc 1  =   0.00000000E+00  frxc 2 =   0.00000000E+00
 Resulting in :
 2DEtotal=   -0.6282967656E+01 Ha. Also 2DEtotal=   -0.170968244666E+03 eV
    (2DErelax=   -5.9761592483E+01 Ha. 2DEnonrelax=    5.3478624827E+01 Ha)
    (  non-var. 2DEtotal :   -6.2829655049E+00 Ha)

================================================================================

 ---- first-order wavefunction calculations are completed ----


 ==> Compute Derivative Database <==
  
  2nd-order matrix (non-cartesian coordinates, masses not included,
   asr not included )
     j1       j2             matrix element
  dir pert dir pert     real part     imaginary part
  
   1    1   1    1        -6.2829655049         0.0000000000
   1    1   2    1         0.0000000000         0.0000000000
   1    1   3    1         0.0000000000         0.0000000000
[...]
            fcart3     2.6722962871E-02 -0.0000000000E+00 -0.0000000000E+00
                      -2.6722962871E-02 -0.0000000000E+00 -0.0000000000E+00
            fcart4     2.6679361465E-02 -0.0000000000E+00 -0.0000000000E+00
                      -2.6679361465E-02 -0.0000000000E+00 -0.0000000000E+00
            fcart5     2.6766626752E-02 -0.0000000000E+00 -0.0000000000E+00
                      -2.6766626752E-02 -0.0000000000E+00 -0.0000000000E+00
            fcart6     0.0000000000E+00  0.0000000000E+00  0.0000000000E+00
                       0.0000000000E+00  0.0000000000E+00  0.0000000000E+00
-          fftalg         112
           getwfk1          0
           getwfk2          1
           getwfk3          1
           getwfk4          1
           getwfk5          1
           getwfk6          3
             iscf           5
           istwfk1       2
           istwfk2       1
           istwfk3       2
           istwfk4       2
           istwfk5       2
           istwfk6       1
           jdtset        1    2    3    4    5    6
           kptopt           0
P           mkmem           1
P          mkqmem           1
P          mk1mem           1
            natom           2
            nband1          1
            nband2          1
            nband3          1
            nband4          1
            nband5          1
            nband6          1
           ndtset           6
            ngfft          24      20      20
             nkpt           1
             nqpt1          0
             nqpt2          1
             nqpt3          0
             nqpt4          0
             nqpt5          0
             nqpt6          1
           nspden           2
           nsppol1          2
           nsppol2          2
           nsppol3          1
           nsppol4          1
           nsppol5          1
           nsppol6          2
            nstep          40
             nsym1          8
             nsym2          8
             nsym3         16
             nsym4         16
             nsym5         16
             nsym6         16
           ntypat           1
              occ1     1.000000
                       1.000000
              occ2     1.000000
                       1.000000
              occ3     2.000000
              occ4     2.000000
              occ5     2.000000
              occ6     1.000000
                       1.000000
        optdriver1          0
        optdriver2          1
        optdriver3          0
        optdriver4          0
        optdriver5          0
        optdriver6          1
        prtdensph1          0
        prtdensph2          0
        prtdensph3          1
        prtdensph4          1
        prtdensph5          1
        prtdensph6          0
        ptgroupma1          0
        ptgroupma2          0
        ptgroupma3         26
        ptgroupma4         26
        ptgroupma5         26
        ptgroupma6         26
          rfatpol           1       2
            rfdir           1       0       0
           rfphon1          0
           rfphon2          1
           rfphon3          0
           rfphon4          0
           rfphon5          0
           rfphon6          1
          spgroup1         99
          spgroup2         99
          spgroup3        123
          spgroup4        123
          spgroup5        123
          spgroup6        123
           spinat1     0.0000000000E+00  0.0000000000E+00  9.9000000000E-01
                       0.0000000000E+00  0.0000000000E+00 -1.0000000000E+00
           spinat2     0.0000000000E+00  0.0000000000E+00  9.9000000000E-01
                       0.0000000000E+00  0.0000000000E+00 -1.0000000000E+00
           spinat3     0.0000000000E+00  0.0000000000E+00  1.0000000000E+00
                       0.0000000000E+00  0.0000000000E+00 -1.0000000000E+00
           spinat4     0.0000000000E+00  0.0000000000E+00  1.0000000000E+00
                       0.0000000000E+00  0.0000000000E+00 -1.0000000000E+00
           spinat5     0.0000000000E+00  0.0000000000E+00  1.0000000000E+00
                       0.0000000000E+00  0.0000000000E+00 -1.0000000000E+00
           spinat6     0.0000000000E+00  0.0000000000E+00  1.0000000000E+00
                       0.0000000000E+00  0.0000000000E+00 -1.0000000000E+00
           strten1     1.4622984938E-04  5.1875056350E-05  5.1875056350E-05
                       0.0000000000E+00  0.0000000000E+00  0.0000000000E+00
           strten2     0.0000000000E+00  0.0000000000E+00  0.0000000000E+00
                       0.0000000000E+00  0.0000000000E+00  0.0000000000E+00
           strten3     1.4622984956E-04  5.1875056331E-05  5.1875056331E-05
                       0.0000000000E+00  0.0000000000E+00  0.0000000000E+00
           strten4     1.4613390456E-04  5.1877473145E-05  5.1877473145E-05
                       0.0000000000E+00  0.0000000000E+00  0.0000000000E+00
           strten5     1.4632588406E-04  5.1872641270E-05  5.1872641270E-05
                       0.0000000000E+00  0.0000000000E+00  0.0000000000E+00
           strten6     0.0000000000E+00  0.0000000000E+00  0.0000000000E+00
                       0.0000000000E+00  0.0000000000E+00  0.0000000000E+00
           symafm1       1    1    1    1    1    1    1    1
           symafm2       1    1    1    1    1    1    1    1
           symafm3       1   -1   -1    1    1   -1   -1    1    1   -1
                        -1    1    1   -1   -1    1
           symafm4       1   -1   -1    1    1   -1   -1    1    1   -1
                        -1    1    1   -1   -1    1
           symafm5       1   -1   -1    1    1   -1   -1    1    1   -1
                        -1    1    1   -1   -1    1
           symafm6       1   -1   -1    1    1   -1   -1    1    1   -1
                        -1    1    1   -1   -1    1
           symrel1     1  0  0   0  1  0   0  0  1       1  0  0   0  1  0   0  0 -1
                       1  0  0   0 -1  0   0  0 -1       1  0  0   0 -1  0   0  0  1
                       1  0  0   0  0  1   0  1  0       1  0  0   0  0  1   0 -1  0
                       1  0  0   0  0 -1   0 -1  0       1  0  0   0  0 -1   0  1  0
           symrel2     1  0  0   0  1  0   0  0  1       1  0  0   0  1  0   0  0 -1
                       1  0  0   0 -1  0   0  0 -1       1  0  0   0 -1  0   0  0  1
                       1  0  0   0  0  1   0  1  0       1  0  0   0  0  1   0 -1  0
                       1  0  0   0  0 -1   0 -1  0       1  0  0   0  0 -1   0  1  0
           symrel3     1  0  0   0  1  0   0  0  1      -1  0  0   0 -1  0   0  0 -1
                      -1  0  0   0 -1  0   0  0  1       1  0  0   0  1  0   0  0 -1
                       1  0  0   0 -1  0   0  0 -1      -1  0  0   0  1  0   0  0  1
                      -1  0  0   0  1  0   0  0 -1       1  0  0   0 -1  0   0  0  1
                       1  0  0   0  0  1   0  1  0      -1  0  0   0  0 -1   0 -1  0
                      -1  0  0   0  0 -1   0  1  0       1  0  0   0  0  1   0 -1  0
                       1  0  0   0  0 -1   0 -1  0      -1  0  0   0  0  1   0  1  0
                      -1  0  0   0  0  1   0 -1  0       1  0  0   0  0 -1   0  1  0
           symrel4     1  0  0   0  1  0   0  0  1      -1  0  0   0 -1  0   0  0 -1
                      -1  0  0   0 -1  0   0  0  1       1  0  0   0  1  0   0  0 -1
                       1  0  0   0 -1  0   0  0 -1      -1  0  0   0  1  0   0  0  1
                      -1  0  0   0  1  0   0  0 -1       1  0  0   0 -1  0   0  0  1
                       1  0  0   0  0  1   0  1  0      -1  0  0   0  0 -1   0 -1  0
                      -1  0  0   0  0 -1   0  1  0       1  0  0   0  0  1   0 -1  0
                       1  0  0   0  0 -1   0 -1  0      -1  0  0   0  0  1   0  1  0
                      -1  0  0   0  0  1   0 -1  0       1  0  0   0  0 -1   0  1  0
           symrel5     1  0  0   0  1  0   0  0  1      -1  0  0   0 -1  0   0  0 -1
                      -1  0  0   0 -1  0   0  0  1       1  0  0   0  1  0   0  0 -1
                       1  0  0   0 -1  0   0  0 -1      -1  0  0   0  1  0   0  0  1
                      -1  0  0   0  1  0   0  0 -1       1  0  0   0 -1  0   0  0  1
                       1  0  0   0  0  1   0  1  0      -1  0  0   0  0 -1   0 -1  0
                      -1  0  0   0  0 -1   0  1  0       1  0  0   0  0  1   0 -1  0
                       1  0  0   0  0 -1   0 -1  0      -1  0  0   0  0  1   0  1  0
                      -1  0  0   0  0  1   0 -1  0       1  0  0   0  0 -1   0  1  0
           symrel6     1  0  0   0  1  0   0  0  1      -1  0  0   0 -1  0   0  0 -1
                      -1  0  0   0 -1  0   0  0  1       1  0  0   0  1  0   0  0 -1
                       1  0  0   0 -1  0   0  0 -1      -1  0  0   0  1  0   0  0  1
                      -1  0  0   0  1  0   0  0 -1       1  0  0   0 -1  0   0  0  1
                       1  0  0   0  0  1   0  1  0      -1  0  0   0  0 -1   0 -1  0
                      -1  0  0   0  0 -1   0  1  0       1  0  0   0  0  1   0 -1  0
                       1  0  0   0  0 -1   0 -1  0      -1  0  0   0  0  1   0  1  0
                      -1  0  0   0  0  1   0 -1  0       1  0  0   0  0 -1   0  1  0
            tnons1     0.0000000  0.0000000  0.0000000     0.0000000  0.0000000  0.0000000
                       0.0000000  0.0000000  0.0000000     0.0000000  0.0000000  0.0000000
                       0.0000000  0.0000000  0.0000000     0.0000000  0.0000000  0.0000000
                       0.0000000  0.0000000  0.0000000     0.0000000  0.0000000  0.0000000
            tnons2     0.0000000  0.0000000  0.0000000     0.0000000  0.0000000  0.0000000
                       0.0000000  0.0000000  0.0000000     0.0000000  0.0000000  0.0000000
                       0.0000000  0.0000000  0.0000000     0.0000000  0.0000000  0.0000000
                       0.0000000  0.0000000  0.0000000     0.0000000  0.0000000  0.0000000
            tnons3     0.0000000  0.0000000  0.0000000     0.0000000  0.0000000  0.0000000
                       0.0000000  0.0000000  0.0000000     0.0000000  0.0000000  0.0000000
                       0.0000000  0.0000000  0.0000000     0.0000000  0.0000000  0.0000000
                       0.0000000  0.0000000  0.0000000     0.0000000  0.0000000  0.0000000
                       0.0000000  0.0000000  0.0000000     0.0000000  0.0000000  0.0000000
                       0.0000000  0.0000000  0.0000000     0.0000000  0.0000000  0.0000000
                       0.0000000  0.0000000  0.0000000     0.0000000  0.0000000  0.0000000
                       0.0000000  0.0000000  0.0000000     0.0000000  0.0000000  0.0000000
            tnons4     0.0000000  0.0000000  0.0000000    -0.0000833  0.0000000  0.0000000
                      -0.0000833  0.0000000  0.0000000     0.0000000  0.0000000  0.0000000
                       0.0000000  0.0000000  0.0000000    -0.0000833  0.0000000  0.0000000
                      -0.0000833  0.0000000  0.0000000     0.0000000  0.0000000  0.0000000
                       0.0000000  0.0000000  0.0000000    -0.0000833  0.0000000  0.0000000
                      -0.0000833  0.0000000  0.0000000     0.0000000  0.0000000  0.0000000
                       0.0000000  0.0000000  0.0000000    -0.0000833  0.0000000  0.0000000
                      -0.0000833  0.0000000  0.0000000     0.0000000  0.0000000  0.0000000
            tnons5     0.0000000  0.0000000  0.0000000     0.0000833  0.0000000  0.0000000
                       0.0000833  0.0000000  0.0000000     0.0000000  0.0000000  0.0000000
                       0.0000000  0.0000000  0.0000000     0.0000833  0.0000000  0.0000000
                       0.0000833  0.0000000  0.0000000     0.0000000  0.0000000  0.0000000
                       0.0000000  0.0000000  0.0000000     0.0000833  0.0000000  0.0000000
                       0.0000833  0.0000000  0.0000000     0.0000000  0.0000000  0.0000000
                       0.0000000  0.0000000  0.0000000     0.0000833  0.0000000  0.0000000
                       0.0000833  0.0000000  0.0000000     0.0000000  0.0000000  0.0000000
            tnons6     0.0000000  0.0000000  0.0000000     0.0000000  0.0000000  0.0000000
                       0.0000000  0.0000000  0.0000000     0.0000000  0.0000000  0.0000000
                       0.0000000  0.0000000  0.0000000     0.0000000  0.0000000  0.0000000
                       0.0000000  0.0000000  0.0000000     0.0000000  0.0000000  0.0000000
                       0.0000000  0.0000000  0.0000000     0.0000000  0.0000000  0.0000000
                       0.0000000  0.0000000  0.0000000     0.0000000  0.0000000  0.0000000
                       0.0000000  0.0000000  0.0000000     0.0000000  0.0000000  0.0000000
                       0.0000000  0.0000000  0.0000000     0.0000000  0.0000000  0.0000000
           tolvrs1     1.00000000E-14
           tolvrs2     1.00000000E-08
           tolvrs3     1.00000000E-14
           tolvrs4     1.00000000E-14
           tolvrs5     1.00000000E-14
           tolvrs6     1.00000000E-08
            typat      1  1
           xangst1    -1.0583544172E+00  0.0000000000E+00  0.0000000000E+00
                       1.0583544172E+00  0.0000000000E+00  0.0000000000E+00
           xangst2    -1.0583544172E+00  0.0000000000E+00  0.0000000000E+00
                       1.0583544172E+00  0.0000000000E+00  0.0000000000E+00
           xangst3    -1.0583544172E+00  0.0000000000E+00  0.0000000000E+00
                       1.0583544172E+00  0.0000000000E+00  0.0000000000E+00
           xangst4    -1.0588835944E+00  0.0000000000E+00  0.0000000000E+00
                       1.0583544172E+00  0.0000000000E+00  0.0000000000E+00
           xangst5    -1.0578252400E+00  0.0000000000E+00  0.0000000000E+00
                       1.0583544172E+00  0.0000000000E+00  0.0000000000E+00
           xangst6    -1.0583544172E+00  0.0000000000E+00  0.0000000000E+00
                       1.0583544172E+00  0.0000000000E+00  0.0000000000E+00
            xcart1    -2.0000000000E+00  0.0000000000E+00  0.0000000000E+00
                       2.0000000000E+00  0.0000000000E+00  0.0000000000E+00
            xcart2    -2.0000000000E+00  0.0000000000E+00  0.0000000000E+00
                       2.0000000000E+00  0.0000000000E+00  0.0000000000E+00
            xcart3    -2.0000000000E+00  0.0000000000E+00  0.0000000000E+00
                       2.0000000000E+00  0.0000000000E+00  0.0000000000E+00
            xcart4    -2.0010000000E+00  0.0000000000E+00  0.0000000000E+00
                       2.0000000000E+00  0.0000000000E+00  0.0000000000E+00
            xcart5    -1.9990000000E+00  0.0000000000E+00  0.0000000000E+00
                       2.0000000000E+00  0.0000000000E+00  0.0000000000E+00
            xcart6    -2.0000000000E+00  0.0000000000E+00  0.0000000000E+00
                       2.0000000000E+00  0.0000000000E+00  0.0000000000E+00
             xred1    -1.6666666667E-01  0.0000000000E+00  0.0000000000E+00
                       1.6666666667E-01  0.0000000000E+00  0.0000000000E+00
             xred2    -1.6666666667E-01  0.0000000000E+00  0.0000000000E+00
                       1.6666666667E-01  0.0000000000E+00  0.0000000000E+00
             xred3    -1.6666666667E-01  0.0000000000E+00  0.0000000000E+00
                       1.6666666667E-01  0.0000000000E+00  0.0000000000E+00
             xred4    -1.6675000000E-01  0.0000000000E+00  0.0000000000E+00
                       1.6666666667E-01  0.0000000000E+00  0.0000000000E+00
             xred5    -1.6658333333E-01  0.0000000000E+00  0.0000000000E+00
                       1.6666666667E-01  0.0000000000E+00  0.0000000000E+00
             xred6    -1.6666666667E-01  0.0000000000E+00  0.0000000000E+00
                       1.6666666667E-01  0.0000000000E+00  0.0000000000E+00
            znucl        1.00000

================================================================================


- Timing analysis has been suppressed with timopt=0



================================================================================

 Suggested references for the acknowledgment of ABINIT usage.

 The users of ABINIT have little formal obligations with respect to the ABINIT group
 (those specified in the GNU General Public License, http://www.gnu.org/copyleft/gpl.txt).
 However, it is common practice in the scientific literature,
 to acknowledge the efforts of people that have made the research possible.
 In this spirit, please find below suggested citations of work written by ABINIT developers,
 corresponding to implementations inside of ABINIT that you have used in the present run.
 Note also that it will be of great value to readers of publications presenting these results,
 to read papers enabling them to understand the theoretical formalism and details
 of the ABINIT implementation.
 For information on why they are suggested, see also http://www.abinit.org/about/?text=acknowledgments.

 [1] First-principles responses of solids to atomic displacements and homogeneous electric fields:,
 implementation of a conjugate-gradient algorithm. X. Gonze, Phys. Rev. B55, 10337 (1997).
 Comment : Non-vanishing rfphon and/or rfelfd, in the norm-conserving case.

 [2] Dynamical matrices, Born effective charges, dielectric permittivity tensors, and ,
 interatomic force constants from density-functional perturbation theory,
 X. Gonze and C. Lee, Phys. Rev. B55, 10355 (1997).
 Comment : Non-vanishing rfphon and/or rfelfd, in the norm-conserving case.

 [3] ABINIT : First-principles approach of materials and nanosystem properties.
 X. Gonze, B. Amadon, P.-M. Anglade, J.-M. Beuken, F. Bottin, P. Boulanger, F. Bruneval,
 D. Caliste, R. Caracas, M. Cote, T. Deutsch, L. Genovese, Ph. Ghosez, M. Giantomassi
 S. Goedecker, D.R. Hamann, P. Hermet, F. Jollet, G. Jomard, S. Leroux, M. Mancini, S. Mazevet,
 M.J.T. Oliveira, G. Onida, Y. Pouillon, T. Rangel, G.-M. Rignanese, D. Sangalli, R. Shaltaf,
 M. Torrent, M.J. Verstraete, G. Zerah, J.W. Zwanziger
 Computer Phys. Comm. 180, 2582-2615 (2009).
 Comment : the third generic paper describing the ABINIT project.
 Note that a version of this paper, that is not formatted for Computer Phys. Comm. 
 is available at http://www.abinit.org/about/ABINIT_CPC_v10.pdf .
 The licence allows the authors to put it on the Web.

 [4] A brief introduction to the ABINIT software package.
 X. Gonze, G.-M. Rignanese, M. Verstraete, J.-M. Beuken, Y. Pouillon, R. Caracas, F. Jollet,
 M. Torrent, G. Zerah, M. Mikami, Ph. Ghosez, M. Veithen, J.-Y. Raty, V. Olevano, F. Bruneval,
 L. Reining, R. Godby, G. Onida, D.R. Hamann, and D.C. Allan.
 Z. Kristallogr. 220, 558-562 (2005).
 Comment : the second generic paper describing the ABINIT project. Note that this paper
 should be cited especially if you are using the GW part of ABINIT, as several authors
 of this part are not in the list of authors of the first or third paper.
 The .pdf of the latter paper is available at http://www.abinit.org/about/zfk_0505-06_558-562.pdf.
 Note that it should not redistributed (Copyright by Oldenburg Wissenshaftverlag,
 the licence allows the authors to put it on the Web).


 And optionally :

 [5] First-principles computation of material properties : the ABINIT software project. 
 X. Gonze, J.-M. Beuken, R. Caracas, F. Detraux, M. Fuchs, G.-M. Rignanese, L. Sindic,
 M. Verstraete, G. Zerah, F. Jollet, M. Torrent, A. Roy, M. Mikami, Ph. Ghosez, J.-Y. Raty, D.C. Allan.
 Computational Materials Science 25, 478-492 (2002). http://dx.doi.org/10.1016/S0927-0256(02)00325-7
 Comment : the original paper describing the ABINIT project.
-
- Proc.   0 individual time (sec): cpu=          1.8  wall=          1.8

================================================================================

 Calculation completed.
.Delivered   42 WARNINGs and  12 COMMENTs to log file.
+Overall time at end (sec) : cpu=          1.8  wall=          1.8
