
.Version 7.10.4 of ABINIT 
.(MPI version, prepared for a x86_64_linux_gnu4.7 computer) 

.Copyright (C) 1998-2014 ABINIT group . 
 ABINIT comes with ABSOLUTELY NO WARRANTY.
 It is free software, and you are welcome to redistribute it
 under certain conditions (GNU General Public License,
 see ~abinit/COPYING or http://www.gnu.org/copyleft/gpl.txt).

 ABINIT is a project of the Universite Catholique de Louvain,
 Corning Inc. and other collaborators, see ~abinit/doc/developers/contributors.txt .
 Please read ~abinit/doc/users/acknowledgments.html for suggested
 acknowledgments of the ABINIT effort.
 For more information, see http://www.abinit.org .

.Starting date : Sun  1 Feb 2015.
- ( at 15h06 )
  
- input  file    -> t16.in
- output file    -> t16.out
- root for input  files -> t16i
- root for output files -> t16o


 DATASET    1 : space group Fd -3 m (#227); Bravais cF (face-center cubic)
================================================================================
 Values of the parameters that define the memory need for DATASET  1.
   intxc =         0  ionmov =         0    iscf =         5 xclevel =         2
  lmnmax =         2   lnmax =         2   mband =         4  mffmem =         1
P  mgfft =        16   mkmem =         2 mpssoang=         3     mpw =       188
  mqgrid =      3001   natom =         2    nfft =      4096    nkpt =         2
  nloalg =         4  nspden =         1 nspinor =         1  nsppol =         1
    nsym =        48  n1xccc =      2501  ntypat =         1  occopt =         1
================================================================================
P This job should need less than                       1.700 Mbytes of memory.
  Rough estimation (10% accuracy) of disk space for files :
_ WF disk file :      0.025 Mbytes ; DEN or POT disk file :      0.033 Mbytes.
================================================================================


 DATASET    2 : space group Fd -3 m (#227); Bravais cF (face-center cubic)
================================================================================
 Values of the parameters that define the memory need for DATASET  2 (RF).
   intxc =         0    iscf =        -3 xclevel =         2  lmnmax =         2
   lnmax =         2   mband =         4  mffmem =         1   mgfft =        16
P  mkmem =        16  mkqmem =        16  mk1mem =        16 mpssoang=         3
     mpw =       188  mqgrid =      3001   natom =         2    nfft =      4096
    nkpt =        16  nloalg =         4  nspden =         1 nspinor =         1
  nsppol =         1    nsym =        48  n1xccc =      2501  ntypat =         1
  occopt =         1
================================================================================
P This job should need less than                       2.028 Mbytes of memory.
  Rough estimation (10% accuracy) of disk space for files :
_ WF disk file :      0.186 Mbytes ; DEN or POT disk file :      0.033 Mbytes.
================================================================================


 DATASET    3 : space group Fd -3 m (#227); Bravais cF (face-center cubic)
================================================================================
 Values of the parameters that define the memory need for DATASET  3 (RF).
   intxc =         0    iscf =         5 xclevel =         2  lmnmax =         2
   lnmax =         2   mband =         4  mffmem =         1   mgfft =        16
P  mkmem =        16  mkqmem =        16  mk1mem =        16 mpssoang=         3
     mpw =       188  mqgrid =      3001   natom =         2    nfft =      4096
    nkpt =        16  nloalg =         4  nspden =         1 nspinor =         1
  nsppol =         1    nsym =        48  n1xccc =      2501  ntypat =         1
  occopt =         1
================================================================================
P This job should need less than                       2.340 Mbytes of memory.
  Rough estimation (10% accuracy) of disk space for files :
_ WF disk file :      0.186 Mbytes ; DEN or POT disk file :      0.033 Mbytes.
================================================================================


 DATASET    4 : space group R-3 m (#166); Bravais hR (rhombohedral)
================================================================================
 Values of the parameters that define the memory need for DATASET  4.
   intxc =         0  ionmov =         0    iscf =         5 xclevel =         2
  lmnmax =         2   lnmax =         2   mband =         4  mffmem =         1
P  mgfft =        16   mkmem =         5 mpssoang=         3     mpw =       188
  mqgrid =      3001   natom =         2    nfft =      4096    nkpt =         5
  nloalg =         4  nspden =         1 nspinor =         1  nsppol =         1
    nsym =        12  n1xccc =      2501  ntypat =         1  occopt =         1
================================================================================
P This job should need less than                       1.740 Mbytes of memory.
  Rough estimation (10% accuracy) of disk space for files :
_ WF disk file :      0.059 Mbytes ; DEN or POT disk file :      0.033 Mbytes.
================================================================================


 DATASET    5 : space group R-3 m (#166); Bravais hR (rhombohedral)
================================================================================
 Values of the parameters that define the memory need for DATASET  5.
   intxc =         0  ionmov =         0    iscf =         5 xclevel =         2
  lmnmax =         2   lnmax =         2   mband =         4  mffmem =         1
P  mgfft =        16   mkmem =         5 mpssoang=         3     mpw =       188
  mqgrid =      3001   natom =         2    nfft =      4096    nkpt =         5
  nloalg =         4  nspden =         1 nspinor =         1  nsppol =         1
    nsym =        12  n1xccc =      2501  ntypat =         1  occopt =         1
================================================================================
P This job should need less than                       1.740 Mbytes of memory.
  Rough estimation (10% accuracy) of disk space for files :
_ WF disk file :      0.059 Mbytes ; DEN or POT disk file :      0.033 Mbytes.
================================================================================

--------------------------------------------------------------------------------
------------- Echo of variables that govern the present computation ------------
--------------------------------------------------------------------------------
-
- outvars: echo of selected default values                                      
-   accesswff0 =  0 , fftalg0 =112 , wfoptalg0 =  0
-
- outvars: echo of global parameters not present in the input file              
-  max_nthreads =    0
-
 -outvars: echo values of preprocessed input variables --------
            acell      1.0260000000E+01  1.0260000000E+01  1.0260000000E+01 Bohr
              amu      2.80855000E+01
      chksymbreak           0
             ecut      6.00000000E+00 Hartree
-          fftalg         112
           getddk1          0
           getddk2          2
           getddk3          2
           getddk4          0
           getddk5          0
           getden1          0
           getden2          1
           getden3          0
           getden4          0
           getden5          0
           getwfk1          0
           getwfk2          1
           getwfk3          1
           getwfk4          1
           getwfk5          1
             iscf1          5
             iscf2         -3
             iscf3          5
             iscf4          5
             iscf5          5
              ixc          11
           jdtset        1    2    3    4    5
              kpt1    -2.50000000E-01  5.00000000E-01  0.00000000E+00
                      -2.50000000E-01  0.00000000E+00  0.00000000E+00
              kpt2    -2.50000000E-01  5.00000000E-01  0.00000000E+00
                       5.00000000E-01 -2.50000000E-01  0.00000000E+00
                      -2.50000000E-01 -2.50000000E-01  2.50000000E-01
                      -2.50000000E-01  0.00000000E+00  0.00000000E+00
                      -2.50000000E-01  2.50000000E-01  2.50000000E-01
                       5.00000000E-01  5.00000000E-01  2.50000000E-01
                      -2.50000000E-01  5.00000000E-01  5.00000000E-01
                       0.00000000E+00 -2.50000000E-01  0.00000000E+00
                       2.50000000E-01 -2.50000000E-01  2.50000000E-01
                       5.00000000E-01 -2.50000000E-01  5.00000000E-01
                      -2.50000000E-01 -2.50000000E-01 -2.50000000E-01
                       5.00000000E-01  0.00000000E+00  2.50000000E-01
                      -2.50000000E-01  0.00000000E+00  5.00000000E-01
                       0.00000000E+00  5.00000000E-01  2.50000000E-01
                       0.00000000E+00 -2.50000000E-01  5.00000000E-01
                       0.00000000E+00  0.00000000E+00  2.50000000E-01
              kpt3    -2.50000000E-01  5.00000000E-01  0.00000000E+00
                       5.00000000E-01 -2.50000000E-01  0.00000000E+00
                      -2.50000000E-01 -2.50000000E-01  2.50000000E-01
                      -2.50000000E-01  0.00000000E+00  0.00000000E+00
                      -2.50000000E-01  2.50000000E-01  2.50000000E-01
                       5.00000000E-01  5.00000000E-01  2.50000000E-01
                      -2.50000000E-01  5.00000000E-01  5.00000000E-01
                       0.00000000E+00 -2.50000000E-01  0.00000000E+00
                       2.50000000E-01 -2.50000000E-01  2.50000000E-01
                       5.00000000E-01 -2.50000000E-01  5.00000000E-01
                      -2.50000000E-01 -2.50000000E-01 -2.50000000E-01
                       5.00000000E-01  0.00000000E+00  2.50000000E-01
                      -2.50000000E-01  0.00000000E+00  5.00000000E-01
                       0.00000000E+00  5.00000000E-01  2.50000000E-01
                       0.00000000E+00 -2.50000000E-01  5.00000000E-01
                       0.00000000E+00  0.00000000E+00  2.50000000E-01
              kpt4    -2.50000000E-01  5.00000000E-01  0.00000000E+00
                      -2.50000000E-01 -2.50000000E-01  2.50000000E-01
                      -2.50000000E-01  0.00000000E+00  0.00000000E+00
                       5.00000000E-01  5.00000000E-01  2.50000000E-01
                      -2.50000000E-01 -2.50000000E-01 -2.50000000E-01
              kpt5    -2.50000000E-01  5.00000000E-01  0.00000000E+00
                      -2.50000000E-01 -2.50000000E-01  2.50000000E-01
                      -2.50000000E-01  0.00000000E+00  0.00000000E+00
                       5.00000000E-01  5.00000000E-01  2.50000000E-01
                      -2.50000000E-01 -2.50000000E-01 -2.50000000E-01
           kptopt1          1
           kptopt2          2
           kptopt3          2
           kptopt4          1
           kptopt5          1
         kptrlatt        2   -2    2     -2    2    2     -2   -2    2
          kptrlen      2.05200000E+01
P           mkmem1          2
P           mkmem2         16
P           mkmem3         16
P           mkmem4          5
P           mkmem5          5
P          mkqmem1          2
P          mkqmem2         16
P          mkqmem3         16
P          mkqmem4          5
P          mkqmem5          5
P          mk1mem1          2
P          mk1mem2         16
P          mk1mem3         16
P          mk1mem4          5
P          mk1mem5          5
            natom           2
            nband1          4
            nband2          4
            nband3          4
            nband4          4
            nband5          4
           ndtset           5
            ngfft          16      16      16
             nkpt1          2
             nkpt2         16
             nkpt3         16
             nkpt4          5
             nkpt5          5
             nsym1         48
             nsym2         48
             nsym3         48
             nsym4         12
             nsym5         12
           ntypat           1
              occ1     2.000000  2.000000  2.000000  2.000000
              occ2     2.000000  2.000000  2.000000  2.000000
              occ3     2.000000  2.000000  2.000000  2.000000
              occ4     2.000000  2.000000  2.000000  2.000000
              occ5     2.000000  2.000000  2.000000  2.000000
        optdriver1          0
        optdriver2          1
        optdriver3          1
        optdriver4          0
        optdriver5          0
          rfatpol1          1       1
          rfatpol2          1       1
          rfatpol3          1       2
          rfatpol4          1       1
          rfatpol5          1       1
            rfdir1          0       0       0
            rfdir2          1       0       0
            rfdir3          1       1       1
            rfdir4          0       0       0
            rfdir5          0       0       0
           rfelfd1          0
           rfelfd2          2
           rfelfd3          3
           rfelfd4          0
           rfelfd5          0
           rfphon1          0
           rfphon2          0
           rfphon3          1
           rfphon4          0
           rfphon5          0
            rprim      0.0000000000E+00  5.0000000000E-01  5.0000000000E-01
                       5.0000000000E-01  0.0000000000E+00  5.0000000000E-01
                       5.0000000000E-01  5.0000000000E-01  0.0000000000E+00
           shiftk      5.00000000E-01  5.00000000E-01  5.00000000E-01
          spgroup1        227
          spgroup2        227
          spgroup3        227
          spgroup4        166
          spgroup5        166
           symafm1       1    1    1    1    1    1    1    1    1    1
                         1    1    1    1    1    1    1    1    1    1
                         1    1    1    1    1    1    1    1    1    1
                         1    1    1    1    1    1    1    1    1    1
                         1    1    1    1    1    1    1    1
           symafm2       1    1    1    1    1    1    1    1    1    1
                         1    1    1    1    1    1    1    1    1    1
                         1    1    1    1    1    1    1    1    1    1
                         1    1    1    1    1    1    1    1    1    1
                         1    1    1    1    1    1    1    1
           symafm3       1    1    1    1    1    1    1    1    1    1
                         1    1    1    1    1    1    1    1    1    1
                         1    1    1    1    1    1    1    1    1    1
                         1    1    1    1    1    1    1    1    1    1
                         1    1    1    1    1    1    1    1
           symafm4       1    1    1    1    1    1    1    1    1    1
                         1    1
           symafm5       1    1    1    1    1    1    1    1    1    1
                         1    1
           symrel1     1  0  0   0  1  0   0  0  1      -1  0  0   0 -1  0   0  0 -1
                       0 -1  1   0 -1  0   1 -1  0       0  1 -1   0  1  0  -1  1  0
                      -1  0  0  -1  0  1  -1  1  0       1  0  0   1  0 -1   1 -1  0
                       0  1 -1   1  0 -1   0  0 -1       0 -1  1  -1  0  1   0  0  1
                      -1  0  0  -1  1  0  -1  0  1       1  0  0   1 -1  0   1  0 -1
                       0 -1  1   1 -1  0   0 -1  0       0  1 -1  -1  1  0   0  1  0
                       1  0  0   0  0  1   0  1  0      -1  0  0   0  0 -1   0 -1  0
                       0  1 -1   0  0 -1   1  0 -1       0 -1  1   0  0  1  -1  0  1
                      -1  0  1  -1  1  0  -1  0  0       1  0 -1   1 -1  0   1  0  0
                       0 -1  0   1 -1  0   0 -1  1       0  1  0  -1  1  0   0  1 -1
                       1  0 -1   0  0 -1   0  1 -1      -1  0  1   0  0  1   0 -1  1
                       0  1  0   0  0  1   1  0  0       0 -1  0   0  0 -1  -1  0  0
                       1  0 -1   0  1 -1   0  0 -1      -1  0  1   0 -1  1   0  0  1
                       0 -1  0   0 -1  1   1 -1  0       0  1  0   0  1 -1  -1  1  0
                      -1  0  1  -1  0  0  -1  1  0       1  0 -1   1  0  0   1 -1  0
                       0  1  0   1  0  0   0  0  1       0 -1  0  -1  0  0   0  0 -1
                       0  0 -1   0  1 -1   1  0 -1       0  0  1   0 -1  1  -1  0  1
                       1 -1  0   0 -1  1   0 -1  0      -1  1  0   0  1 -1   0  1  0
                       0  0  1   1  0  0   0  1  0       0  0 -1  -1  0  0   0 -1  0
                      -1  1  0  -1  0  0  -1  0  1       1 -1  0   1  0  0   1  0 -1
                       0  0  1   0  1  0   1  0  0       0  0 -1   0 -1  0  -1  0  0
                       1 -1  0   0 -1  0   0 -1  1      -1  1  0   0  1  0   0  1 -1
                       0  0 -1   1  0 -1   0  1 -1       0  0  1  -1  0  1   0 -1  1
                      -1  1  0  -1  0  1  -1  0  0       1 -1  0   1  0 -1   1  0  0
           symrel2     1  0  0   0  1  0   0  0  1      -1  0  0   0 -1  0   0  0 -1
                       0 -1  1   0 -1  0   1 -1  0       0  1 -1   0  1  0  -1  1  0
                      -1  0  0  -1  0  1  -1  1  0       1  0  0   1  0 -1   1 -1  0
                       0  1 -1   1  0 -1   0  0 -1       0 -1  1  -1  0  1   0  0  1
                      -1  0  0  -1  1  0  -1  0  1       1  0  0   1 -1  0   1  0 -1
                       0 -1  1   1 -1  0   0 -1  0       0  1 -1  -1  1  0   0  1  0
                       1  0  0   0  0  1   0  1  0      -1  0  0   0  0 -1   0 -1  0
                       0  1 -1   0  0 -1   1  0 -1       0 -1  1   0  0  1  -1  0  1
                      -1  0  1  -1  1  0  -1  0  0       1  0 -1   1 -1  0   1  0  0
                       0 -1  0   1 -1  0   0 -1  1       0  1  0  -1  1  0   0  1 -1
                       1  0 -1   0  0 -1   0  1 -1      -1  0  1   0  0  1   0 -1  1
                       0  1  0   0  0  1   1  0  0       0 -1  0   0  0 -1  -1  0  0
                       1  0 -1   0  1 -1   0  0 -1      -1  0  1   0 -1  1   0  0  1
                       0 -1  0   0 -1  1   1 -1  0       0  1  0   0  1 -1  -1  1  0
                      -1  0  1  -1  0  0  -1  1  0       1  0 -1   1  0  0   1 -1  0
                       0  1  0   1  0  0   0  0  1       0 -1  0  -1  0  0   0  0 -1
                       0  0 -1   0  1 -1   1  0 -1       0  0  1   0 -1  1  -1  0  1
                       1 -1  0   0 -1  1   0 -1  0      -1  1  0   0  1 -1   0  1  0
                       0  0  1   1  0  0   0  1  0       0  0 -1  -1  0  0   0 -1  0
                      -1  1  0  -1  0  0  -1  0  1       1 -1  0   1  0  0   1  0 -1
                       0  0  1   0  1  0   1  0  0       0  0 -1   0 -1  0  -1  0  0
                       1 -1  0   0 -1  0   0 -1  1      -1  1  0   0  1  0   0  1 -1
                       0  0 -1   1  0 -1   0  1 -1       0  0  1  -1  0  1   0 -1  1
                      -1  1  0  -1  0  1  -1  0  0       1 -1  0   1  0 -1   1  0  0
           symrel3     1  0  0   0  1  0   0  0  1      -1  0  0   0 -1  0   0  0 -1
                       0 -1  1   0 -1  0   1 -1  0       0  1 -1   0  1  0  -1  1  0
                      -1  0  0  -1  0  1  -1  1  0       1  0  0   1  0 -1   1 -1  0
                       0  1 -1   1  0 -1   0  0 -1       0 -1  1  -1  0  1   0  0  1
                      -1  0  0  -1  1  0  -1  0  1       1  0  0   1 -1  0   1  0 -1
                       0 -1  1   1 -1  0   0 -1  0       0  1 -1  -1  1  0   0  1  0
                       1  0  0   0  0  1   0  1  0      -1  0  0   0  0 -1   0 -1  0
                       0  1 -1   0  0 -1   1  0 -1       0 -1  1   0  0  1  -1  0  1
                      -1  0  1  -1  1  0  -1  0  0       1  0 -1   1 -1  0   1  0  0
                       0 -1  0   1 -1  0   0 -1  1       0  1  0  -1  1  0   0  1 -1
                       1  0 -1   0  0 -1   0  1 -1      -1  0  1   0  0  1   0 -1  1
                       0  1  0   0  0  1   1  0  0       0 -1  0   0  0 -1  -1  0  0
                       1  0 -1   0  1 -1   0  0 -1      -1  0  1   0 -1  1   0  0  1
                       0 -1  0   0 -1  1   1 -1  0       0  1  0   0  1 -1  -1  1  0
                      -1  0  1  -1  0  0  -1  1  0       1  0 -1   1  0  0   1 -1  0
                       0  1  0   1  0  0   0  0  1       0 -1  0  -1  0  0   0  0 -1
                       0  0 -1   0  1 -1   1  0 -1       0  0  1   0 -1  1  -1  0  1
                       1 -1  0   0 -1  1   0 -1  0      -1  1  0   0  1 -1   0  1  0
                       0  0  1   1  0  0   0  1  0       0  0 -1  -1  0  0   0 -1  0
                      -1  1  0  -1  0  0  -1  0  1       1 -1  0   1  0  0   1  0 -1
                       0  0  1   0  1  0   1  0  0       0  0 -1   0 -1  0  -1  0  0
                       1 -1  0   0 -1  0   0 -1  1      -1  1  0   0  1  0   0  1 -1
                       0  0 -1   1  0 -1   0  1 -1       0  0  1  -1  0  1   0 -1  1
                      -1  1  0  -1  0  1  -1  0  0       1 -1  0   1  0 -1   1  0  0
           symrel4     1  0  0   0  1  0   0  0  1      -1  0  0   0 -1  0   0  0 -1
                       1  0  0   0  0  1   0  1  0      -1  0  0   0  0 -1   0 -1  0
                       0  1  0   0  0  1   1  0  0       0 -1  0   0  0 -1  -1  0  0
                       0  1  0   1  0  0   0  0  1       0 -1  0  -1  0  0   0  0 -1
                       0  0  1   1  0  0   0  1  0       0  0 -1  -1  0  0   0 -1  0
                       0  0  1   0  1  0   1  0  0       0  0 -1   0 -1  0  -1  0  0
           symrel5     1  0  0   0  1  0   0  0  1      -1  0  0   0 -1  0   0  0 -1
                       1  0  0   0  0  1   0  1  0      -1  0  0   0  0 -1   0 -1  0
                       0  1  0   0  0  1   1  0  0       0 -1  0   0  0 -1  -1  0  0
                       0  1  0   1  0  0   0  0  1       0 -1  0  -1  0  0   0  0 -1
                       0  0  1   1  0  0   0  1  0       0  0 -1  -1  0  0   0 -1  0
                       0  0  1   0  1  0   1  0  0       0  0 -1   0 -1  0  -1  0  0
            tnons1     0.0000000  0.0000000  0.0000000     0.2500000  0.2500000  0.2500000
                       0.0000000  0.0000000  0.0000000     0.2500000  0.2500000  0.2500000
                       0.0000000  0.0000000  0.0000000     0.2500000  0.2500000  0.2500000
                       0.0000000  0.0000000  0.0000000     0.2500000  0.2500000  0.2500000
                       0.0000000  0.0000000  0.0000000     0.2500000  0.2500000  0.2500000
                       0.0000000  0.0000000  0.0000000     0.2500000  0.2500000  0.2500000
                       0.0000000  0.0000000  0.0000000     0.2500000  0.2500000  0.2500000
                       0.0000000  0.0000000  0.0000000     0.2500000  0.2500000  0.2500000
                       0.0000000  0.0000000  0.0000000     0.2500000  0.2500000  0.2500000
                       0.0000000  0.0000000  0.0000000     0.2500000  0.2500000  0.2500000
                       0.0000000  0.0000000  0.0000000     0.2500000  0.2500000  0.2500000
                       0.0000000  0.0000000  0.0000000     0.2500000  0.2500000  0.2500000
                       0.0000000  0.0000000  0.0000000     0.2500000  0.2500000  0.2500000
                       0.0000000  0.0000000  0.0000000     0.2500000  0.2500000  0.2500000
                       0.0000000  0.0000000  0.0000000     0.2500000  0.2500000  0.2500000
                       0.0000000  0.0000000  0.0000000     0.2500000  0.2500000  0.2500000
                       0.0000000  0.0000000  0.0000000     0.2500000  0.2500000  0.2500000
                       0.0000000  0.0000000  0.0000000     0.2500000  0.2500000  0.2500000
                       0.0000000  0.0000000  0.0000000     0.2500000  0.2500000  0.2500000
                       0.0000000  0.0000000  0.0000000     0.2500000  0.2500000  0.2500000
                       0.0000000  0.0000000  0.0000000     0.2500000  0.2500000  0.2500000
                       0.0000000  0.0000000  0.0000000     0.2500000  0.2500000  0.2500000
                       0.0000000  0.0000000  0.0000000     0.2500000  0.2500000  0.2500000
                       0.0000000  0.0000000  0.0000000     0.2500000  0.2500000  0.2500000
            tnons2     0.0000000  0.0000000  0.0000000     0.2500000  0.2500000  0.2500000
                       0.0000000  0.0000000  0.0000000     0.2500000  0.2500000  0.2500000
                       0.0000000  0.0000000  0.0000000     0.2500000  0.2500000  0.2500000
                       0.0000000  0.0000000  0.0000000     0.2500000  0.2500000  0.2500000
                       0.0000000  0.0000000  0.0000000     0.2500000  0.2500000  0.2500000
                       0.0000000  0.0000000  0.0000000     0.2500000  0.2500000  0.2500000
                       0.0000000  0.0000000  0.0000000     0.2500000  0.2500000  0.2500000
                       0.0000000  0.0000000  0.0000000     0.2500000  0.2500000  0.2500000
                       0.0000000  0.0000000  0.0000000     0.2500000  0.2500000  0.2500000
                       0.0000000  0.0000000  0.0000000     0.2500000  0.2500000  0.2500000
                       0.0000000  0.0000000  0.0000000     0.2500000  0.2500000  0.2500000
                       0.0000000  0.0000000  0.0000000     0.2500000  0.2500000  0.2500000
                       0.0000000  0.0000000  0.0000000     0.2500000  0.2500000  0.2500000
                       0.0000000  0.0000000  0.0000000     0.2500000  0.2500000  0.2500000
                       0.0000000  0.0000000  0.0000000     0.2500000  0.2500000  0.2500000
                       0.0000000  0.0000000  0.0000000     0.2500000  0.2500000  0.2500000
                       0.0000000  0.0000000  0.0000000     0.2500000  0.2500000  0.2500000
                       0.0000000  0.0000000  0.0000000     0.2500000  0.2500000  0.2500000
                       0.0000000  0.0000000  0.0000000     0.2500000  0.2500000  0.2500000
                       0.0000000  0.0000000  0.0000000     0.2500000  0.2500000  0.2500000
                       0.0000000  0.0000000  0.0000000     0.2500000  0.2500000  0.2500000
                       0.0000000  0.0000000  0.0000000     0.2500000  0.2500000  0.2500000
                       0.0000000  0.0000000  0.0000000     0.2500000  0.2500000  0.2500000
                       0.0000000  0.0000000  0.0000000     0.2500000  0.2500000  0.2500000
            tnons3     0.0000000  0.0000000  0.0000000     0.2500000  0.2500000  0.2500000
                       0.0000000  0.0000000  0.0000000     0.2500000  0.2500000  0.2500000
                       0.0000000  0.0000000  0.0000000     0.2500000  0.2500000  0.2500000
                       0.0000000  0.0000000  0.0000000     0.2500000  0.2500000  0.2500000
                       0.0000000  0.0000000  0.0000000     0.2500000  0.2500000  0.2500000
                       0.0000000  0.0000000  0.0000000     0.2500000  0.2500000  0.2500000
                       0.0000000  0.0000000  0.0000000     0.2500000  0.2500000  0.2500000
                       0.0000000  0.0000000  0.0000000     0.2500000  0.2500000  0.2500000
                       0.0000000  0.0000000  0.0000000     0.2500000  0.2500000  0.2500000
                       0.0000000  0.0000000  0.0000000     0.2500000  0.2500000  0.2500000
                       0.0000000  0.0000000  0.0000000     0.2500000  0.2500000  0.2500000
                       0.0000000  0.0000000  0.0000000     0.2500000  0.2500000  0.2500000
                       0.0000000  0.0000000  0.0000000     0.2500000  0.2500000  0.2500000
                       0.0000000  0.0000000  0.0000000     0.2500000  0.2500000  0.2500000
                       0.0000000  0.0000000  0.0000000     0.2500000  0.2500000  0.2500000
                       0.0000000  0.0000000  0.0000000     0.2500000  0.2500000  0.2500000
                       0.0000000  0.0000000  0.0000000     0.2500000  0.2500000  0.2500000
                       0.0000000  0.0000000  0.0000000     0.2500000  0.2500000  0.2500000
                       0.0000000  0.0000000  0.0000000     0.2500000  0.2500000  0.2500000
                       0.0000000  0.0000000  0.0000000     0.2500000  0.2500000  0.2500000
                       0.0000000  0.0000000  0.0000000     0.2500000  0.2500000  0.2500000
                       0.0000000  0.0000000  0.0000000     0.2500000  0.2500000  0.2500000
                       0.0000000  0.0000000  0.0000000     0.2500000  0.2500000  0.2500000
                       0.0000000  0.0000000  0.0000000     0.2500000  0.2500000  0.2500000
            tnons4     0.0000000  0.0000000  0.0000000     0.2501000  0.2501000  0.2501000
                       0.0000000  0.0000000  0.0000000     0.2501000  0.2501000  0.2501000
                       0.0000000  0.0000000  0.0000000     0.2501000  0.2501000  0.2501000
                       0.0000000  0.0000000  0.0000000     0.2501000  0.2501000  0.2501000
                       0.0000000  0.0000000  0.0000000     0.2501000  0.2501000  0.2501000
                       0.0000000  0.0000000  0.0000000     0.2501000  0.2501000  0.2501000
            tnons5     0.0000000  0.0000000  0.0000000     0.2499000  0.2499000  0.2499000
                       0.0000000  0.0000000  0.0000000     0.2499000  0.2499000  0.2499000
                       0.0000000  0.0000000  0.0000000     0.2499000  0.2499000  0.2499000
                       0.0000000  0.0000000  0.0000000     0.2499000  0.2499000  0.2499000
                       0.0000000  0.0000000  0.0000000     0.2499000  0.2499000  0.2499000
                       0.0000000  0.0000000  0.0000000     0.2499000  0.2499000  0.2499000
           tolwfr1     1.00000000E-28
           tolwfr2     1.00000000E-28
           tolwfr3     1.00000000E-12
           tolwfr4     1.00000000E-28
           tolwfr5     1.00000000E-28
            typat      1  1
              wtk1       0.75000    0.25000
              wtk2       0.06250    0.06250    0.06250    0.06250    0.06250    0.06250
                         0.06250    0.06250    0.06250    0.06250    0.06250    0.06250
                         0.06250    0.06250    0.06250    0.06250
              wtk3       0.06250    0.06250    0.06250    0.06250    0.06250    0.06250
                         0.06250    0.06250    0.06250    0.06250    0.06250    0.06250
                         0.06250    0.06250    0.06250    0.06250
              wtk4       0.37500    0.18750    0.18750    0.18750    0.06250
              wtk5       0.37500    0.18750    0.18750    0.18750    0.06250
           xangst1     0.0000000000E+00  0.0000000000E+00  0.0000000000E+00
                       1.3573395400E+00  1.3573395400E+00  1.3573395400E+00
           xangst2     0.0000000000E+00  0.0000000000E+00  0.0000000000E+00
                       1.3573395400E+00  1.3573395400E+00  1.3573395400E+00
           xangst3     0.0000000000E+00  0.0000000000E+00  0.0000000000E+00
                       1.3573395400E+00  1.3573395400E+00  1.3573395400E+00
           xangst4     0.0000000000E+00  0.0000000000E+00  0.0000000000E+00
                       1.3578824758E+00  1.3578824758E+00  1.3578824758E+00
           xangst5     0.0000000000E+00  0.0000000000E+00  0.0000000000E+00
                       1.3567966042E+00  1.3567966042E+00  1.3567966042E+00
            xcart1     0.0000000000E+00  0.0000000000E+00  0.0000000000E+00
                       2.5650000000E+00  2.5650000000E+00  2.5650000000E+00
            xcart2     0.0000000000E+00  0.0000000000E+00  0.0000000000E+00
                       2.5650000000E+00  2.5650000000E+00  2.5650000000E+00
            xcart3     0.0000000000E+00  0.0000000000E+00  0.0000000000E+00
                       2.5650000000E+00  2.5650000000E+00  2.5650000000E+00
            xcart4     0.0000000000E+00  0.0000000000E+00  0.0000000000E+00
                       2.5660260000E+00  2.5660260000E+00  2.5660260000E+00
            xcart5     0.0000000000E+00  0.0000000000E+00  0.0000000000E+00
                       2.5639740000E+00  2.5639740000E+00  2.5639740000E+00
             xred1     0.0000000000E+00  0.0000000000E+00  0.0000000000E+00
                       2.5000000000E-01  2.5000000000E-01  2.5000000000E-01
             xred2     0.0000000000E+00  0.0000000000E+00  0.0000000000E+00
                       2.5000000000E-01  2.5000000000E-01  2.5000000000E-01
             xred3     0.0000000000E+00  0.0000000000E+00  0.0000000000E+00
                       2.5000000000E-01  2.5000000000E-01  2.5000000000E-01
             xred4     0.0000000000E+00  0.0000000000E+00  0.0000000000E+00
                       2.5010000000E-01  2.5010000000E-01  2.5010000000E-01
             xred5     0.0000000000E+00  0.0000000000E+00  0.0000000000E+00
                       2.4990000000E-01  2.4990000000E-01  2.4990000000E-01
            znucl       14.00000

================================================================================

 chkinp: Checking input parameters for consistency, jdtset=   1.

 chkinp: Checking input parameters for consistency, jdtset=   2.

 chkinp: Checking input parameters for consistency, jdtset=   3.

 chkinp: Checking input parameters for consistency, jdtset=   4.

 chkinp: Checking input parameters for consistency, jdtset=   5.

================================================================================
== DATASET  1 ==================================================================
-   nproc =    1

 Exchange-correlation functional for the present dataset will be:
  GGA: Perdew-Burke-Ernzerhof functional - ixc=11
 Citation for XC functional:
  J.P.Perdew, K.Burke, M.Ernzerhof, PRL 77, 3865 (1996)

 Real(R)+Recip(G) space primitive vectors, cartesian coordinates (Bohr,Bohr^-1):
 R(1)=  0.0000000  5.1300000  5.1300000  G(1)= -0.0974659  0.0974659  0.0974659
 R(2)=  5.1300000  0.0000000  5.1300000  G(2)=  0.0974659 -0.0974659  0.0974659
 R(3)=  5.1300000  5.1300000  0.0000000  G(3)=  0.0974659  0.0974659 -0.0974659
 Unit cell volume ucvol=  2.7001139E+02 bohr^3
 Angles (23,13,12)=  6.00000000E+01  6.00000000E+01  6.00000000E+01 degrees

 getcut: wavevector=  0.0000  0.0000  0.0000  ngfft=  16  16  16
         ecut(hartree)=      6.000   => boxcut(ratio)=   2.00008

--- Pseudopotential description ------------------------------------------------
- pspini: atom type   1  psp file is /data/ABINIT/testf_gcc47/trunk_7.10.4-training/tests/Psps_for_tests/14si.pspnc
- pspatm: opening atomic psp file    /data/ABINIT/testf_gcc47/trunk_7.10.4-training/tests/Psps_for_tests/14si.pspnc
-  Troullier-Martins psp for element  Si        Thu Oct 27 17:31:21 EDT 1994
- 14.00000   4.00000    940714                znucl, zion, pspdat
    1    1    2    2      2001   0.00000      pspcod,pspxc,lmax,lloc,mmax,r2well
    0   5.907  14.692    1   2.0872718        l,e99.0,e99.9,nproj,rcpsp
   0.00000000   0.00000000   0.00000000   0.00000000     rms, ekb1, ekb2, epsatm
    1   2.617   4.181    1   2.0872718        l,e99.0,e99.9,nproj,rcpsp
   0.00000000   0.00000000   0.00000000   0.00000000     rms, ekb1, ekb2, epsatm
    2   0.000   0.000    0   2.0872718        l,e99.0,e99.9,nproj,rcpsp
   0.00000000   0.00000000   0.00000000   0.00000000     rms, ekb1, ekb2, epsatm
    1.80626423934776    0.22824404341771    1.17378968127746   rchrg,fchrg,qchrg
 pspatm: epsatm=    1.43386982
         --- l  ekb(1:nproj) -->
             0    3.287949
             1    1.849886
 pspatm: atomic psp has been read  and splines computed

   2.29419171E+01                                ecore*ucvol(ha*bohr**3)
--------------------------------------------------------------------------------

P newkpt: treating      4 bands with npw=     188 for ikpt=   1 by node    0
P newkpt: treating      4 bands with npw=     187 for ikpt=   2 by node    0

_setup2: Arith. and geom. avg. npw (full set) are     187.750     187.749

================================================================================

     iter   Etot(hartree)      deltaE(h)  residm     vres2
 ETOT  1  -8.8738109354102    -8.874E+00 5.374E-04 1.538E+00
 ETOT  2  -8.8766624154316    -2.851E-03 5.671E-09 6.743E-02
 ETOT  3  -8.8767310480071    -6.863E-05 1.902E-07 2.129E-02
 ETOT  4  -8.8767418868362    -1.084E-05 3.927E-09 3.269E-03
 ETOT  5  -8.8767437728692    -1.886E-06 7.399E-09 5.145E-04
 ETOT  6  -8.8767440671001    -2.942E-07 4.409E-10 2.134E-05
 ETOT  7  -8.8767440790162    -1.192E-08 7.716E-11 1.143E-07
 ETOT  8  -8.8767440790258    -9.566E-12 9.755E-15 9.054E-08
 ETOT  9  -8.8767440790587    -3.294E-11 3.350E-14 6.762E-09
 ETOT 10  -8.8767440790630    -4.334E-12 1.833E-14 1.080E-10
 ETOT 11  -8.8767440790629     1.243E-13 6.851E-17 8.687E-11
 ETOT 12  -8.8767440790631    -1.918E-13 3.130E-16 5.600E-13
 ETOT 13  -8.8767440790631    -8.882E-15 3.426E-19 7.196E-15
 ETOT 14  -8.8767440790632    -4.441E-14 2.200E-21 6.546E-15
 ETOT 15  -8.8767440790631     1.954E-14 1.198E-21 8.502E-17
 ETOT 16  -8.8767440790631     0.000E+00 3.101E-23 2.204E-18
 ETOT 17  -8.8767440790631    -1.421E-14 4.232E-25 1.830E-18
 ETOT 18  -8.8767440790631     8.349E-14 1.762E-24 1.210E-19
 ETOT 19  -8.8767440790631    -6.217E-14 4.932E-25 1.384E-21
 ETOT 20  -8.8767440790631     3.730E-14 2.354E-28 6.571E-22
 ETOT 21  -8.8767440790631    -5.862E-14 1.711E-28 2.380E-23
 ETOT 22  -8.8767440790631     1.243E-14 8.169E-29 1.038E-24

 At SCF step   22   max residual=  8.17E-29 < tolwfr=  1.00E-28 =>converged.

 Cartesian components of stress tensor (hartree/bohr^3)
  sigma(1 1)=  5.84275167E-05  sigma(3 2)=  0.00000000E+00
  sigma(2 2)=  5.84275167E-05  sigma(3 1)=  0.00000000E+00
  sigma(3 3)=  5.84275167E-05  sigma(2 1)=  0.00000000E+00

================================================================================

 ----iterations are completed or convergence reached----

 Mean square residual over all n,k,spin=   3.3893E-29; max=  8.1687E-29
  -0.2500  0.5000  0.0000    1  8.16870E-29 kpt; spin; max resid(k); each band:
  5.22E-29 4.61E-29 8.17E-29 1.11E-29
  -0.2500  0.0000  0.0000    1  5.02087E-29 kpt; spin; max resid(k); each band:
  8.44E-30 5.02E-29 1.07E-29 1.07E-29
 reduced coordinates (array xred) for    2 atoms
       0.000000000000      0.000000000000      0.000000000000
       0.250000000000      0.250000000000      0.250000000000
 rms dE/dt=  8.6556E-28; max dE/dt=  8.0779E-28; dE/dt below (all hartree)
    1      -0.000000000000     -0.000000000000      0.000000000000
    2      -0.000000000000      0.000000000000     -0.000000000000

 cartesian coordinates (angstrom) at end:
    1      0.00000000000000     0.00000000000000     0.00000000000000
    2      1.35733954003335     1.35733954003335     1.35733954003335

 cartesian forces (hartree/bohr) at end:
    1      0.00000000000000    -0.00000000000000     0.00000000000000
    2      0.00000000000000     0.00000000000000    -0.00000000000000
 frms,max,avg= 1.0926292E-28 1.5746463E-28   0.000E+00  0.000E+00  0.000E+00 h/b

 cartesian forces (eV/Angstrom) at end:
    1      0.00000000000000    -0.00000000000000     0.00000000000000
    2      0.00000000000000     0.00000000000000    -0.00000000000000
 frms,max,avg= 5.6185250E-27 8.0971563E-27   0.000E+00  0.000E+00  0.000E+00 e/A
 length scales= 10.260000000000 10.260000000000 10.260000000000 bohr
              =  5.429358160133  5.429358160133  5.429358160133 angstroms
 prteigrs : about to open file t16o_DS1_EIG
 Fermi (or HOMO) energy (hartree) =   0.18744   Average Vxc (hartree)=  -0.34535
 Eigenvalues (hartree) for nkpt=   2  k points:
 kpt#   1, nband=  4, wtk=  0.75000, kpt= -0.2500  0.5000  0.0000 (reduced coord)
  -0.12409  -0.01924   0.08575   0.13403
 kpt#   2, nband=  4, wtk=  0.25000, kpt= -0.2500  0.0000  0.0000 (reduced coord)
  -0.19441   0.07111   0.18744   0.18744
 Total charge density [el/Bohr^3]
,     Maximum=    8.7499E-02  at reduced coord.    0.1250    0.1250    0.6250
,Next maximum=    8.7499E-02  at reduced coord.    0.1250    0.6250    0.1250
,     Minimum=    2.8910E-03  at reduced coord.    0.5000    0.5000    0.5000
,Next minimum=    2.8910E-03  at reduced coord.    0.7500    0.7500    0.7500
,  Integrated=    8.0000E+00

--------------------------------------------------------------------------------
 Components of total free energy (in Hartree) :

    Kinetic energy  =  3.03276351681972E+00
    Hartree energy  =  5.68659932725715E-01
    XC energy       = -3.56138360707037E+00
    Ewald energy    = -8.40046478618609E+00
    PspCore energy  =  8.49664779039244E-02
    Loc. psp. energy= -2.53605007735605E+00
    NL   psp  energy=  1.93476446410002E+00
    >>>>>>>>> Etotal= -8.87674407906313E+00

 Other information on the energy :
    Total energy(eV)= -2.41548490562369E+02 ; Band energy (Ha)=   2.4047648398E-01
--------------------------------------------------------------------------------

 Cartesian components of stress tensor (hartree/bohr^3)
  sigma(1 1)=  5.84275167E-05  sigma(3 2)=  0.00000000E+00
  sigma(2 2)=  5.84275167E-05  sigma(3 1)=  0.00000000E+00
  sigma(3 3)=  5.84275167E-05  sigma(2 1)=  0.00000000E+00

-Cartesian components of stress tensor (GPa)         [Pressure= -1.7190E+00 GPa]
- sigma(1 1)=  1.71899660E+00  sigma(3 2)=  0.00000000E+00
- sigma(2 2)=  1.71899660E+00  sigma(3 1)=  0.00000000E+00
- sigma(3 3)=  1.71899660E+00  sigma(2 1)=  0.00000000E+00

================================================================================
== DATASET  2 ==================================================================
-   nproc =    1

 mkfilename : getwfk/=0, take file _WFK from output of DATASET   1.

 mkfilename : getddk/=0, take file _1WF from output of DATASET   2.

 mkfilename : getden/=0, take file _DEN from output of DATASET   1.

 Exchange-correlation functional for the present dataset will be:
  GGA: Perdew-Burke-Ernzerhof functional - ixc=11
 Citation for XC functional:
  J.P.Perdew, K.Burke, M.Ernzerhof, PRL 77, 3865 (1996)

 Real(R)+Recip(G) space primitive vectors, cartesian coordinates (Bohr,Bohr^-1):
 R(1)=  0.0000000  5.1300000  5.1300000  G(1)= -0.0974659  0.0974659  0.0974659
 R(2)=  5.1300000  0.0000000  5.1300000  G(2)=  0.0974659 -0.0974659  0.0974659
 R(3)=  5.1300000  5.1300000  0.0000000  G(3)=  0.0974659  0.0974659 -0.0974659
 Unit cell volume ucvol=  2.7001139E+02 bohr^3
 Angles (23,13,12)=  6.00000000E+01  6.00000000E+01  6.00000000E+01 degrees

 getcut: wavevector=  0.0000  0.0000  0.0000  ngfft=  16  16  16
         ecut(hartree)=      6.000   => boxcut(ratio)=   2.00008
--------------------------------------------------------------------------------

-inwffil : will read wavefunctions from disk file t16o_DS1_WFK
- newkpt: read input wf with ikpt,npw=   1     188, make ikpt,npw=   1     188
- newkpt: read input wf with ikpt,npw=   1     188, make ikpt,npw=   2     188
- newkpt: read input wf with ikpt,npw=   1     188, make ikpt,npw=   3     188
- newkpt: read input wf with ikpt,npw=   2     187, make ikpt,npw=   4     187
- newkpt: read input wf with ikpt,npw=   1     188, make ikpt,npw=   5     188
- newkpt: read input wf with ikpt,npw=   1     188, make ikpt,npw=   6     188
- newkpt: read input wf with ikpt,npw=   1     188, make ikpt,npw=   7     188
- newkpt: read input wf with ikpt,npw=   2     187, make ikpt,npw=   8     187
- newkpt: read input wf with ikpt,npw=   1     188, make ikpt,npw=   9     188
- newkpt: read input wf with ikpt,npw=   1     188, make ikpt,npw=  10     188
- newkpt: read input wf with ikpt,npw=   2     187, make ikpt,npw=  11     187
- newkpt: read input wf with ikpt,npw=   1     188, make ikpt,npw=  12     188
- newkpt: read input wf with ikpt,npw=   1     188, make ikpt,npw=  13     188
- newkpt: read input wf with ikpt,npw=   1     188, make ikpt,npw=  14     188
- newkpt: read input wf with ikpt,npw=   1     188, make ikpt,npw=  15     188
- newkpt: read input wf with ikpt,npw=   2     187, make ikpt,npw=  16     187


 ==>  initialize data related to q vector <== 

 The list of irreducible perturbations for this q vector is:
    1)    idir= 1    ipert=   3

================================================================================

--------------------------------------------------------------------------------
 Perturbation wavevector (in red.coord.)   0.000000  0.000000  0.000000
 Perturbation : derivative vs k along direction   1
 The set of symmetries contains only one element for this perturbation.
 symkpt : not enough symmetry to change the number of k points.

--------------------------------------------------------------------------------

-inwffil : will read wavefunctions from disk file t16o_DS1_WFK
- newkpt: read input wf with ikpt,npw=   1     188, make ikpt,npw=   1     188
- newkpt: read input wf with ikpt,npw=   1     188, make ikpt,npw=   2     188
- newkpt: read input wf with ikpt,npw=   1     188, make ikpt,npw=   3     188
- newkpt: read input wf with ikpt,npw=   2     187, make ikpt,npw=   4     187
- newkpt: read input wf with ikpt,npw=   1     188, make ikpt,npw=   5     188
- newkpt: read input wf with ikpt,npw=   1     188, make ikpt,npw=   6     188
- newkpt: read input wf with ikpt,npw=   1     188, make ikpt,npw=   7     188
- newkpt: read input wf with ikpt,npw=   2     187, make ikpt,npw=   8     187
- newkpt: read input wf with ikpt,npw=   1     188, make ikpt,npw=   9     188
- newkpt: read input wf with ikpt,npw=   1     188, make ikpt,npw=  10     188
- newkpt: read input wf with ikpt,npw=   2     187, make ikpt,npw=  11     187
- newkpt: read input wf with ikpt,npw=   1     188, make ikpt,npw=  12     188
- newkpt: read input wf with ikpt,npw=   1     188, make ikpt,npw=  13     188
- newkpt: read input wf with ikpt,npw=   1     188, make ikpt,npw=  14     188
- newkpt: read input wf with ikpt,npw=   1     188, make ikpt,npw=  15     188
- newkpt: read input wf with ikpt,npw=   2     187, make ikpt,npw=  16     187

--------------------------------------------------------------------------------

-inwffil : will read wavefunctions from disk file t16o_DS1_WFK
- newkpt: read input wf with ikpt,npw=   1     188, make ikpt,npw=   1     188
- newkpt: read input wf with ikpt,npw=   1     188, make ikpt,npw=   2     188
- newkpt: read input wf with ikpt,npw=   1     188, make ikpt,npw=   3     188
- newkpt: read input wf with ikpt,npw=   2     187, make ikpt,npw=   4     187
- newkpt: read input wf with ikpt,npw=   1     188, make ikpt,npw=   5     188
- newkpt: read input wf with ikpt,npw=   1     188, make ikpt,npw=   6     188
- newkpt: read input wf with ikpt,npw=   1     188, make ikpt,npw=   7     188
- newkpt: read input wf with ikpt,npw=   2     187, make ikpt,npw=   8     187
- newkpt: read input wf with ikpt,npw=   1     188, make ikpt,npw=   9     188
- newkpt: read input wf with ikpt,npw=   1     188, make ikpt,npw=  10     188
- newkpt: read input wf with ikpt,npw=   2     187, make ikpt,npw=  11     187
- newkpt: read input wf with ikpt,npw=   1     188, make ikpt,npw=  12     188
- newkpt: read input wf with ikpt,npw=   1     188, make ikpt,npw=  13     188
- newkpt: read input wf with ikpt,npw=   1     188, make ikpt,npw=  14     188
- newkpt: read input wf with ikpt,npw=   1     188, make ikpt,npw=  15     188
- newkpt: read input wf with ikpt,npw=   2     187, make ikpt,npw=  16     187

 Initialisation of the first-order wave-functions :
  ireadwf=   0
P newkpt: treating      4 bands with npw=     188 for ikpt=   1 by node    0
P newkpt: treating      4 bands with npw=     188 for ikpt=   2 by node    0
P newkpt: treating      4 bands with npw=     188 for ikpt=   3 by node    0
P newkpt: treating      4 bands with npw=     187 for ikpt=   4 by node    0
P newkpt: treating      4 bands with npw=     188 for ikpt=   5 by node    0
P newkpt: treating      4 bands with npw=     188 for ikpt=   6 by node    0
P newkpt: treating      4 bands with npw=     188 for ikpt=   7 by node    0
P newkpt: treating      4 bands with npw=     187 for ikpt=   8 by node    0
P newkpt: treating      4 bands with npw=     188 for ikpt=   9 by node    0
P newkpt: treating      4 bands with npw=     188 for ikpt=  10 by node    0
P newkpt: treating      4 bands with npw=     187 for ikpt=  11 by node    0
P newkpt: treating      4 bands with npw=     188 for ikpt=  12 by node    0
P newkpt: treating      4 bands with npw=     188 for ikpt=  13 by node    0
P newkpt: treating      4 bands with npw=     188 for ikpt=  14 by node    0
P newkpt: treating      4 bands with npw=     188 for ikpt=  15 by node    0
P newkpt: treating      4 bands with npw=     187 for ikpt=  16 by node    0


     iter   2DEtotal(Ha)        deltaE(Ha) residm    vres2
-ETOT  1  -10.646580063433     -1.065E+01 2.495E-02 0.000E+00
 ETOT  2  -10.654092675387     -7.513E-03 4.994E-05 0.000E+00
 ETOT  3  -10.654105361198     -1.269E-05 7.595E-08 0.000E+00
 ETOT  4  -10.654105393682     -3.248E-08 1.971E-10 0.000E+00
 ETOT  5  -10.654105393770     -8.783E-11 6.133E-13 0.000E+00
 ETOT  6  -10.654105393771     -2.984E-13 1.742E-15 0.000E+00
 ETOT  7  -10.654105393771      2.487E-14 5.833E-18 0.000E+00
 ETOT  8  -10.654105393771      5.329E-15 1.696E-20 0.000E+00
 ETOT  9  -10.654105393771     -2.309E-14 6.206E-23 0.000E+00
 ETOT 10  -10.654105393770      5.329E-14 1.811E-25 0.000E+00
 ETOT 11  -10.654105393771     -3.197E-14 7.672E-28 0.000E+00
 ETOT 12  -10.654105393770      1.066E-14 9.687E-29 0.000E+00

 At SCF step   12   max residual=  9.69E-29 < tolwfr=  1.00E-28 =>converged.
================================================================================

 ----iterations are completed or convergence reached----

 Mean square residual over all n,k,spin=   3.1418E-29; max=  9.6872E-29
  -0.2500  0.5000  0.0000    1  8.80261E-29 kpt; spin; max resid(k); each band:
  1.22E-29 8.80E-29 8.89E-30 1.84E-29
   0.5000 -0.2500  0.0000    1  5.71307E-29 kpt; spin; max resid(k); each band:
  5.71E-29 2.56E-29 1.10E-29 3.24E-29
  -0.2500 -0.2500  0.2500    1  3.09297E-29 kpt; spin; max resid(k); each band:
  2.84E-29 2.08E-29 7.39E-30 3.09E-29
  -0.2500  0.0000  0.0000    1  8.64255E-29 kpt; spin; max resid(k); each band:
  1.53E-29 4.43E-29 8.64E-29 8.63E-29
  -0.2500  0.2500  0.2500    1  5.63317E-29 kpt; spin; max resid(k); each band:
  5.63E-29 2.58E-29 1.04E-29 3.25E-29
   0.5000  0.5000  0.2500    1  2.89373E-29 kpt; spin; max resid(k); each band:
  2.89E-29 2.07E-29 7.15E-30 2.09E-29
  -0.2500  0.5000  0.5000    1  8.85050E-29 kpt; spin; max resid(k); each band:
  1.21E-29 8.85E-29 8.37E-30 1.83E-29
   0.0000 -0.2500  0.0000    1  9.51976E-29 kpt; spin; max resid(k); each band:
  9.52E-29 5.22E-30 1.75E-29 1.14E-29
   0.2500 -0.2500  0.2500    1  2.89608E-29 kpt; spin; max resid(k); each band:
  2.90E-29 2.07E-29 7.88E-30 2.25E-29
   0.5000 -0.2500  0.5000    1  2.91555E-29 kpt; spin; max resid(k); each band:
  2.92E-29 2.09E-29 7.29E-30 2.24E-29
  -0.2500 -0.2500 -0.2500    1  9.68724E-29 kpt; spin; max resid(k); each band:
  9.55E-29 5.69E-30 1.41E-29 9.69E-29
   0.5000  0.0000  0.2500    1  5.63616E-29 kpt; spin; max resid(k); each band:
  5.64E-29 2.55E-29 1.10E-29 3.25E-29
  -0.2500  0.0000  0.5000    1  8.79413E-29 kpt; spin; max resid(k); each band:
  1.21E-29 8.79E-29 9.30E-30 1.82E-29
   0.0000  0.5000  0.2500    1  2.88576E-29 kpt; spin; max resid(k); each band:
  2.89E-29 2.08E-29 7.67E-30 2.40E-29
   0.0000 -0.2500  0.5000    1  2.91726E-29 kpt; spin; max resid(k); each band:
  2.92E-29 2.05E-29 7.14E-30 2.28E-29
   0.0000  0.0000  0.2500    1  9.54934E-29 kpt; spin; max resid(k); each band:
  9.55E-29 5.24E-30 5.14E-29 4.01E-29
 loper3 : ek2=    1.8001398769E+01
          f-sum rule ratio=    1.2647282788E+00
 prteigrs : about to open file t16_1WF1_EIG
 Expectation of eigenvalue derivatives (hartree) for nkpt=  16  k points:
  (in case of degenerate eigenvalues, averaged derivative)
 kpt#   1, nband=  4, wtk=  0.06250, kpt= -0.2500  0.5000  0.0000 (reduced coord)
  -0.12564  -0.03288   0.20974   0.17694
 kpt#   2, nband=  4, wtk=  0.06250, kpt=  0.5000 -0.2500  0.0000 (reduced coord)
  -0.25114   0.33941   0.20389  -0.04840
 kpt#   3, nband=  4, wtk=  0.06250, kpt= -0.2500 -0.2500  0.2500 (reduced coord)
  -0.18839   0.15327   0.20681   0.06427
 kpt#   4, nband=  4, wtk=  0.06250, kpt= -0.2500  0.0000  0.0000 (reduced coord)
  -0.22707   0.65771   0.12680   0.12680
 kpt#   5, nband=  4, wtk=  0.06250, kpt= -0.2500  0.2500  0.2500 (reduced coord)
  -0.25114   0.33941   0.20389  -0.04840
 kpt#   6, nband=  4, wtk=  0.06250, kpt=  0.5000  0.5000  0.2500 (reduced coord)
   0.18839  -0.15327  -0.20681  -0.06427
 kpt#   7, nband=  4, wtk=  0.06250, kpt= -0.2500  0.5000  0.5000 (reduced coord)
   0.12564   0.03288  -0.20974  -0.17694
 kpt#   8, nband=  4, wtk=  0.06250, kpt=  0.0000 -0.2500  0.0000 (reduced coord)
   0.07569  -0.21924  -0.04227  -0.04227
 kpt#   9, nband=  4, wtk=  0.06250, kpt=  0.2500 -0.2500  0.2500 (reduced coord)
   0.18839  -0.15327  -0.20681  -0.06427
 kpt#  10, nband=  4, wtk=  0.06250, kpt=  0.5000 -0.2500  0.5000 (reduced coord)
  -0.18839   0.15327   0.20681   0.06427
 kpt#  11, nband=  4, wtk=  0.06250, kpt= -0.2500 -0.2500 -0.2500 (reduced coord)
  -0.07569   0.21924   0.04227   0.04227
 kpt#  12, nband=  4, wtk=  0.06250, kpt=  0.5000  0.0000  0.2500 (reduced coord)
   0.25114  -0.33941  -0.20389   0.04840
 kpt#  13, nband=  4, wtk=  0.06250, kpt= -0.2500  0.0000  0.5000 (reduced coord)
  -0.12564  -0.03288   0.20974   0.17694
 kpt#  14, nband=  4, wtk=  0.06250, kpt=  0.0000  0.5000  0.2500 (reduced coord)
  -0.18839   0.15327   0.20681   0.06427
 kpt#  15, nband=  4, wtk=  0.06250, kpt=  0.0000 -0.2500  0.5000 (reduced coord)
   0.18839  -0.15327  -0.20681  -0.06427
 kpt#  16, nband=  4, wtk=  0.06250, kpt=  0.0000  0.0000  0.2500 (reduced coord)
  -0.07569   0.21924   0.04227   0.04227

 Eight components of 2nd-order total energy (hartree) are
 1,2,3: 0th-order hamiltonian combined with 1st-order wavefunctions
     kin0=   3.93311172E+01 eigvalue=  -1.08507537E+01  local=  -3.60066753E+01
 4,5,6: 1st-order hamiltonian combined with 1st and 0th-order wfs
     kin1=  -2.27668781E+01  Hartree=   0.00000000E+00     xc=   0.00000000E+00
 7,8,9: eventually, occupation + non-local contributions
    edocc=   0.00000000E+00     enl0=   1.81804173E+01   enl1=   1.45866729E+00
 1-9 gives the relaxation energy (to be shifted if some occ is /=2.0)
   erelax=  -1.06541054E+01
  No Ewald or frozen-wf contrib.: the relaxation energy is the total one
 2DEtotal=   -0.1065410539E+02 Ha. Also 2DEtotal=   -0.289912951555E+03 eV
    (  non-var. 2DEtotal :   -1.0654105394E+01 Ha)
================================================================================

 ---- first-order wavefunction calculations are completed ----


 Total localisation tensor (bohr^2) in cartesian coordinates
  WARNING : still subject to testing - especially symmetries.
      direction              matrix element
   alpha     beta       real part   imaginary part
     1        1       0.0000000000    0.0000000000
     1        2       0.0000000000    0.0000000000
     1        3       0.0000000000    0.0000000000
     2        1       0.0000000000    0.0000000000
     2        2       2.8983497275    0.0000000000
     2        3       2.8983497275    0.0000000000
     3        1       0.0000000000    0.0000000000
     3        2       2.8983497275    0.0000000000
     3        3       2.8983497275    0.0000000000

 WARNING : Localization tensor calculation (this does not apply to other properties).
  Not all d/dk perturbations were computed. So the localization tensor in reciprocal space is incomplete,
  and transformation to cartesian coordinates may be wrong.

 respfn : d/dk was computed, but no 2DTE, so no DDB output.

================================================================================
== DATASET  3 ==================================================================
-   nproc =    1

 mkfilename : getwfk/=0, take file _WFK from output of DATASET   1.

 mkfilename : getddk/=0, take file _1WF from output of DATASET   2.

 Exchange-correlation functional for the present dataset will be:
  GGA: Perdew-Burke-Ernzerhof functional - ixc=11
 Citation for XC functional:
  J.P.Perdew, K.Burke, M.Ernzerhof, PRL 77, 3865 (1996)

 Real(R)+Recip(G) space primitive vectors, cartesian coordinates (Bohr,Bohr^-1):
 R(1)=  0.0000000  5.1300000  5.1300000  G(1)= -0.0974659  0.0974659  0.0974659
 R(2)=  5.1300000  0.0000000  5.1300000  G(2)=  0.0974659 -0.0974659  0.0974659
 R(3)=  5.1300000  5.1300000  0.0000000  G(3)=  0.0974659  0.0974659 -0.0974659
 Unit cell volume ucvol=  2.7001139E+02 bohr^3
 Angles (23,13,12)=  6.00000000E+01  6.00000000E+01  6.00000000E+01 degrees

 getcut: wavevector=  0.0000  0.0000  0.0000  ngfft=  16  16  16
         ecut(hartree)=      6.000   => boxcut(ratio)=   2.00008
--------------------------------------------------------------------------------

-inwffil : will read wavefunctions from disk file t16o_DS1_WFK
- newkpt: read input wf with ikpt,npw=   1     188, make ikpt,npw=   1     188
- newkpt: read input wf with ikpt,npw=   1     188, make ikpt,npw=   2     188
- newkpt: read input wf with ikpt,npw=   1     188, make ikpt,npw=   3     188
- newkpt: read input wf with ikpt,npw=   2     187, make ikpt,npw=   4     187
- newkpt: read input wf with ikpt,npw=   1     188, make ikpt,npw=   5     188
- newkpt: read input wf with ikpt,npw=   1     188, make ikpt,npw=   6     188
- newkpt: read input wf with ikpt,npw=   1     188, make ikpt,npw=   7     188
- newkpt: read input wf with ikpt,npw=   2     187, make ikpt,npw=   8     187
- newkpt: read input wf with ikpt,npw=   1     188, make ikpt,npw=   9     188
- newkpt: read input wf with ikpt,npw=   1     188, make ikpt,npw=  10     188
- newkpt: read input wf with ikpt,npw=   2     187, make ikpt,npw=  11     187
- newkpt: read input wf with ikpt,npw=   1     188, make ikpt,npw=  12     188
- newkpt: read input wf with ikpt,npw=   1     188, make ikpt,npw=  13     188
- newkpt: read input wf with ikpt,npw=   1     188, make ikpt,npw=  14     188
- newkpt: read input wf with ikpt,npw=   1     188, make ikpt,npw=  15     188
- newkpt: read input wf with ikpt,npw=   2     187, make ikpt,npw=  16     187


 ==>  initialize data related to q vector <== 

 The list of irreducible perturbations for this q vector is:
    1)    idir= 1    ipert=   1
    2)    idir= 1    ipert=   4

================================================================================

 The perturbation idir=   2  ipert=   1 is
 symmetric of a previously calculated perturbation.
 So, its SCF calculation is not needed.


 The perturbation idir=   3  ipert=   1 is
 symmetric of a previously calculated perturbation.
 So, its SCF calculation is not needed.


 The perturbation idir=   1  ipert=   2 is
 symmetric of a previously calculated perturbation.
 So, its SCF calculation is not needed.


 The perturbation idir=   2  ipert=   2 is
 symmetric of a previously calculated perturbation.
 So, its SCF calculation is not needed.


 The perturbation idir=   3  ipert=   2 is
 symmetric of a previously calculated perturbation.
 So, its SCF calculation is not needed.


 The perturbation idir=   2  ipert=   4 is
 symmetric of a previously calculated perturbation.
 So, its SCF calculation is not needed.


 The perturbation idir=   3  ipert=   4 is
 symmetric of a previously calculated perturbation.
 So, its SCF calculation is not needed.


--------------------------------------------------------------------------------
 Perturbation wavevector (in red.coord.)   0.000000  0.000000  0.000000
 Perturbation : displacement of atom   1   along direction   1
 Found     2 symmetries that leave the perturbation invariant.
 symkpt : the number of k-points, thanks to the symmetries,
 is reduced to    10 .

--------------------------------------------------------------------------------

-inwffil : will read wavefunctions from disk file t16o_DS1_WFK
- newkpt: read input wf with ikpt,npw=   1     188, make ikpt,npw=   1     188
- newkpt: read input wf with ikpt,npw=   1     188, make ikpt,npw=   2     188
- newkpt: read input wf with ikpt,npw=   1     188, make ikpt,npw=   3     188
- newkpt: read input wf with ikpt,npw=   2     187, make ikpt,npw=   4     187
- newkpt: read input wf with ikpt,npw=   1     188, make ikpt,npw=   5     188
- newkpt: read input wf with ikpt,npw=   1     188, make ikpt,npw=   6     188
- newkpt: read input wf with ikpt,npw=   1     188, make ikpt,npw=   7     188
- newkpt: read input wf with ikpt,npw=   2     187, make ikpt,npw=   8     187
- newkpt: read input wf with ikpt,npw=   2     187, make ikpt,npw=   9     187
- newkpt: read input wf with ikpt,npw=   1     188, make ikpt,npw=  10     188

--------------------------------------------------------------------------------

-inwffil : will read wavefunctions from disk file t16o_DS1_WFK
- newkpt: read input wf with ikpt,npw=   1     188, make ikpt,npw=   1     188
- newkpt: read input wf with ikpt,npw=   1     188, make ikpt,npw=   2     188
- newkpt: read input wf with ikpt,npw=   1     188, make ikpt,npw=   3     188
- newkpt: read input wf with ikpt,npw=   2     187, make ikpt,npw=   4     187
- newkpt: read input wf with ikpt,npw=   1     188, make ikpt,npw=   5     188
- newkpt: read input wf with ikpt,npw=   1     188, make ikpt,npw=   6     188
- newkpt: read input wf with ikpt,npw=   1     188, make ikpt,npw=   7     188
- newkpt: read input wf with ikpt,npw=   2     187, make ikpt,npw=   8     187
- newkpt: read input wf with ikpt,npw=   2     187, make ikpt,npw=   9     187
- newkpt: read input wf with ikpt,npw=   1     188, make ikpt,npw=  10     188

 Initialisation of the first-order wave-functions :
  ireadwf=   0
P newkpt: treating      4 bands with npw=     188 for ikpt=   1 by node    0
P newkpt: treating      4 bands with npw=     188 for ikpt=   2 by node    0
P newkpt: treating      4 bands with npw=     188 for ikpt=   3 by node    0
P newkpt: treating      4 bands with npw=     187 for ikpt=   4 by node    0
P newkpt: treating      4 bands with npw=     188 for ikpt=   5 by node    0
P newkpt: treating      4 bands with npw=     188 for ikpt=   6 by node    0
P newkpt: treating      4 bands with npw=     188 for ikpt=   7 by node    0
P newkpt: treating      4 bands with npw=     187 for ikpt=   8 by node    0
P newkpt: treating      4 bands with npw=     187 for ikpt=   9 by node    0
P newkpt: treating      4 bands with npw=     188 for ikpt=  10 by node    0


     iter   2DEtotal(Ha)        deltaE(Ha) residm    vres2
-ETOT  1   15.634956683279     -4.162E+01 7.349E-02 2.221E+03
 ETOT  2   7.5468273173281     -8.088E+00 5.041E-03 9.670E+00
 ETOT  3   7.5187145496675     -2.811E-02 1.934E-05 1.008E+00
 ETOT  4   7.5167009011210     -2.014E-03 1.514E-06 4.288E-02
 ETOT  5   7.5166356089886     -6.529E-05 5.309E-08 1.115E-03
 ETOT  6   7.5166347415376     -8.675E-07 1.013E-09 3.395E-04
 ETOT  7   7.5166341997008     -5.418E-07 7.520E-10 3.196E-05
 ETOT  8   7.5166341528770     -4.682E-08 3.797E-11 1.627E-06
 ETOT  9   7.5166341498041     -3.073E-09 2.480E-12 3.570E-08
 ETOT 10   7.5166341497355     -6.862E-11 6.229E-13 3.193E-09

 At SCF step   10   max residual=  6.23E-13 < tolwfr=  1.00E-12 =>converged.
-open ddk wf file :t16o_DS2_1WF7
================================================================================

 ----iterations are completed or convergence reached----

 Mean square residual over all n,k,spin=   3.4886E-13; max=  6.2288E-13
  -0.2500  0.5000  0.0000    1  4.04979E-13 kpt; spin; max resid(k); each band:
  3.26E-13 3.58E-13 4.05E-13 3.42E-13
   0.5000 -0.2500  0.0000    1  5.19362E-13 kpt; spin; max resid(k); each band:
  3.16E-13 2.00E-13 5.19E-13 3.04E-13
  -0.2500 -0.2500  0.2500    1  5.12312E-13 kpt; spin; max resid(k); each band:
  2.69E-13 3.24E-13 3.11E-13 5.12E-13
  -0.2500  0.0000  0.0000    1  3.35909E-13 kpt; spin; max resid(k); each band:
  3.15E-13 2.86E-13 2.89E-13 3.36E-13
  -0.2500  0.2500  0.2500    1  4.70339E-13 kpt; spin; max resid(k); each band:
  2.25E-13 1.81E-13 4.31E-13 4.70E-13
   0.5000  0.5000  0.2500    1  4.74833E-13 kpt; spin; max resid(k); each band:
  2.21E-13 2.39E-13 4.40E-13 4.75E-13
  -0.2500  0.5000  0.5000    1  5.37308E-13 kpt; spin; max resid(k); each band:
  1.81E-13 2.57E-13 4.70E-13 5.37E-13
   0.0000 -0.2500  0.0000    1  5.33849E-13 kpt; spin; max resid(k); each band:
  2.14E-13 3.71E-13 3.88E-13 5.34E-13
  -0.2500 -0.2500 -0.2500    1  6.18239E-13 kpt; spin; max resid(k); each band:
  1.77E-13 2.93E-13 6.18E-13 4.46E-13
   0.0000  0.5000  0.2500    1  6.22881E-13 kpt; spin; max resid(k); each band:
  1.61E-13 2.47E-13 3.42E-13 6.23E-13

 Thirteen components of 2nd-order total energy (hartree) are
 1,2,3: 0th-order hamiltonian combined with 1st-order wavefunctions
     kin0=   6.77286556E+01 eigvalue=  -5.83803356E+00  local=  -5.28938435E+01
 4,5,6: 1st-order hamiltonian combined with 1st and 0th-order wfs
 loc psp =  -2.10852865E+01  Hartree=   1.42203849E+01     xc=  -6.36391125E+00
 note that "loc psp" includes a xc core correction that could be resolved
 7,8,9: eventually, occupation + non-local contributions
    edocc=   0.00000000E+00     enl0=   3.28804508E+01   enl1=  -7.83821242E+01
 1-9 gives the relaxation energy (to be shifted if some occ is /=2.0)
   erelax=  -4.97337078E+01
 10,11,12 Non-relaxation  contributions : frozen-wavefunctions and Ewald
 fr.local=  -1.10756277E+00 fr.nonlo=   4.67757777E+01  Ewald=   1.30644529E+01
 13,14 Frozen wf xc core corrections (1) and (2)
 frxc 1  =  -8.68468772E+00  frxc 2 =   7.20236182E+00
 Resulting in :
 2DEtotal=    0.7516634150E+01 Ha. Also 2DEtotal=    0.204538017184E+03 eV
    (2DErelax=   -4.9733707760E+01 Ha. 2DEnonrelax=    5.7250341910E+01 Ha)
    (  non-var. 2DEtotal :    7.5166365885E+00 Ha)


--------------------------------------------------------------------------------
 Perturbation wavevector (in red.coord.)   0.000000  0.000000  0.000000
 Perturbation : homogeneous electric field along direction   1
 The set of symmetries contains only one element for this perturbation.
 symkpt : not enough symmetry to change the number of k points.

--------------------------------------------------------------------------------

-inwffil : will read wavefunctions from disk file t16o_DS1_WFK
- newkpt: read input wf with ikpt,npw=   1     188, make ikpt,npw=   1     188
- newkpt: read input wf with ikpt,npw=   1     188, make ikpt,npw=   2     188
- newkpt: read input wf with ikpt,npw=   1     188, make ikpt,npw=   3     188
- newkpt: read input wf with ikpt,npw=   2     187, make ikpt,npw=   4     187
- newkpt: read input wf with ikpt,npw=   1     188, make ikpt,npw=   5     188
- newkpt: read input wf with ikpt,npw=   1     188, make ikpt,npw=   6     188
- newkpt: read input wf with ikpt,npw=   1     188, make ikpt,npw=   7     188
- newkpt: read input wf with ikpt,npw=   2     187, make ikpt,npw=   8     187
- newkpt: read input wf with ikpt,npw=   1     188, make ikpt,npw=   9     188
- newkpt: read input wf with ikpt,npw=   1     188, make ikpt,npw=  10     188
- newkpt: read input wf with ikpt,npw=   2     187, make ikpt,npw=  11     187
- newkpt: read input wf with ikpt,npw=   1     188, make ikpt,npw=  12     188
- newkpt: read input wf with ikpt,npw=   1     188, make ikpt,npw=  13     188
- newkpt: read input wf with ikpt,npw=   1     188, make ikpt,npw=  14     188
- newkpt: read input wf with ikpt,npw=   1     188, make ikpt,npw=  15     188
- newkpt: read input wf with ikpt,npw=   2     187, make ikpt,npw=  16     187

--------------------------------------------------------------------------------

-inwffil : will read wavefunctions from disk file t16o_DS1_WFK
- newkpt: read input wf with ikpt,npw=   1     188, make ikpt,npw=   1     188
- newkpt: read input wf with ikpt,npw=   1     188, make ikpt,npw=   2     188
- newkpt: read input wf with ikpt,npw=   1     188, make ikpt,npw=   3     188
- newkpt: read input wf with ikpt,npw=   2     187, make ikpt,npw=   4     187
- newkpt: read input wf with ikpt,npw=   1     188, make ikpt,npw=   5     188
- newkpt: read input wf with ikpt,npw=   1     188, make ikpt,npw=   6     188
- newkpt: read input wf with ikpt,npw=   1     188, make ikpt,npw=   7     188
- newkpt: read input wf with ikpt,npw=   2     187, make ikpt,npw=   8     187
- newkpt: read input wf with ikpt,npw=   1     188, make ikpt,npw=   9     188
- newkpt: read input wf with ikpt,npw=   1     188, make ikpt,npw=  10     188
- newkpt: read input wf with ikpt,npw=   2     187, make ikpt,npw=  11     187
- newkpt: read input wf with ikpt,npw=   1     188, make ikpt,npw=  12     188
- newkpt: read input wf with ikpt,npw=   1     188, make ikpt,npw=  13     188
- newkpt: read input wf with ikpt,npw=   1     188, make ikpt,npw=  14     188
- newkpt: read input wf with ikpt,npw=   1     188, make ikpt,npw=  15     188
- newkpt: read input wf with ikpt,npw=   2     187, make ikpt,npw=  16     187

 Initialisation of the first-order wave-functions :
  ireadwf=   0
P newkpt: treating      4 bands with npw=     188 for ikpt=   1 by node    0
P newkpt: treating      4 bands with npw=     188 for ikpt=   2 by node    0
P newkpt: treating      4 bands with npw=     188 for ikpt=   3 by node    0
P newkpt: treating      4 bands with npw=     187 for ikpt=   4 by node    0
P newkpt: treating      4 bands with npw=     188 for ikpt=   5 by node    0
P newkpt: treating      4 bands with npw=     188 for ikpt=   6 by node    0
P newkpt: treating      4 bands with npw=     188 for ikpt=   7 by node    0
P newkpt: treating      4 bands with npw=     187 for ikpt=   8 by node    0
P newkpt: treating      4 bands with npw=     188 for ikpt=   9 by node    0
P newkpt: treating      4 bands with npw=     188 for ikpt=  10 by node    0
P newkpt: treating      4 bands with npw=     187 for ikpt=  11 by node    0
P newkpt: treating      4 bands with npw=     188 for ikpt=  12 by node    0
P newkpt: treating      4 bands with npw=     188 for ikpt=  13 by node    0
P newkpt: treating      4 bands with npw=     188 for ikpt=  14 by node    0
P newkpt: treating      4 bands with npw=     188 for ikpt=  15 by node    0
P newkpt: treating      4 bands with npw=     187 for ikpt=  16 by node    0

-loper3 : read the ddk wavefunctions from file: t16o_DS2_1WF7

     iter   2DEtotal(Ha)        deltaE(Ha) residm    vres2
-ETOT  1  -504.97995845968     -5.050E+02 1.221E+00 1.888E+03
 ETOT  2  -513.18731779741     -8.207E+00 7.603E-03 4.973E+01
 ETOT  3  -513.30982204665     -1.225E-01 1.137E-04 1.528E+00
 ETOT  4  -513.31157178101     -1.750E-03 1.853E-06 2.254E-01
 ETOT  5  -513.31186562876     -2.938E-04 2.742E-07 8.160E-03
 ETOT  6  -513.31188172267     -1.609E-05 8.152E-09 7.347E-04
 ETOT  7  -513.31188310865     -1.386E-06 7.338E-10 7.713E-05
 ETOT  8  -513.31188325898     -1.503E-07 8.824E-11 8.187E-06
 ETOT  9  -513.31188327556     -1.659E-08 1.422E-11 8.217E-07
 ETOT 10  -513.31188327726     -1.695E-09 9.862E-13 9.033E-08

 At SCF step   10   max residual=  9.86E-13 < tolwfr=  1.00E-12 =>converged.
-open ddk wf file :t16o_DS2_1WF7
================================================================================

 ----iterations are completed or convergence reached----

 Mean square residual over all n,k,spin=   5.0821E-13; max=  9.8616E-13
  -0.2500  0.5000  0.0000    1  9.86160E-13 kpt; spin; max resid(k); each band:
  9.86E-13 5.52E-14 4.30E-13 6.31E-13
   0.5000 -0.2500  0.0000    1  7.28661E-13 kpt; spin; max resid(k); each band:
  7.39E-14 7.29E-13 1.20E-13 3.97E-13
  -0.2500 -0.2500  0.2500    1  9.48499E-13 kpt; spin; max resid(k); each band:
  1.77E-13 9.48E-13 9.39E-13 4.08E-13
  -0.2500  0.0000  0.0000    1  6.40464E-13 kpt; spin; max resid(k); each band:
  1.30E-13 1.45E-13 6.40E-13 6.40E-13
  -0.2500  0.2500  0.2500    1  7.29156E-13 kpt; spin; max resid(k); each band:
  7.39E-14 7.29E-13 1.21E-13 3.97E-13
   0.5000  0.5000  0.2500    1  9.49531E-13 kpt; spin; max resid(k); each band:
  1.77E-13 9.50E-13 9.39E-13 4.08E-13
  -0.2500  0.5000  0.5000    1  9.85524E-13 kpt; spin; max resid(k); each band:
  9.86E-13 5.52E-14 4.31E-13 6.31E-13
   0.0000 -0.2500  0.0000    1  9.12994E-13 kpt; spin; max resid(k); each band:
  2.56E-13 2.08E-13 5.76E-13 9.13E-13
   0.2500 -0.2500  0.2500    1  9.45650E-13 kpt; spin; max resid(k); each band:
  1.77E-13 9.46E-13 9.33E-13 4.12E-13
   0.5000 -0.2500  0.5000    1  9.45226E-13 kpt; spin; max resid(k); each band:
  1.77E-13 9.45E-13 9.33E-13 4.12E-13
  -0.2500 -0.2500 -0.2500    1  9.21636E-13 kpt; spin; max resid(k); each band:
  2.56E-13 2.08E-13 9.22E-13 5.64E-13
   0.5000  0.0000  0.2500    1  7.32127E-13 kpt; spin; max resid(k); each band:
  7.32E-14 7.32E-13 1.20E-13 3.97E-13
  -0.2500  0.0000  0.5000    1  9.78944E-13 kpt; spin; max resid(k); each band:
  9.79E-13 5.52E-14 4.31E-13 6.31E-13
   0.0000  0.5000  0.2500    1  9.49551E-13 kpt; spin; max resid(k); each band:
  1.77E-13 9.50E-13 9.38E-13 4.08E-13
   0.0000 -0.2500  0.5000    1  9.48096E-13 kpt; spin; max resid(k); each band:
  1.77E-13 9.48E-13 9.39E-13 4.08E-13
   0.0000  0.0000  0.2500    1  7.64687E-13 kpt; spin; max resid(k); each band:
  2.56E-13 2.08E-13 7.46E-13 7.65E-13

 Seven components of 2nd-order total energy (hartree) are
 1,2,3: 0th-order hamiltonian combined with 1st-order wavefunctions
     kin0=   2.33363013E+03 eigvalue=  -7.03850907E+02  local=  -2.37389025E+03
 4,5,6: 1st-order hamiltonian combined with 1st and 0th-order wfs
    dotwf=  -1.02662356E+03  Hartree=   5.31736183E+01     xc=  -4.09707397E+01
 7,8,9: eventually, occupation + non-local contributions
    edocc=   0.00000000E+00     enl0=   1.24521982E+03   enl1=   0.00000000E+00
 1-9 gives the relaxation energy (to be shifted if some occ is /=2.0)
   erelax=  -5.13311883E+02
  No Ewald or frozen-wf contrib.: the relaxation energy is the total one
 2DEtotal=   -0.5133118833E+03 Ha. Also 2DEtotal=   -0.139679266958E+05 eV
    (  non-var. 2DEtotal :   -5.1331177796E+02 Ha)
================================================================================

 ---- first-order wavefunction calculations are completed ----


 ==> Compute Derivative Database <==
  
  2nd-order matrix (non-cartesian coordinates, masses not included,
   asr not included )
     j1       j2             matrix element
  dir pert dir pert     real part     imaginary part
  
   1    1   1    1         7.5166365809         0.0000000000
   1    1   2    1         3.7583182904         0.0000000000
   1    1   3    1         3.7583182904         0.0000000000
   1    1   1    2        -7.5166191098        -0.0000000000
   1    1   2    2        -3.7583095549        -0.0000000000
   1    1   3    2        -3.7583095549        -0.0000000000
   1    1   1    4       -31.7860737629         0.0000000000
   1    1   2    4         0.0000000000         0.0000000000
   1    1   3    4         0.0000000000         0.0000000000
  
   2    1   1    1         3.7583182904         0.0000000000
   2    1   2    1         7.5166365809         0.0000000000
   2    1   3    1         3.7583182904         0.0000000000
   2    1   1    2        -3.7583095549        -0.0000000000
   2    1   2    2        -7.5166191098        -0.0000000000
   2    1   3    2        -3.7583095549        -0.0000000000
   2    1   1    4         0.0000000000         0.0000000000
   2    1   2    4       -31.7860737629         0.0000000000
   2    1   3    4        -0.0000000000         0.0000000000
  
   3    1   1    1         3.7583182904         0.0000000000
   3    1   2    1         3.7583182904         0.0000000000
   3    1   3    1         7.5166365809         0.0000000000
   3    1   1    2        -3.7583095549        -0.0000000000
   3    1   2    2        -3.7583095549        -0.0000000000
   3    1   3    2        -7.5166191098         0.0000000000
   3    1   1    4         0.0000000000         0.0000000000
   3    1   2    4        -0.0000000000         0.0000000000
   3    1   3    4       -31.7860737629         0.0000000000
  
   1    2   1    1        -7.5166191098         0.0000000000
   1    2   2    1        -3.7583095549         0.0000000000
   1    2   3    1        -3.7583095549         0.0000000000
   1    2   1    2         7.5166365809         0.0000000000
   1    2   2    2         3.7583182904         0.0000000000
   1    2   3    2         3.7583182904         0.0000000000
   1    2   1    4       -31.7860737629         0.0000000000
   1    2   2    4         0.0000000000         0.0000000000
   1    2   3    4         0.0000000000         0.0000000000
  
   2    2   1    1        -3.7583095549         0.0000000000
   2    2   2    1        -7.5166191098         0.0000000000
   2    2   3    1        -3.7583095549         0.0000000000
   2    2   1    2         3.7583182904         0.0000000000
   2    2   2    2         7.5166365809         0.0000000000
   2    2   3    2         3.7583182904         0.0000000000
   2    2   1    4         0.0000000000         0.0000000000
   2    2   2    4       -31.7860737629         0.0000000000
   2    2   3    4         0.0000000000         0.0000000000
  
   3    2   1    1        -3.7583095549         0.0000000000
   3    2   2    1        -3.7583095549         0.0000000000
   3    2   3    1        -7.5166191098        -0.0000000000
   3    2   1    2         3.7583182904         0.0000000000
   3    2   2    2         3.7583182904         0.0000000000
   3    2   3    2         7.5166365809         0.0000000000
   3    2   1    4         0.0000000000         0.0000000000
   3    2   2    4        -0.0000000000         0.0000000000
   3    2   3    4       -31.7860737629         0.0000000000
  
   1    4   1    1       -31.7860759149         0.0000000000
   1    4   2    1         0.0000000000         0.0000000000
   1    4   3    1         0.0000000000         0.0000000000
   1    4   1    2       -31.7860759149         0.0000000000
   1    4   2    2         0.0000000000         0.0000000000
   1    4   3    2         0.0000000000         0.0000000000
   1    4   1    4      -513.3117779588         0.0000000000
   1    4   2    4       171.1039259863         0.0000000000
   1    4   3    4       171.1039259863         0.0000000000
  
   2    4   1    1        -0.0000000000         0.0000000000
   2    4   2    1       -31.7860759149         0.0000000000
   2    4   3    1         0.0000000000         0.0000000000
   2    4   1    2        -0.0000000000         0.0000000000
   2    4   2    2       -31.7860759149         0.0000000000
   2    4   3    2         0.0000000000         0.0000000000
   2    4   1    4       171.1039259863         0.0000000000
   2    4   2    4      -513.3117779588         0.0000000000
   2    4   3    4       171.1039259863         0.0000000000
  
   3    4   1    1         0.0000000000         0.0000000000
   3    4   2    1         0.0000000000         0.0000000000
   3    4   3    1       -31.7860759149         0.0000000000
   3    4   1    2         0.0000000000         0.0000000000
   3    4   2    2         0.0000000000         0.0000000000
   3    4   3    2       -31.7860759149         0.0000000000
   3    4   1    4       171.1039259863         0.0000000000
   3    4   2    4       171.1039259863         0.0000000000
   3    4   3    4      -513.3117779588         0.0000000000
  
  
  Dynamical matrix, in cartesian coordinates,
   if specified in the inputs, asr has been imposed
     j1       j2             matrix element
  dir pert dir pert     real part    imaginary part
  
   1    1   1    1         0.1428100685         0.0000000000
   1    1   2    1        -0.0000000000         0.0000000000
   1    1   3    1         0.0000000000         0.0000000000
[...]
                       0 -1  1   0 -1  0   1 -1  0       0  1 -1   0  1  0  -1  1  0
                      -1  0  0  -1  0  1  -1  1  0       1  0  0   1  0 -1   1 -1  0
                       0  1 -1   1  0 -1   0  0 -1       0 -1  1  -1  0  1   0  0  1
                      -1  0  0  -1  1  0  -1  0  1       1  0  0   1 -1  0   1  0 -1
                       0 -1  1   1 -1  0   0 -1  0       0  1 -1  -1  1  0   0  1  0
                       1  0  0   0  0  1   0  1  0      -1  0  0   0  0 -1   0 -1  0
                       0  1 -1   0  0 -1   1  0 -1       0 -1  1   0  0  1  -1  0  1
                      -1  0  1  -1  1  0  -1  0  0       1  0 -1   1 -1  0   1  0  0
                       0 -1  0   1 -1  0   0 -1  1       0  1  0  -1  1  0   0  1 -1
                       1  0 -1   0  0 -1   0  1 -1      -1  0  1   0  0  1   0 -1  1
                       0  1  0   0  0  1   1  0  0       0 -1  0   0  0 -1  -1  0  0
                       1  0 -1   0  1 -1   0  0 -1      -1  0  1   0 -1  1   0  0  1
                       0 -1  0   0 -1  1   1 -1  0       0  1  0   0  1 -1  -1  1  0
                      -1  0  1  -1  0  0  -1  1  0       1  0 -1   1  0  0   1 -1  0
                       0  1  0   1  0  0   0  0  1       0 -1  0  -1  0  0   0  0 -1
                       0  0 -1   0  1 -1   1  0 -1       0  0  1   0 -1  1  -1  0  1
                       1 -1  0   0 -1  1   0 -1  0      -1  1  0   0  1 -1   0  1  0
                       0  0  1   1  0  0   0  1  0       0  0 -1  -1  0  0   0 -1  0
                      -1  1  0  -1  0  0  -1  0  1       1 -1  0   1  0  0   1  0 -1
                       0  0  1   0  1  0   1  0  0       0  0 -1   0 -1  0  -1  0  0
                       1 -1  0   0 -1  0   0 -1  1      -1  1  0   0  1  0   0  1 -1
                       0  0 -1   1  0 -1   0  1 -1       0  0  1  -1  0  1   0 -1  1
                      -1  1  0  -1  0  1  -1  0  0       1 -1  0   1  0 -1   1  0  0
           symrel3     1  0  0   0  1  0   0  0  1      -1  0  0   0 -1  0   0  0 -1
                       0 -1  1   0 -1  0   1 -1  0       0  1 -1   0  1  0  -1  1  0
                      -1  0  0  -1  0  1  -1  1  0       1  0  0   1  0 -1   1 -1  0
                       0  1 -1   1  0 -1   0  0 -1       0 -1  1  -1  0  1   0  0  1
                      -1  0  0  -1  1  0  -1  0  1       1  0  0   1 -1  0   1  0 -1
                       0 -1  1   1 -1  0   0 -1  0       0  1 -1  -1  1  0   0  1  0
                       1  0  0   0  0  1   0  1  0      -1  0  0   0  0 -1   0 -1  0
                       0  1 -1   0  0 -1   1  0 -1       0 -1  1   0  0  1  -1  0  1
                      -1  0  1  -1  1  0  -1  0  0       1  0 -1   1 -1  0   1  0  0
                       0 -1  0   1 -1  0   0 -1  1       0  1  0  -1  1  0   0  1 -1
                       1  0 -1   0  0 -1   0  1 -1      -1  0  1   0  0  1   0 -1  1
                       0  1  0   0  0  1   1  0  0       0 -1  0   0  0 -1  -1  0  0
                       1  0 -1   0  1 -1   0  0 -1      -1  0  1   0 -1  1   0  0  1
                       0 -1  0   0 -1  1   1 -1  0       0  1  0   0  1 -1  -1  1  0
                      -1  0  1  -1  0  0  -1  1  0       1  0 -1   1  0  0   1 -1  0
                       0  1  0   1  0  0   0  0  1       0 -1  0  -1  0  0   0  0 -1
                       0  0 -1   0  1 -1   1  0 -1       0  0  1   0 -1  1  -1  0  1
                       1 -1  0   0 -1  1   0 -1  0      -1  1  0   0  1 -1   0  1  0
                       0  0  1   1  0  0   0  1  0       0  0 -1  -1  0  0   0 -1  0
                      -1  1  0  -1  0  0  -1  0  1       1 -1  0   1  0  0   1  0 -1
                       0  0  1   0  1  0   1  0  0       0  0 -1   0 -1  0  -1  0  0
                       1 -1  0   0 -1  0   0 -1  1      -1  1  0   0  1  0   0  1 -1
                       0  0 -1   1  0 -1   0  1 -1       0  0  1  -1  0  1   0 -1  1
                      -1  1  0  -1  0  1  -1  0  0       1 -1  0   1  0 -1   1  0  0
           symrel4     1  0  0   0  1  0   0  0  1      -1  0  0   0 -1  0   0  0 -1
                       1  0  0   0  0  1   0  1  0      -1  0  0   0  0 -1   0 -1  0
                       0  1  0   0  0  1   1  0  0       0 -1  0   0  0 -1  -1  0  0
                       0  1  0   1  0  0   0  0  1       0 -1  0  -1  0  0   0  0 -1
                       0  0  1   1  0  0   0  1  0       0  0 -1  -1  0  0   0 -1  0
                       0  0  1   0  1  0   1  0  0       0  0 -1   0 -1  0  -1  0  0
           symrel5     1  0  0   0  1  0   0  0  1      -1  0  0   0 -1  0   0  0 -1
                       1  0  0   0  0  1   0  1  0      -1  0  0   0  0 -1   0 -1  0
                       0  1  0   0  0  1   1  0  0       0 -1  0   0  0 -1  -1  0  0
                       0  1  0   1  0  0   0  0  1       0 -1  0  -1  0  0   0  0 -1
                       0  0  1   1  0  0   0  1  0       0  0 -1  -1  0  0   0 -1  0
                       0  0  1   0  1  0   1  0  0       0  0 -1   0 -1  0  -1  0  0
            tnons1     0.0000000  0.0000000  0.0000000     0.2500000  0.2500000  0.2500000
                       0.0000000  0.0000000  0.0000000     0.2500000  0.2500000  0.2500000
                       0.0000000  0.0000000  0.0000000     0.2500000  0.2500000  0.2500000
                       0.0000000  0.0000000  0.0000000     0.2500000  0.2500000  0.2500000
                       0.0000000  0.0000000  0.0000000     0.2500000  0.2500000  0.2500000
                       0.0000000  0.0000000  0.0000000     0.2500000  0.2500000  0.2500000
                       0.0000000  0.0000000  0.0000000     0.2500000  0.2500000  0.2500000
                       0.0000000  0.0000000  0.0000000     0.2500000  0.2500000  0.2500000
                       0.0000000  0.0000000  0.0000000     0.2500000  0.2500000  0.2500000
                       0.0000000  0.0000000  0.0000000     0.2500000  0.2500000  0.2500000
                       0.0000000  0.0000000  0.0000000     0.2500000  0.2500000  0.2500000
                       0.0000000  0.0000000  0.0000000     0.2500000  0.2500000  0.2500000
                       0.0000000  0.0000000  0.0000000     0.2500000  0.2500000  0.2500000
                       0.0000000  0.0000000  0.0000000     0.2500000  0.2500000  0.2500000
                       0.0000000  0.0000000  0.0000000     0.2500000  0.2500000  0.2500000
                       0.0000000  0.0000000  0.0000000     0.2500000  0.2500000  0.2500000
                       0.0000000  0.0000000  0.0000000     0.2500000  0.2500000  0.2500000
                       0.0000000  0.0000000  0.0000000     0.2500000  0.2500000  0.2500000
                       0.0000000  0.0000000  0.0000000     0.2500000  0.2500000  0.2500000
                       0.0000000  0.0000000  0.0000000     0.2500000  0.2500000  0.2500000
                       0.0000000  0.0000000  0.0000000     0.2500000  0.2500000  0.2500000
                       0.0000000  0.0000000  0.0000000     0.2500000  0.2500000  0.2500000
                       0.0000000  0.0000000  0.0000000     0.2500000  0.2500000  0.2500000
                       0.0000000  0.0000000  0.0000000     0.2500000  0.2500000  0.2500000
            tnons2     0.0000000  0.0000000  0.0000000     0.2500000  0.2500000  0.2500000
                       0.0000000  0.0000000  0.0000000     0.2500000  0.2500000  0.2500000
                       0.0000000  0.0000000  0.0000000     0.2500000  0.2500000  0.2500000
                       0.0000000  0.0000000  0.0000000     0.2500000  0.2500000  0.2500000
                       0.0000000  0.0000000  0.0000000     0.2500000  0.2500000  0.2500000
                       0.0000000  0.0000000  0.0000000     0.2500000  0.2500000  0.2500000
                       0.0000000  0.0000000  0.0000000     0.2500000  0.2500000  0.2500000
                       0.0000000  0.0000000  0.0000000     0.2500000  0.2500000  0.2500000
                       0.0000000  0.0000000  0.0000000     0.2500000  0.2500000  0.2500000
                       0.0000000  0.0000000  0.0000000     0.2500000  0.2500000  0.2500000
                       0.0000000  0.0000000  0.0000000     0.2500000  0.2500000  0.2500000
                       0.0000000  0.0000000  0.0000000     0.2500000  0.2500000  0.2500000
                       0.0000000  0.0000000  0.0000000     0.2500000  0.2500000  0.2500000
                       0.0000000  0.0000000  0.0000000     0.2500000  0.2500000  0.2500000
                       0.0000000  0.0000000  0.0000000     0.2500000  0.2500000  0.2500000
                       0.0000000  0.0000000  0.0000000     0.2500000  0.2500000  0.2500000
                       0.0000000  0.0000000  0.0000000     0.2500000  0.2500000  0.2500000
                       0.0000000  0.0000000  0.0000000     0.2500000  0.2500000  0.2500000
                       0.0000000  0.0000000  0.0000000     0.2500000  0.2500000  0.2500000
                       0.0000000  0.0000000  0.0000000     0.2500000  0.2500000  0.2500000
                       0.0000000  0.0000000  0.0000000     0.2500000  0.2500000  0.2500000
                       0.0000000  0.0000000  0.0000000     0.2500000  0.2500000  0.2500000
                       0.0000000  0.0000000  0.0000000     0.2500000  0.2500000  0.2500000
                       0.0000000  0.0000000  0.0000000     0.2500000  0.2500000  0.2500000
            tnons3     0.0000000  0.0000000  0.0000000     0.2500000  0.2500000  0.2500000
                       0.0000000  0.0000000  0.0000000     0.2500000  0.2500000  0.2500000
                       0.0000000  0.0000000  0.0000000     0.2500000  0.2500000  0.2500000
                       0.0000000  0.0000000  0.0000000     0.2500000  0.2500000  0.2500000
                       0.0000000  0.0000000  0.0000000     0.2500000  0.2500000  0.2500000
                       0.0000000  0.0000000  0.0000000     0.2500000  0.2500000  0.2500000
                       0.0000000  0.0000000  0.0000000     0.2500000  0.2500000  0.2500000
                       0.0000000  0.0000000  0.0000000     0.2500000  0.2500000  0.2500000
                       0.0000000  0.0000000  0.0000000     0.2500000  0.2500000  0.2500000
                       0.0000000  0.0000000  0.0000000     0.2500000  0.2500000  0.2500000
                       0.0000000  0.0000000  0.0000000     0.2500000  0.2500000  0.2500000
                       0.0000000  0.0000000  0.0000000     0.2500000  0.2500000  0.2500000
                       0.0000000  0.0000000  0.0000000     0.2500000  0.2500000  0.2500000
                       0.0000000  0.0000000  0.0000000     0.2500000  0.2500000  0.2500000
                       0.0000000  0.0000000  0.0000000     0.2500000  0.2500000  0.2500000
                       0.0000000  0.0000000  0.0000000     0.2500000  0.2500000  0.2500000
                       0.0000000  0.0000000  0.0000000     0.2500000  0.2500000  0.2500000
                       0.0000000  0.0000000  0.0000000     0.2500000  0.2500000  0.2500000
                       0.0000000  0.0000000  0.0000000     0.2500000  0.2500000  0.2500000
                       0.0000000  0.0000000  0.0000000     0.2500000  0.2500000  0.2500000
                       0.0000000  0.0000000  0.0000000     0.2500000  0.2500000  0.2500000
                       0.0000000  0.0000000  0.0000000     0.2500000  0.2500000  0.2500000
                       0.0000000  0.0000000  0.0000000     0.2500000  0.2500000  0.2500000
                       0.0000000  0.0000000  0.0000000     0.2500000  0.2500000  0.2500000
            tnons4     0.0000000  0.0000000  0.0000000     0.2501000  0.2501000  0.2501000
                       0.0000000  0.0000000  0.0000000     0.2501000  0.2501000  0.2501000
                       0.0000000  0.0000000  0.0000000     0.2501000  0.2501000  0.2501000
                       0.0000000  0.0000000  0.0000000     0.2501000  0.2501000  0.2501000
                       0.0000000  0.0000000  0.0000000     0.2501000  0.2501000  0.2501000
                       0.0000000  0.0000000  0.0000000     0.2501000  0.2501000  0.2501000
            tnons5     0.0000000  0.0000000  0.0000000     0.2499000  0.2499000  0.2499000
                       0.0000000  0.0000000  0.0000000     0.2499000  0.2499000  0.2499000
                       0.0000000  0.0000000  0.0000000     0.2499000  0.2499000  0.2499000
                       0.0000000  0.0000000  0.0000000     0.2499000  0.2499000  0.2499000
                       0.0000000  0.0000000  0.0000000     0.2499000  0.2499000  0.2499000
                       0.0000000  0.0000000  0.0000000     0.2499000  0.2499000  0.2499000
           tolwfr1     1.00000000E-28
           tolwfr2     1.00000000E-28
           tolwfr3     1.00000000E-12
           tolwfr4     1.00000000E-28
           tolwfr5     1.00000000E-28
            typat      1  1
              wtk1       0.75000    0.25000
              wtk2       0.06250    0.06250    0.06250    0.06250    0.06250    0.06250
                         0.06250    0.06250    0.06250    0.06250    0.06250    0.06250
                         0.06250    0.06250    0.06250    0.06250
              wtk3       0.06250    0.06250    0.06250    0.06250    0.06250    0.06250
                         0.06250    0.06250    0.06250    0.06250    0.06250    0.06250
                         0.06250    0.06250    0.06250    0.06250
              wtk4       0.37500    0.18750    0.18750    0.18750    0.06250
              wtk5       0.37500    0.18750    0.18750    0.18750    0.06250
           xangst1     0.0000000000E+00  0.0000000000E+00  0.0000000000E+00
                       1.3573395400E+00  1.3573395400E+00  1.3573395400E+00
           xangst2     0.0000000000E+00  0.0000000000E+00  0.0000000000E+00
                       1.3573395400E+00  1.3573395400E+00  1.3573395400E+00
           xangst3     0.0000000000E+00  0.0000000000E+00  0.0000000000E+00
                       1.3573395400E+00  1.3573395400E+00  1.3573395400E+00
           xangst4     0.0000000000E+00  0.0000000000E+00  0.0000000000E+00
                       1.3578824758E+00  1.3578824758E+00  1.3578824758E+00
           xangst5     0.0000000000E+00  0.0000000000E+00  0.0000000000E+00
                       1.3567966042E+00  1.3567966042E+00  1.3567966042E+00
            xcart1     0.0000000000E+00  0.0000000000E+00  0.0000000000E+00
                       2.5650000000E+00  2.5650000000E+00  2.5650000000E+00
            xcart2     0.0000000000E+00  0.0000000000E+00  0.0000000000E+00
                       2.5650000000E+00  2.5650000000E+00  2.5650000000E+00
            xcart3     0.0000000000E+00  0.0000000000E+00  0.0000000000E+00
                       2.5650000000E+00  2.5650000000E+00  2.5650000000E+00
            xcart4     0.0000000000E+00  0.0000000000E+00  0.0000000000E+00
                       2.5660260000E+00  2.5660260000E+00  2.5660260000E+00
            xcart5     0.0000000000E+00  0.0000000000E+00  0.0000000000E+00
                       2.5639740000E+00  2.5639740000E+00  2.5639740000E+00
             xred1     0.0000000000E+00  0.0000000000E+00  0.0000000000E+00
                       2.5000000000E-01  2.5000000000E-01  2.5000000000E-01
             xred2     0.0000000000E+00  0.0000000000E+00  0.0000000000E+00
                       2.5000000000E-01  2.5000000000E-01  2.5000000000E-01
             xred3     0.0000000000E+00  0.0000000000E+00  0.0000000000E+00
                       2.5000000000E-01  2.5000000000E-01  2.5000000000E-01
             xred4     0.0000000000E+00  0.0000000000E+00  0.0000000000E+00
                       2.5010000000E-01  2.5010000000E-01  2.5010000000E-01
             xred5     0.0000000000E+00  0.0000000000E+00  0.0000000000E+00
                       2.4990000000E-01  2.4990000000E-01  2.4990000000E-01
            znucl       14.00000

================================================================================


- Timing analysis has been suppressed with timopt=0



================================================================================

 Suggested references for the acknowledgment of ABINIT usage.

 The users of ABINIT have little formal obligations with respect to the ABINIT group
 (those specified in the GNU General Public License, http://www.gnu.org/copyleft/gpl.txt).
 However, it is common practice in the scientific literature,
 to acknowledge the efforts of people that have made the research possible.
 In this spirit, please find below suggested citations of work written by ABINIT developers,
 corresponding to implementations inside of ABINIT that you have used in the present run.
 Note also that it will be of great value to readers of publications presenting these results,
 to read papers enabling them to understand the theoretical formalism and details
 of the ABINIT implementation.
 For information on why they are suggested, see also http://www.abinit.org/about/?text=acknowledgments.

 [1] First-principles responses of solids to atomic displacements and homogeneous electric fields:,
 implementation of a conjugate-gradient algorithm. X. Gonze, Phys. Rev. B55, 10337 (1997).
 Comment : Non-vanishing rfphon and/or rfelfd, in the norm-conserving case.

 [2] Dynamical matrices, Born effective charges, dielectric permittivity tensors, and ,
 interatomic force constants from density-functional perturbation theory,
 X. Gonze and C. Lee, Phys. Rev. B55, 10355 (1997).
 Comment : Non-vanishing rfphon and/or rfelfd, in the norm-conserving case.

 [3] ABINIT : First-principles approach of materials and nanosystem properties.
 X. Gonze, B. Amadon, P.-M. Anglade, J.-M. Beuken, F. Bottin, P. Boulanger, F. Bruneval,
 D. Caliste, R. Caracas, M. Cote, T. Deutsch, L. Genovese, Ph. Ghosez, M. Giantomassi
 S. Goedecker, D.R. Hamann, P. Hermet, F. Jollet, G. Jomard, S. Leroux, M. Mancini, S. Mazevet,
 M.J.T. Oliveira, G. Onida, Y. Pouillon, T. Rangel, G.-M. Rignanese, D. Sangalli, R. Shaltaf,
 M. Torrent, M.J. Verstraete, G. Zerah, J.W. Zwanziger
 Computer Phys. Comm. 180, 2582-2615 (2009).
 Comment : the third generic paper describing the ABINIT project.
 Note that a version of this paper, that is not formatted for Computer Phys. Comm. 
 is available at http://www.abinit.org/about/ABINIT_CPC_v10.pdf .
 The licence allows the authors to put it on the Web.

 [4] A brief introduction to the ABINIT software package.
 X. Gonze, G.-M. Rignanese, M. Verstraete, J.-M. Beuken, Y. Pouillon, R. Caracas, F. Jollet,
 M. Torrent, G. Zerah, M. Mikami, Ph. Ghosez, M. Veithen, J.-Y. Raty, V. Olevano, F. Bruneval,
 L. Reining, R. Godby, G. Onida, D.R. Hamann, and D.C. Allan.
 Z. Kristallogr. 220, 558-562 (2005).
 Comment : the second generic paper describing the ABINIT project. Note that this paper
 should be cited especially if you are using the GW part of ABINIT, as several authors
 of this part are not in the list of authors of the first or third paper.
 The .pdf of the latter paper is available at http://www.abinit.org/about/zfk_0505-06_558-562.pdf.
 Note that it should not redistributed (Copyright by Oldenburg Wissenshaftverlag,
 the licence allows the authors to put it on the Web).


 And optionally :

 [5] First-principles computation of material properties : the ABINIT software project. 
 X. Gonze, J.-M. Beuken, R. Caracas, F. Detraux, M. Fuchs, G.-M. Rignanese, L. Sindic,
 M. Verstraete, G. Zerah, F. Jollet, M. Torrent, A. Roy, M. Mikami, Ph. Ghosez, J.-Y. Raty, D.C. Allan.
 Computational Materials Science 25, 478-492 (2002). http://dx.doi.org/10.1016/S0927-0256(02)00325-7
 Comment : the original paper describing the ABINIT project.
-
- Proc.   0 individual time (sec): cpu=          3.0  wall=          3.0

================================================================================

 Calculation completed.
.Delivered   33 WARNINGs and   2 COMMENTs to log file.
+Overall time at end (sec) : cpu=          3.0  wall=          3.0
