
.Version 7.9.3 of ABINIT 
.(MPI version, prepared for a x86_64_linux_gnu4.7 computer) 

.Copyright (C) 1998-2014 ABINIT group . 
 ABINIT comes with ABSOLUTELY NO WARRANTY.
 It is free software, and you are welcome to redistribute it
 under certain conditions (GNU General Public License,
 see ~abinit/COPYING or http://www.gnu.org/copyleft/gpl.txt).

 ABINIT is a project of the Universite Catholique de Louvain,
 Corning Inc. and other collaborators, see ~abinit/doc/developers/contributors.txt .
 Please read ~abinit/doc/users/acknowledgments.html for suggested
 acknowledgments of the ABINIT effort.
 For more information, see http://www.abinit.org .

.Starting date : Sat 30 Aug 2014.
- ( at 22h33 )
  
- input  file    -> t74.in
- output file    -> t74.out
- root for input  files -> t74i
- root for output files -> t74o


 DATASET    1 : space group P4/m m m (#123); Bravais tP (primitive tetrag.)
================================================================================
 Values of the parameters that define the memory need for DATASET  1.
   intxc =         0  ionmov =         0    iscf =         5 xclevel =         1
  lmnmax =         1   lnmax =         1   mband =         8  mffmem =         1
P  mgfft =        30   mkmem =         1 mpssoang=         2     mpw =       428
  mqgrid =      3001   natom =         2    nfft =     17280    nkpt =         1
  nloalg =         4  nspden =         1 nspinor =         1  nsppol =         1
    nsym =        16  n1xccc =      2501  ntypat =         1  occopt =         0
================================================================================
P This job should need less than                       4.682 Mbytes of memory.
  Rough estimation (10% accuracy) of disk space for files :
_ WF disk file :      0.054 Mbytes ; DEN or POT disk file :      0.134 Mbytes.
================================================================================


 DATASET    2 : space group P4/m m m (#123); Bravais tP (primitive tetrag.)
================================================================================
 Values of the parameters that define the memory need for DATASET  2.
   intxc =         0  ionmov =         0    iscf =         5 xclevel =         1
  lmnmax =         1   lnmax =         1   mband =         8  mffmem =         1
P  mgfft =        30   mkmem =         1 mpssoang=         2     mpw =       428
  mqgrid =      3001   natom =         2    nfft =     17280    nkpt =         1
  nloalg =         4  nspden =         1 nspinor =         1  nsppol =         1
    nsym =        16  n1xccc =      2501  ntypat =         1  occopt =         0
================================================================================
P This job should need less than                       4.682 Mbytes of memory.
  Rough estimation (10% accuracy) of disk space for files :
_ WF disk file :      0.054 Mbytes ; DEN or POT disk file :      0.134 Mbytes.
================================================================================


 DATASET    3 : space group P4/m m m (#123); Bravais tP (primitive tetrag.)
================================================================================
 Values of the parameters that define the memory need for DATASET  3.
   intxc =         0  ionmov =         0    iscf =         5 xclevel =         1
  lmnmax =         1   lnmax =         1   mband =         8  mffmem =         1
P  mgfft =        30   mkmem =         1 mpssoang=         2     mpw =       428
  mqgrid =      3001   natom =         2    nfft =     17280    nkpt =         1
  nloalg =         4  nspden =         1 nspinor =         1  nsppol =         1
    nsym =        16  n1xccc =      2501  ntypat =         1  occopt =         0
================================================================================
P This job should need less than                       4.682 Mbytes of memory.
  Rough estimation (10% accuracy) of disk space for files :
_ WF disk file :      0.054 Mbytes ; DEN or POT disk file :      0.134 Mbytes.
================================================================================


 DATASET    4 : space group P4/m m m (#123); Bravais tP (primitive tetrag.)
================================================================================
 Values of the parameters that define the memory need for DATASET  4 (RF).
   intxc =         0    iscf =         5 xclevel =         1  lmnmax =         1
   lnmax =         1   mband =         8  mffmem =         1   mgfft =        30
P  mkmem =         1  mkqmem =         1  mk1mem =         1 mpssoang=         2
     mpw =       855  mqgrid =      3001   natom =         2    nfft =     17280
    nkpt =         1  nloalg =         4  nspden =         1 nspinor =         1
  nsppol =         1    nsym =        16  n1xccc =      2501  ntypat =         1
  occopt =         0
================================================================================
P This job should need less than                       5.776 Mbytes of memory.
  Rough estimation (10% accuracy) of disk space for files :
_ WF disk file :      0.106 Mbytes ; DEN or POT disk file :      0.134 Mbytes.
================================================================================


 DATASET    5 : space group P1 (#  1); Bravais aP (primitive triclinic)
================================================================================
 Values of the parameters that define the memory need for DATASET  5.
   intxc =         0  ionmov =         0    iscf =         5 xclevel =         1
  lmnmax =         1   lnmax =         1   mband =         8  mffmem =         1
P  mgfft =        30   mkmem =         1 mpssoang=         2     mpw =       428
  mqgrid =      3001   natom =         2    nfft =     17280    nkpt =         1
  nloalg =         4  nspden =         1 nspinor =         1  nsppol =         1
    nsym =         1  n1xccc =      2501  ntypat =         1  occopt =         0
================================================================================
P This job should need less than                       4.286 Mbytes of memory.
  Rough estimation (10% accuracy) of disk space for files :
_ WF disk file :      0.054 Mbytes ; DEN or POT disk file :      0.134 Mbytes.
================================================================================


 DATASET    6 : space group P1 (#  1); Bravais aP (primitive triclinic)
================================================================================
 Values of the parameters that define the memory need for DATASET  6.
   intxc =         0  ionmov =         0    iscf =         5 xclevel =         1
  lmnmax =         1   lnmax =         1   mband =         8  mffmem =         1
P  mgfft =        30   mkmem =         1 mpssoang=         2     mpw =       428
  mqgrid =      3001   natom =         2    nfft =     17280    nkpt =         1
  nloalg =         4  nspden =         1 nspinor =         1  nsppol =         1
    nsym =         1  n1xccc =      2501  ntypat =         1  occopt =         0
================================================================================
P This job should need less than                       4.286 Mbytes of memory.
  Rough estimation (10% accuracy) of disk space for files :
_ WF disk file :      0.054 Mbytes ; DEN or POT disk file :      0.134 Mbytes.
================================================================================

--------------------------------------------------------------------------------
------------- Echo of variables that govern the present computation ------------
--------------------------------------------------------------------------------
-
- outvars: echo of selected default values                                      
-   accesswff0 =  0 , fftalg0 =112 , wfoptalg0 =  0
-
- outvars: echo of global parameters not present in the input file              
-  max_nthreads =    0
-
 -outvars: echo values of preprocessed input variables --------
            acell      6.5000000000E+00  6.5000000000E+00  9.0000000000E+00 Bohr
              amu      1.59994000E+01
      chksymbreak           0
           diemac      1.00000000E+00
           diemix      3.33333333E-01
             ecut      1.30000000E+01 Hartree
-          fftalg         112
           getwfk1         -1
           getwfk2          1
           getwfk3          2
           getwfk4          2
           getwfk5          1
           getwfk6          3
             iscf           5
           istwfk1       2
           istwfk2       2
           istwfk3       2
           istwfk4       1
           istwfk5       2
           istwfk6       2
           jdtset        1    2    3    4    5    6
           kptopt           0
P           mkmem           1
P          mkqmem           1
P          mk1mem           1
            natom           2
            nband           8
           ndtset           6
            ngfft          24      24      30
             nkpt           1
             nqpt1          0
             nqpt2          0
             nqpt3          0
             nqpt4          1
             nqpt5          0
             nqpt6          0
             nsym1         16
             nsym2         16
             nsym3         16
             nsym4         16
             nsym5          1
             nsym6          1
           ntypat           1
              occ      2.000000  2.000000  2.000000  2.000000  2.000000  1.000000
                       1.000000  0.000000
           occopt           0
        optdriver1          0
        optdriver2          0
        optdriver3          0
        optdriver4          1
        optdriver5          0
        optdriver6          0
            rfdir1          0       0       0
            rfdir2          0       0       0
            rfdir3          0       0       0
            rfdir4          0       0       1
            rfdir5          0       0       0
            rfdir6          0       0       0
           rfphon1          0
           rfphon2          0
           rfphon3          0
           rfphon4          1
           rfphon5          0
           rfphon6          0
          spgroup1        123
          spgroup2        123
          spgroup3        123
          spgroup4        123
          spgroup5          1
          spgroup6          1
           symafm1       1    1    1    1    1    1    1    1    1    1
                         1    1    1    1    1    1
           symafm2       1    1    1    1    1    1    1    1    1    1
                         1    1    1    1    1    1
           symafm3       1    1    1    1    1    1    1    1    1    1
                         1    1    1    1    1    1
           symafm4       1    1    1    1    1    1    1    1    1    1
                         1    1    1    1    1    1
           symafm5       1
           symafm6       1
           symrel1     1  0  0   0  1  0   0  0  1      -1  0  0   0 -1  0   0  0 -1
                      -1  0  0   0  1  0   0  0 -1       1  0  0   0 -1  0   0  0  1
                      -1  0  0   0 -1  0   0  0  1       1  0  0   0  1  0   0  0 -1
                       1  0  0   0 -1  0   0  0 -1      -1  0  0   0  1  0   0  0  1
                       0  1  0   1  0  0   0  0  1       0 -1  0  -1  0  0   0  0 -1
                       0 -1  0   1  0  0   0  0 -1       0  1  0  -1  0  0   0  0  1
                       0 -1  0  -1  0  0   0  0  1       0  1  0   1  0  0   0  0 -1
                       0  1  0  -1  0  0   0  0 -1       0 -1  0   1  0  0   0  0  1
           symrel2     1  0  0   0  1  0   0  0  1      -1  0  0   0 -1  0   0  0 -1
                      -1  0  0   0  1  0   0  0 -1       1  0  0   0 -1  0   0  0  1
                      -1  0  0   0 -1  0   0  0  1       1  0  0   0  1  0   0  0 -1
                       1  0  0   0 -1  0   0  0 -1      -1  0  0   0  1  0   0  0  1
                       0  1  0   1  0  0   0  0  1       0 -1  0  -1  0  0   0  0 -1
                       0 -1  0   1  0  0   0  0 -1       0  1  0  -1  0  0   0  0  1
                       0 -1  0  -1  0  0   0  0  1       0  1  0   1  0  0   0  0 -1
                       0  1  0  -1  0  0   0  0 -1       0 -1  0   1  0  0   0  0  1
           symrel3     1  0  0   0  1  0   0  0  1      -1  0  0   0 -1  0   0  0 -1
                      -1  0  0   0  1  0   0  0 -1       1  0  0   0 -1  0   0  0  1
                      -1  0  0   0 -1  0   0  0  1       1  0  0   0  1  0   0  0 -1
                       1  0  0   0 -1  0   0  0 -1      -1  0  0   0  1  0   0  0  1
                       0  1  0   1  0  0   0  0  1       0 -1  0  -1  0  0   0  0 -1
                       0 -1  0   1  0  0   0  0 -1       0  1  0  -1  0  0   0  0  1
                       0 -1  0  -1  0  0   0  0  1       0  1  0   1  0  0   0  0 -1
                       0  1  0  -1  0  0   0  0 -1       0 -1  0   1  0  0   0  0  1
           symrel4     1  0  0   0  1  0   0  0  1      -1  0  0   0 -1  0   0  0 -1
                      -1  0  0   0  1  0   0  0 -1       1  0  0   0 -1  0   0  0  1
                      -1  0  0   0 -1  0   0  0  1       1  0  0   0  1  0   0  0 -1
                       1  0  0   0 -1  0   0  0 -1      -1  0  0   0  1  0   0  0  1
                       0  1  0   1  0  0   0  0  1       0 -1  0  -1  0  0   0  0 -1
                       0 -1  0   1  0  0   0  0 -1       0  1  0  -1  0  0   0  0  1
                       0 -1  0  -1  0  0   0  0  1       0  1  0   1  0  0   0  0 -1
                       0  1  0  -1  0  0   0  0 -1       0 -1  0   1  0  0   0  0  1
           symrel5     1  0  0   0  1  0   0  0  1
           symrel6     1  0  0   0  1  0   0  0  1
            tnons1     0.0000000  0.0000000  0.0000000     0.0000000  0.0000000 -0.0000500
                       0.0000000  0.0000000 -0.0000500     0.0000000  0.0000000  0.0000000
                       0.0000000  0.0000000  0.0000000     0.0000000  0.0000000 -0.0000500
                       0.0000000  0.0000000 -0.0000500     0.0000000  0.0000000  0.0000000
                       0.0000000  0.0000000  0.0000000     0.0000000  0.0000000 -0.0000500
                       0.0000000  0.0000000 -0.0000500     0.0000000  0.0000000  0.0000000
                       0.0000000  0.0000000  0.0000000     0.0000000  0.0000000 -0.0000500
                       0.0000000  0.0000000 -0.0000500     0.0000000  0.0000000  0.0000000
            tnons2     0.0000000  0.0000000  0.0000000     0.0000000  0.0000000  0.0000000
                       0.0000000  0.0000000  0.0000000     0.0000000  0.0000000  0.0000000
                       0.0000000  0.0000000  0.0000000     0.0000000  0.0000000  0.0000000
                       0.0000000  0.0000000  0.0000000     0.0000000  0.0000000  0.0000000
                       0.0000000  0.0000000  0.0000000     0.0000000  0.0000000  0.0000000
                       0.0000000  0.0000000  0.0000000     0.0000000  0.0000000  0.0000000
                       0.0000000  0.0000000  0.0000000     0.0000000  0.0000000  0.0000000
                       0.0000000  0.0000000  0.0000000     0.0000000  0.0000000  0.0000000
            tnons3     0.0000000  0.0000000  0.0000000     0.0000000  0.0000000  0.0000500
                       0.0000000  0.0000000  0.0000500     0.0000000  0.0000000  0.0000000
                       0.0000000  0.0000000  0.0000000     0.0000000  0.0000000  0.0000500
                       0.0000000  0.0000000  0.0000500     0.0000000  0.0000000  0.0000000
                       0.0000000  0.0000000  0.0000000     0.0000000  0.0000000  0.0000500
                       0.0000000  0.0000000  0.0000500     0.0000000  0.0000000  0.0000000
                       0.0000000  0.0000000  0.0000000     0.0000000  0.0000000  0.0000500
                       0.0000000  0.0000000  0.0000500     0.0000000  0.0000000  0.0000000
            tnons4     0.0000000  0.0000000  0.0000000     0.0000000  0.0000000  0.0000000
                       0.0000000  0.0000000  0.0000000     0.0000000  0.0000000  0.0000000
                       0.0000000  0.0000000  0.0000000     0.0000000  0.0000000  0.0000000
                       0.0000000  0.0000000  0.0000000     0.0000000  0.0000000  0.0000000
                       0.0000000  0.0000000  0.0000000     0.0000000  0.0000000  0.0000000
                       0.0000000  0.0000000  0.0000000     0.0000000  0.0000000  0.0000000
                       0.0000000  0.0000000  0.0000000     0.0000000  0.0000000  0.0000000
                       0.0000000  0.0000000  0.0000000     0.0000000  0.0000000  0.0000000
            tnons5     0.0000000  0.0000000  0.0000000
            tnons6     0.0000000  0.0000000  0.0000000
           tolvrs1     1.00000000E-16
           tolvrs2     1.00000000E-16
           tolvrs3     1.00000000E-16
           tolvrs4     1.00000000E-07
           tolvrs5     1.00000000E-16
           tolvrs6     1.00000000E-16
           tsmear      2.00000000E-02 Hartree
            typat      1  1
           xangst1     0.0000000000E+00  0.0000000000E+00  5.4984157859E-01
                       0.0000000000E+00  0.0000000000E+00 -5.5007970833E-01
           xangst2     0.0000000000E+00  0.0000000000E+00  5.5007970833E-01
                       0.0000000000E+00  0.0000000000E+00 -5.5007970833E-01
           xangst3     0.0000000000E+00  0.0000000000E+00  5.5031783807E-01
                       0.0000000000E+00  0.0000000000E+00 -5.5007970833E-01
           xangst4     0.0000000000E+00  0.0000000000E+00  5.5007970833E-01
                       0.0000000000E+00  0.0000000000E+00 -5.5007970833E-01
           xangst5     0.0000000000E+00  0.0000000000E+00  5.4984157859E-01
                       0.0000000000E+00  0.0000000000E+00 -5.5007970833E-01
           xangst6     0.0000000000E+00  0.0000000000E+00  5.5031783807E-01
                       0.0000000000E+00  0.0000000000E+00 -5.5007970833E-01
            xcart1     0.0000000000E+00  0.0000000000E+00  1.0390500000E+00
                       0.0000000000E+00  0.0000000000E+00 -1.0395000000E+00
            xcart2     0.0000000000E+00  0.0000000000E+00  1.0395000000E+00
                       0.0000000000E+00  0.0000000000E+00 -1.0395000000E+00
            xcart3     0.0000000000E+00  0.0000000000E+00  1.0399500000E+00
                       0.0000000000E+00  0.0000000000E+00 -1.0395000000E+00
            xcart4     0.0000000000E+00  0.0000000000E+00  1.0395000000E+00
                       0.0000000000E+00  0.0000000000E+00 -1.0395000000E+00
            xcart5     0.0000000000E+00  0.0000000000E+00  1.0390500000E+00
                       0.0000000000E+00  0.0000000000E+00 -1.0395000000E+00
            xcart6     0.0000000000E+00  0.0000000000E+00  1.0399500000E+00
                       0.0000000000E+00  0.0000000000E+00 -1.0395000000E+00
             xred1     0.0000000000E+00  0.0000000000E+00  1.1545000000E-01
                       0.0000000000E+00  0.0000000000E+00 -1.1550000000E-01
             xred2     0.0000000000E+00  0.0000000000E+00  1.1550000000E-01
                       0.0000000000E+00  0.0000000000E+00 -1.1550000000E-01
             xred3     0.0000000000E+00  0.0000000000E+00  1.1555000000E-01
                       0.0000000000E+00  0.0000000000E+00 -1.1550000000E-01
             xred4     0.0000000000E+00  0.0000000000E+00  1.1550000000E-01
                       0.0000000000E+00  0.0000000000E+00 -1.1550000000E-01
             xred5     0.0000000000E+00  0.0000000000E+00  1.1545000000E-01
                       0.0000000000E+00  0.0000000000E+00 -1.1550000000E-01
             xred6     0.0000000000E+00  0.0000000000E+00  1.1555000000E-01
                       0.0000000000E+00  0.0000000000E+00 -1.1550000000E-01
            znucl        8.00000

================================================================================

 chkinp: Checking input parameters for consistency, jdtset=   1.

 chkinp: Checking input parameters for consistency, jdtset=   2.

 chkinp: Checking input parameters for consistency, jdtset=   3.

 chkinp: Checking input parameters for consistency, jdtset=   4.

 chkinp: Checking input parameters for consistency, jdtset=   5.

 chkinp: Checking input parameters for consistency, jdtset=   6.

================================================================================
== DATASET  1 ==================================================================
-   nproc =    1

 Exchange-correlation functional for the present dataset will be:
  LDA: new Teter (4/93) with spin-polarized option - ixc=1
 Citation for XC functional:
  S. Goedecker, M. Teter, J. Huetter, PRB 54, 1703 (1996)

 Real(R)+Recip(G) space primitive vectors, cartesian coordinates (Bohr,Bohr^-1):
 R(1)=  6.5000000  0.0000000  0.0000000  G(1)=  0.1538462  0.0000000  0.0000000
 R(2)=  0.0000000  6.5000000  0.0000000  G(2)=  0.0000000  0.1538462  0.0000000
 R(3)=  0.0000000  0.0000000  9.0000000  G(3)=  0.0000000  0.0000000  0.1111111
 Unit cell volume ucvol=  3.8025000E+02 bohr^3
 Angles (23,13,12)=  9.00000000E+01  9.00000000E+01  9.00000000E+01 degrees

 getcut: wavevector=  0.0000  0.0000  0.0000  ngfft=  24  24  30
         ecut(hartree)=     13.000   => boxcut(ratio)=   2.05372

--- Pseudopotential description ------------------------------------------------
- pspini: atom type   1  psp file is /home/gonze/ABINIT/ABINITv7.9.3/trunk/7.9.3-private/tests/Psps_for_tests/8o.pspnc
- pspatm: opening atomic psp file    /home/gonze/ABINIT/ABINITv7.9.3/trunk/7.9.3-private/tests/Psps_for_tests/8o.pspnc
-  Troullier-Martins psp for element  O         Thu Oct 27 17:29:57 EDT 1994
-  8.00000   6.00000    940714                znucl, zion, pspdat
    1    1    1    1      2001   0.00000      pspcod,pspxc,lmax,lloc,mmax,r2well
    0   5.480  16.893    1   1.4482335        l,e99.0,e99.9,nproj,rcpsp
   0.00000000   0.00000000   0.00000000   0.00000000     rms, ekb1, ekb2, epsatm
    1  20.911  28.075    0   1.4482335        l,e99.0,e99.9,nproj,rcpsp
   0.00000000   0.00000000   0.00000000   0.00000000     rms, ekb1, ekb2, epsatm
    0.56990156784787    3.95561236318184    0.63894027514378   rchrg,fchrg,qchrg
 pspatm: epsatm=    1.57752239
         --- l  ekb(1:nproj) -->
             0    5.670783
 pspatm: atomic psp has been read  and splines computed

   3.78605374E+01                                ecore*ucvol(ha*bohr**3)
--------------------------------------------------------------------------------

P newkpt: treating      8 bands with npw=     428 for ikpt=   1 by node    0

_setup2: Arith. and geom. avg. npw (full set) are     855.000     855.000

================================================================================

     iter   Etot(hartree)      deltaE(h)  residm     vres2
 ETOT  1  -31.412243195357    -3.141E+01 2.724E-02 3.636E+02
 ETOT  2  -31.818771252763    -4.065E-01 5.884E-05 5.983E+00
 ETOT  3  -31.820100162431    -1.329E-03 4.643E-05 2.529E+00
 ETOT  4  -31.820562983850    -4.628E-04 6.468E-05 2.652E-01
 ETOT  5  -31.820798328762    -2.353E-04 3.119E-06 7.121E-02
 ETOT  6  -31.820804030825    -5.702E-06 5.168E-07 3.084E-02
 ETOT  7  -31.820811401409    -7.371E-06 4.333E-07 4.592E-03
 ETOT  8  -31.820812141689    -7.403E-07 1.574E-08 2.714E-04
 ETOT  9  -31.820812168749    -2.706E-08 1.336E-09 1.805E-05
 ETOT 10  -31.820812173619    -4.870E-09 6.741E-11 4.081E-06
 ETOT 11  -31.820812173962    -3.425E-10 9.113E-12 2.236E-07
 ETOT 12  -31.820812173974    -1.291E-11 2.279E-13 5.250E-08
 ETOT 13  -31.820812173979    -4.860E-12 3.140E-13 9.018E-09
 ETOT 14  -31.820812173980    -2.309E-13 1.909E-14 7.004E-11
 ETOT 15  -31.820812173981    -1.272E-12 8.196E-17 4.390E-11
 ETOT 16  -31.820812173981    -2.593E-13 1.431E-16 6.653E-12
 ETOT 17  -31.820812173980     1.410E-12 2.409E-18 2.088E-13
 ETOT 18  -31.820812173980    -6.253E-13 3.444E-19 2.307E-14
 ETOT 19  -31.820812173981    -6.928E-13 2.313E-20 4.509E-15
 ETOT 20  -31.820812173981    -5.329E-14 4.876E-21 3.899E-16
 ETOT 21  -31.820812173980     6.324E-13 2.964E-22 2.209E-17

 At SCF step   21       vres2   =  2.21E-17 < tolvrs=  1.00E-16 =>converged.

 Cartesian components of stress tensor (hartree/bohr^3)
  sigma(1 1)=  4.59519623E-03  sigma(3 2)=  0.00000000E+00
  sigma(2 2)=  4.59519623E-03  sigma(3 1)=  0.00000000E+00
  sigma(3 3)=  1.67164352E-03  sigma(2 1)=  0.00000000E+00

================================================================================

 ----iterations are completed or convergence reached----

 Mean square residual over all n,k,spin=   8.4988E-23; max=  2.9644E-22
   0.0000  0.0000  0.0000    1  2.96435E-22 kpt; spin; max resid(k); each band:
  2.96E-22 1.36E-23 2.38E-22 7.45E-24 7.45E-24 2.36E-24 2.01E-24 1.13E-22
 reduced coordinates (array xred) for    2 atoms
       0.000000000000      0.000000000000      0.115450000000
       0.000000000000      0.000000000000     -0.115500000000
 rms dE/dt=  3.2940E+00; max dE/dt=  5.7054E+00; dE/dt below (all hartree)
    1       0.000000000000      0.000000000000     -5.705435137183
    2       0.000000000000      0.000000000000      5.705435137183

 cartesian coordinates (angstrom) at end:
    1      0.00000000000000     0.00000000000000     0.54984157858544
    2      0.00000000000000     0.00000000000000    -0.55007970832930

 cartesian forces (hartree/bohr) at end:
    1     -0.00000000000000    -0.00000000000000     0.63393723746483
    2     -0.00000000000000    -0.00000000000000    -0.63393723746483
 frms,max,avg= 3.6600383E-01 6.3393724E-01   0.000E+00  0.000E+00  0.000E+00 h/b

 cartesian forces (eV/Angstrom) at end:
    1     -0.00000000000000    -0.00000000000000    32.59836068482078
    2     -0.00000000000000    -0.00000000000000   -32.59836068482078
 frms,max,avg= 1.8820672E+01 3.2598361E+01   0.000E+00  0.000E+00  0.000E+00 e/A
 length scales=  6.500000000000  6.500000000000  9.000000000000 bohr
              =  3.439651855835  3.439651855835  4.762594877310 angstroms
 prteigrs : about to open file t74o_DS1_EIG
 Fermi (or HOMO) energy (hartree) =   0.01479   Average Vxc (hartree)=  -0.21537
 Eigenvalues (hartree) for nkpt=   1  k points:
 kpt#   1, nband=  8, wtk=  1.00000, kpt=  0.0000  0.0000  0.0000 (reduced coord)
  -1.22903  -0.64268  -0.35290  -0.35241  -0.35241   0.01479   0.01479   0.08048
 Total charge density [el/Bohr^3]
,     Maximum=    8.4299E-01  at reduced coord.    0.0000    0.0000    0.0000
,Next maximum=    8.0183E-01  at reduced coord.    0.0000    0.0000    0.9667
,     Minimum=    2.8292E-05  at reduced coord.    0.5000    0.3750    0.5000
,Next minimum=    2.8292E-05  at reduced coord.    0.3750    0.5000    0.5000
,  Integrated=    1.2000E+01

--------------------------------------------------------------------------------
 Components of total free energy (in Hartree) :

    Kinetic energy  =  1.95719553371566E+01
    Hartree energy  =  1.72443652148908E+01
    XC energy       = -8.02690065621018E+00
    Ewald energy    = -9.67029090065113E+00
    PspCore energy  =  9.95674882587417E-02
    Loc. psp. energy= -5.57786993090079E+01
    NL   psp  energy=  4.73919065158269E+00
    >>>>>>>>> Etotal= -3.18208121739804E+01

 Other information on the energy :
    Total energy(eV)= -8.65888334803142E+02 ; Band energy (Ha)=  -5.8292903186E+00
--------------------------------------------------------------------------------

 Cartesian components of stress tensor (hartree/bohr^3)
  sigma(1 1)=  4.59519623E-03  sigma(3 2)=  0.00000000E+00
  sigma(2 2)=  4.59519623E-03  sigma(3 1)=  0.00000000E+00
  sigma(3 3)=  1.67164352E-03  sigma(2 1)=  0.00000000E+00

-Cartesian components of stress tensor (GPa)         [Pressure= -1.0652E+02 GPa]
- sigma(1 1)=  1.35195318E+02  sigma(3 2)=  0.00000000E+00
- sigma(2 2)=  1.35195318E+02  sigma(3 1)=  0.00000000E+00
- sigma(3 3)=  4.91814421E+01  sigma(2 1)=  0.00000000E+00

================================================================================
== DATASET  2 ==================================================================
-   nproc =    1

 mkfilename : getwfk/=0, take file _WFK from output of DATASET   1.

 Exchange-correlation functional for the present dataset will be:
  LDA: new Teter (4/93) with spin-polarized option - ixc=1
 Citation for XC functional:
  S. Goedecker, M. Teter, J. Huetter, PRB 54, 1703 (1996)

 Real(R)+Recip(G) space primitive vectors, cartesian coordinates (Bohr,Bohr^-1):
 R(1)=  6.5000000  0.0000000  0.0000000  G(1)=  0.1538462  0.0000000  0.0000000
 R(2)=  0.0000000  6.5000000  0.0000000  G(2)=  0.0000000  0.1538462  0.0000000
 R(3)=  0.0000000  0.0000000  9.0000000  G(3)=  0.0000000  0.0000000  0.1111111
 Unit cell volume ucvol=  3.8025000E+02 bohr^3
 Angles (23,13,12)=  9.00000000E+01  9.00000000E+01  9.00000000E+01 degrees

 getcut: wavevector=  0.0000  0.0000  0.0000  ngfft=  24  24  30
         ecut(hartree)=     13.000   => boxcut(ratio)=   2.05372
--------------------------------------------------------------------------------

-inwffil : will read wavefunctions from disk file t74o_DS1_WFK
P newkpt: treating      8 bands with npw=     428 for ikpt=   1 by node    0

_setup2: Arith. and geom. avg. npw (full set) are     855.000     855.000

================================================================================

     iter   Etot(hartree)      deltaE(h)  residm     vres2
 ETOT  1  -31.821096696057    -3.182E+01 1.598E-11 8.911E-04
 ETOT  2  -31.821097182642    -4.866E-07 4.756E-14 1.436E-04
 ETOT  3  -31.821097274805    -9.216E-08 8.090E-09 6.022E-06
 ETOT  4  -31.821097280145    -5.339E-09 1.203E-10 1.287E-06
 ETOT  5  -31.821097281516    -1.372E-09 1.144E-10 5.070E-08
 ETOT  6  -31.821097281534    -1.722E-11 4.269E-13 1.423E-08
 ETOT  7  -31.821097281540    -5.912E-12 4.638E-13 1.077E-10
 ETOT  8  -31.821097281540    -2.238E-13 2.961E-16 2.811E-10
 ETOT  9  -31.821097281541    -1.101E-12 3.944E-16 1.347E-11
 ETOT 10  -31.821097281541     1.101E-13 3.871E-18 9.599E-12
 ETOT 11  -31.821097281540     3.801E-13 3.033E-16 2.354E-12
 ETOT 12  -31.821097281540     8.491E-13 1.540E-16 3.431E-13
 ETOT 13  -31.821097281541    -1.211E-12 1.168E-18 8.552E-14
 ETOT 14  -31.821097281540     4.476E-13 3.430E-19 1.360E-14
 ETOT 15  -31.821097281542    -1.243E-12 1.671E-20 2.270E-15
 ETOT 16  -31.821097281540     1.336E-12 1.744E-20 4.217E-16
 ETOT 17  -31.821097281540    -2.487E-13 8.982E-22 7.665E-19

 At SCF step   17       vres2   =  7.66E-19 < tolvrs=  1.00E-16 =>converged.

 Cartesian components of stress tensor (hartree/bohr^3)
  sigma(1 1)=  4.59489565E-03  sigma(3 2)=  0.00000000E+00
  sigma(2 2)=  4.59489565E-03  sigma(3 1)=  0.00000000E+00
  sigma(3 3)=  1.67466395E-03  sigma(2 1)=  0.00000000E+00

================================================================================

 ----iterations are completed or convergence reached----

 Mean square residual over all n,k,spin=   2.5008E-22; max=  8.9819E-22
   0.0000  0.0000  0.0000    1  8.98189E-22 kpt; spin; max resid(k); each band:
  1.34E-22 6.01E-23 8.95E-22 4.50E-24 4.50E-24 2.02E-24 2.02E-24 8.98E-22
 reduced coordinates (array xred) for    2 atoms
       0.000000000000      0.000000000000      0.115500000000
       0.000000000000      0.000000000000     -0.115500000000
 rms dE/dt=  3.2903E+00; max dE/dt=  5.6990E+00; dE/dt below (all hartree)
    1       0.000000000000      0.000000000000     -5.698953044819
    2       0.000000000000      0.000000000000      5.698953044819

 cartesian coordinates (angstrom) at end:
    1      0.00000000000000     0.00000000000000     0.55007970832930
    2      0.00000000000000     0.00000000000000    -0.55007970832930

 cartesian forces (hartree/bohr) at end:
    1     -0.00000000000000    -0.00000000000000     0.63321700497988
    2     -0.00000000000000    -0.00000000000000    -0.63321700497988
 frms,max,avg= 3.6558801E-01 6.3321700E-01   0.000E+00  0.000E+00  0.000E+00 h/b

 cartesian forces (eV/Angstrom) at end:
    1     -0.00000000000000    -0.00000000000000    32.56132484446677
    2     -0.00000000000000    -0.00000000000000   -32.56132484446677
 frms,max,avg= 1.8799290E+01 3.2561325E+01   0.000E+00  0.000E+00  0.000E+00 e/A
 length scales=  6.500000000000  6.500000000000  9.000000000000 bohr
              =  3.439651855835  3.439651855835  4.762594877310 angstroms
 prteigrs : about to open file t74o_DS2_EIG
 Fermi (or HOMO) energy (hartree) =   0.01470   Average Vxc (hartree)=  -0.21538
 Eigenvalues (hartree) for nkpt=   1  k points:
 kpt#   1, nband=  8, wtk=  1.00000, kpt=  0.0000  0.0000  0.0000 (reduced coord)
  -1.22880  -0.64274  -0.35288  -0.35229  -0.35229   0.01470   0.01470   0.08047
 Total charge density [el/Bohr^3]
,     Maximum=    8.4238E-01  at reduced coord.    0.0000    0.0000    0.0000
,Next maximum=    8.0139E-01  at reduced coord.    0.0000    0.0000    0.9667
,     Minimum=    2.8302E-05  at reduced coord.    0.5000    0.3750    0.5000
,Next minimum=    2.8302E-05  at reduced coord.    0.3750    0.5000    0.5000
,  Integrated=    1.2000E+01

--------------------------------------------------------------------------------
 Components of total free energy (in Hartree) :

    Kinetic energy  =  1.95706143374904E+01
    Hartree energy  =  1.72416143697542E+01
    XC energy       = -8.02663671462588E+00
    Ewald energy    = -9.67393586823616E+00
    PspCore energy  =  9.95674882587417E-02
    Loc. psp. energy= -5.57717173612379E+01
    NL   psp  energy=  4.73939646705621E+00
    >>>>>>>>> Etotal= -3.18210972815405E+01

 Other information on the energy :
    Total energy(eV)= -8.65896092974400E+02 ; Band energy (Ha)=  -5.8285999647E+00
--------------------------------------------------------------------------------

 Cartesian components of stress tensor (hartree/bohr^3)
  sigma(1 1)=  4.59489565E-03  sigma(3 2)=  0.00000000E+00
  sigma(2 2)=  4.59489565E-03  sigma(3 1)=  0.00000000E+00
  sigma(3 3)=  1.67466395E-03  sigma(2 1)=  0.00000000E+00

-Cartesian components of stress tensor (GPa)         [Pressure= -1.0655E+02 GPa]
- sigma(1 1)=  1.35186475E+02  sigma(3 2)=  0.00000000E+00
- sigma(2 2)=  1.35186475E+02  sigma(3 1)=  0.00000000E+00
- sigma(3 3)=  4.92703062E+01  sigma(2 1)=  0.00000000E+00

================================================================================
== DATASET  3 ==================================================================
-   nproc =    1

 mkfilename : getwfk/=0, take file _WFK from output of DATASET   2.

 Exchange-correlation functional for the present dataset will be:
  LDA: new Teter (4/93) with spin-polarized option - ixc=1
 Citation for XC functional:
  S. Goedecker, M. Teter, J. Huetter, PRB 54, 1703 (1996)

 Real(R)+Recip(G) space primitive vectors, cartesian coordinates (Bohr,Bohr^-1):
 R(1)=  6.5000000  0.0000000  0.0000000  G(1)=  0.1538462  0.0000000  0.0000000
 R(2)=  0.0000000  6.5000000  0.0000000  G(2)=  0.0000000  0.1538462  0.0000000
 R(3)=  0.0000000  0.0000000  9.0000000  G(3)=  0.0000000  0.0000000  0.1111111
 Unit cell volume ucvol=  3.8025000E+02 bohr^3
 Angles (23,13,12)=  9.00000000E+01  9.00000000E+01  9.00000000E+01 degrees

 getcut: wavevector=  0.0000  0.0000  0.0000  ngfft=  24  24  30
         ecut(hartree)=     13.000   => boxcut(ratio)=   2.05372
--------------------------------------------------------------------------------

-inwffil : will read wavefunctions from disk file t74o_DS2_WFK
P newkpt: treating      8 bands with npw=     428 for ikpt=   1 by node    0

_setup2: Arith. and geom. avg. npw (full set) are     855.000     855.000

================================================================================

     iter   Etot(hartree)      deltaE(h)  residm     vres2
 ETOT  1  -31.821381483917    -3.182E+01 1.599E-11 8.911E-04
 ETOT  2  -31.821381970439    -4.865E-07 4.773E-14 1.436E-04
 ETOT  3  -31.821382062594    -9.215E-08 8.090E-09 6.018E-06
 ETOT  4  -31.821382067926    -5.332E-09 1.202E-10 1.285E-06
 ETOT  5  -31.821382069299    -1.373E-09 1.143E-10 5.065E-08
 ETOT  6  -31.821382069315    -1.688E-11 4.264E-13 1.422E-08
 ETOT  7  -31.821382069323    -7.589E-12 4.632E-13 1.076E-10
 ETOT  8  -31.821382069323    -1.315E-13 2.954E-16 2.785E-10
 ETOT  9  -31.821382069322     8.882E-13 3.937E-16 1.344E-11
 ETOT 10  -31.821382069322    -1.776E-13 3.872E-18 9.583E-12
 ETOT 11  -31.821382069323    -3.482E-13 3.028E-16 2.348E-12
 ETOT 12  -31.821382069322     7.674E-13 1.538E-16 3.424E-13
 ETOT 13  -31.821382069322     8.527E-14 1.169E-18 8.538E-14
 ETOT 14  -31.821382069322    -1.279E-13 3.433E-19 1.357E-14
 ETOT 15  -31.821382069323    -1.005E-12 1.671E-20 2.271E-15
 ETOT 16  -31.821382069323     4.547E-13 1.743E-20 4.219E-16
 ETOT 17  -31.821382069322     1.457E-13 8.984E-22 7.655E-19

 At SCF step   17       vres2   =  7.66E-19 < tolvrs=  1.00E-16 =>converged.

 Cartesian components of stress tensor (hartree/bohr^3)
  sigma(1 1)=  4.59459520E-03  sigma(3 2)=  0.00000000E+00
  sigma(2 2)=  4.59459520E-03  sigma(3 1)=  0.00000000E+00
  sigma(3 3)=  1.67768078E-03  sigma(2 1)=  0.00000000E+00

================================================================================

 ----iterations are completed or convergence reached----

 Mean square residual over all n,k,spin=   2.5013E-22; max=  8.9843E-22
   0.0000  0.0000  0.0000    1  8.98433E-22 kpt; spin; max resid(k); each band:
  1.34E-22 6.02E-23 8.95E-22 4.50E-24 4.50E-24 2.02E-24 2.02E-24 8.98E-22
 reduced coordinates (array xred) for    2 atoms
       0.000000000000      0.000000000000      0.115550000000
       0.000000000000      0.000000000000     -0.115500000000
 rms dE/dt=  3.2866E+00; max dE/dt=  5.6925E+00; dE/dt below (all hartree)
    1       0.000000000000      0.000000000000     -5.692472863932
    2       0.000000000000      0.000000000000      5.692472863932

 cartesian coordinates (angstrom) at end:
    1      0.00000000000000     0.00000000000000     0.55031783807317
    2      0.00000000000000     0.00000000000000    -0.55007970832930

 cartesian forces (hartree/bohr) at end:
    1     -0.00000000000000    -0.00000000000000     0.63249698488130
    2     -0.00000000000000    -0.00000000000000    -0.63249698488130
 frms,max,avg= 3.6517230E-01 6.3249698E-01   0.000E+00  0.000E+00  0.000E+00 h/b

 cartesian forces (eV/Angstrom) at end:
    1     -0.00000000000000    -0.00000000000000    32.52429992545778
    2     -0.00000000000000    -0.00000000000000   -32.52429992545778
 frms,max,avg= 1.8777913E+01 3.2524300E+01   0.000E+00  0.000E+00  0.000E+00 e/A
 length scales=  6.500000000000  6.500000000000  9.000000000000 bohr
              =  3.439651855835  3.439651855835  4.762594877310 angstroms
 prteigrs : about to open file t74o_DS3_EIG
 Fermi (or HOMO) energy (hartree) =   0.01462   Average Vxc (hartree)=  -0.21539
 Eigenvalues (hartree) for nkpt=   1  k points:
 kpt#   1, nband=  8, wtk=  1.00000, kpt=  0.0000  0.0000  0.0000 (reduced coord)
  -1.22856  -0.64281  -0.35287  -0.35217  -0.35217   0.01462   0.01462   0.08047
 Total charge density [el/Bohr^3]
,     Maximum=    8.4178E-01  at reduced coord.    0.0000    0.0000    0.0000
,Next maximum=    8.0109E-01  at reduced coord.    0.0000    0.0000    0.0333
,     Minimum=    2.8313E-05  at reduced coord.    0.5000    0.3750    0.5000
,Next minimum=    2.8313E-05  at reduced coord.    0.3750    0.5000    0.5000
,  Integrated=    1.2000E+01

--------------------------------------------------------------------------------
 Components of total free energy (in Hartree) :

    Kinetic energy  =  1.95692745431984E+01
    Hartree energy  =  1.72388645647263E+01
    XC energy       = -8.02637294753049E+00
    Ewald energy    = -9.67757915410457E+00
    PspCore energy  =  9.95674882587417E-02
    Loc. psp. energy= -5.57647388237259E+01
    NL   psp  energy=  4.73960225985500E+00
    >>>>>>>>> Etotal= -3.18213820693224E+01

 Other information on the energy :
    Total energy(eV)= -8.65903842444054E+02 ; Band energy (Ha)=  -5.8279099833E+00
--------------------------------------------------------------------------------

 Cartesian components of stress tensor (hartree/bohr^3)
  sigma(1 1)=  4.59459520E-03  sigma(3 2)=  0.00000000E+00
  sigma(2 2)=  4.59459520E-03  sigma(3 1)=  0.00000000E+00
  sigma(3 3)=  1.67768078E-03  sigma(2 1)=  0.00000000E+00

-Cartesian components of stress tensor (GPa)         [Pressure= -1.0657E+02 GPa]
- sigma(1 1)=  1.35177635E+02  sigma(3 2)=  0.00000000E+00
- sigma(2 2)=  1.35177635E+02  sigma(3 1)=  0.00000000E+00
- sigma(3 3)=  4.93590644E+01  sigma(2 1)=  0.00000000E+00

================================================================================
== DATASET  4 ==================================================================
-   nproc =    1

 mkfilename : getwfk/=0, take file _WFK from output of DATASET   2.

 Exchange-correlation functional for the present dataset will be:
  LDA: new Teter (4/93) with spin-polarized option - ixc=1
 Citation for XC functional:
  S. Goedecker, M. Teter, J. Huetter, PRB 54, 1703 (1996)

 Real(R)+Recip(G) space primitive vectors, cartesian coordinates (Bohr,Bohr^-1):
 R(1)=  6.5000000  0.0000000  0.0000000  G(1)=  0.1538462  0.0000000  0.0000000
 R(2)=  0.0000000  6.5000000  0.0000000  G(2)=  0.0000000  0.1538462  0.0000000
 R(3)=  0.0000000  0.0000000  9.0000000  G(3)=  0.0000000  0.0000000  0.1111111
 Unit cell volume ucvol=  3.8025000E+02 bohr^3
 Angles (23,13,12)=  9.00000000E+01  9.00000000E+01  9.00000000E+01 degrees
 setup1 : take into account q-point for computing boxcut.

 getcut: wavevector=  0.0000  0.0000  0.0000  ngfft=  24  24  30
         ecut(hartree)=     13.000   => boxcut(ratio)=   2.05372
--------------------------------------------------------------------------------

-inwffil : will read wavefunctions from disk file t74o_DS2_WFK
- newkpt: read input wf with ikpt,npw=   1     428, make ikpt,npw=   1     855


 ==>  initialize data related to q vector <== 

 The list of irreducible perturbations for this q vector is:
    1)    idir= 3    ipert=   1

================================================================================

--------------------------------------------------------------------------------
 Perturbation wavevector (in red.coord.)   0.000000  0.000000  0.000000
 Perturbation : displacement of atom   1   along direction   3
 Found     8 symmetries that leave the perturbation invariant.
 symkpt : not enough symmetry to change the number of k points.

--------------------------------------------------------------------------------

-inwffil : will read wavefunctions from disk file t74o_DS2_WFK
- newkpt: read input wf with ikpt,npw=   1     428, make ikpt,npw=   1     855

--------------------------------------------------------------------------------

-inwffil : will read wavefunctions from disk file t74o_DS2_WFK
- newkpt: read input wf with ikpt,npw=   1     428, make ikpt,npw=   1     855

 Initialisation of the first-order wave-functions :
  ireadwf=   0
P newkpt: treating      8 bands with npw=     855 for ikpt=   1 by node    0


     iter   2DEtotal(Ha)        deltaE(Ha) residm    vres2
-ETOT  1   1389.8213622411     -1.448E+03 4.219E+00 1.044E+06
 ETOT  2   240.45229972078     -1.149E+03 3.963E-01 6.625E+04
 ETOT  3   147.27756709949     -9.317E+01 5.837E-02 1.525E+04
 ETOT  4   128.45421369620     -1.882E+01 2.314E-02 4.315E+02
 ETOT  5   127.92132882010     -5.329E-01 9.645E-04 7.563E+00
 ETOT  6   127.91933197155     -1.997E-03 3.395E-06 5.756E+00
 ETOT  7   127.91203739700     -7.295E-03 9.777E-06 2.701E+00
 ETOT  8   127.91070661091     -1.331E-03 2.262E-06 1.159E+00
 ETOT  9   127.91013156433     -5.750E-04 2.157E-07 3.233E-01
 ETOT 10   127.91002787270     -1.037E-04 1.892E-07 1.237E-01
 ETOT 11   127.90999016174     -3.771E-05 2.480E-08 2.996E-02
 ETOT 12   127.90998172092     -8.441E-06 1.996E-08 5.976E-03
 ETOT 13   127.90998037870     -1.342E-06 5.342E-09 3.972E-04
 ETOT 14   127.90998031846     -6.024E-08 1.849E-10 1.296E-04
 ETOT 15   127.90998028522     -3.324E-08 1.833E-11 5.446E-05
 ETOT 16   127.90998027772     -7.500E-09 1.535E-11 7.309E-06
 ETOT 17   127.90998027666     -1.063E-09 2.378E-12 5.037E-07
 ETOT 18   127.90998027666      1.819E-12 2.552E-13 1.053E-07
 ETOT 19   127.90998027666     -1.819E-12 4.495E-14 3.637E-08

 At SCF step   19       vres2   =  3.64E-08 < tolvrs=  1.00E-07 =>converged.
================================================================================

 ----iterations are completed or convergence reached----

 Mean square residual over all n,k,spin=   1.6563E-14; max=  4.4945E-14
   0.0000  0.0000  0.0000    1  4.49455E-14 kpt; spin; max resid(k); each band:
  4.49E-14 4.38E-14 1.66E-14 4.25E-15 4.25E-15 2.75E-15 2.75E-15 1.31E-14

 Thirteen components of 2nd-order total energy (hartree) are
 1,2,3: 0th-order hamiltonian combined with 1st-order wavefunctions
     kin0=   3.23942937E+03 eigvalue=   2.42632505E+02  local=  -1.89499103E+03
 4,5,6: 1st-order hamiltonian combined with 1st and 0th-order wfs
 loc psp =  -3.49885339E+03  Hartree=   7.12766589E+02     xc=  -1.46120456E+02
 note that "loc psp" includes a xc core correction that could be resolved
 7,8,9: eventually, occupation + non-local contributions
    edocc=   7.28981331E+00     enl0=   5.49143916E+02   enl1=  -1.92144784E+03
 1-9 gives the relaxation energy (to be shifted if some occ is /=2.0)
   erelax=  -2.71015052E+03
 10,11,12 Non-relaxation  contributions : frozen-wavefunctions and Ewald
 fr.local=   1.20759101E+03 fr.nonlo=   9.74182545E+02  Ewald=   6.72686517E+02
 13,14 Frozen wf xc core corrections (1) and (2)
 frxc 1  =  -1.86431528E+02  frxc 2 =   1.70031963E+02
 Resulting in :
 2DEtotal=    0.1279099803E+03 Ha. Also 2DEtotal=    0.348060757283E+04 eV
    (2DErelax=   -2.7101505226E+03 Ha. 2DEnonrelax=    2.8380605029E+03 Ha)
    (  non-var. 2DEtotal :    1.2790988911E+02 Ha)

================================================================================

 ---- first-order wavefunction calculations are completed ----


 ==> Compute Derivative Database <==
  
  2nd-order matrix (non-cartesian coordinates, masses not included,
   asr not included )
     j1       j2             matrix element
  dir pert dir pert     real part     imaginary part
  
   1    1   2    1        -0.0000000000         0.0000000000
   1    1   3    1        -0.0000000000         0.0000000000
   1    1   2    2         0.0000000000        -0.0000000000
   1    1   3    2        -0.0000000000        -0.0000000000
   1    1   2    4         0.0000000000         0.0000000000
   1    1   3    4         0.0000000000         0.0000000000
  
   2    1   1    1        -0.0000000000         0.0000000000
   2    1   3    1         0.0000000000         0.0000000000
   2    1   1    2         0.0000000000        -0.0000000000
   2    1   3    2         0.0000000000         0.0000000000
   2    1   1    4         0.0000000000         0.0000000000
   2    1   3    4         0.0000000000         0.0000000000
  
   3    1   1    1        -0.0000000000         0.0000000000
   3    1   2    1         0.0000000000         0.0000000000
   3    1   3    1       127.9098891062         0.0000000000
   3    1   1    2        -0.0000000000        -0.0000000000
   3    1   2    2         0.0000000000         0.0000000000
   3    1   3    2      -131.3353213690        -0.0000000000
   3    1   1    4         0.0000000000         0.0000000000
   3    1   2    4         0.0000000000         0.0000000000
  
   1    2   2    1         0.0000000000         0.0000000000
   1    2   3    1        -0.0000000000         0.0000000000
   1    2   2    2        -0.0000000000         0.0000000000
   1    2   3    2         0.0000000000         0.0000000000
   1    2   2    4         0.0000000000         0.0000000000
   1    2   3    4         0.0000000000         0.0000000000
  
   2    2   1    1         0.0000000000         0.0000000000
   2    2   3    1         0.0000000000        -0.0000000000
   2    2   1    2        -0.0000000000         0.0000000000
   2    2   3    2         0.0000000000         0.0000000000
   2    2   1    4         0.0000000000         0.0000000000
   2    2   3    4         0.0000000000         0.0000000000
  
   3    2   1    1        -0.0000000000         0.0000000000
   3    2   2    1         0.0000000000        -0.0000000000
   3    2   3    1      -131.3353213690         0.0000000000
   3    2   1    2         0.0000000000         0.0000000000
   3    2   2    2         0.0000000000         0.0000000000
   3    2   3    2       127.9098891062         0.0000000000
   3    2   1    4         0.0000000000         0.0000000000
   3    2   2    4         0.0000000000         0.0000000000
  
   1    4   2    1         0.0000000000         0.0000000000
   1    4   3    1         0.0000000000         0.0000000000
   1    4   2    2         0.0000000000         0.0000000000
   1    4   3    2         0.0000000000         0.0000000000
   1    4   2    4         0.0000000000         0.0000000000
   1    4   3    4         0.0000000000         0.0000000000
  
   2    4   1    1         0.0000000000         0.0000000000
   2    4   3    1         0.0000000000         0.0000000000
   2    4   1    2         0.0000000000         0.0000000000
   2    4   3    2         0.0000000000         0.0000000000
   2    4   1    4         0.0000000000         0.0000000000
   2    4   3    4         0.0000000000         0.0000000000
  
   3    4   1    1         0.0000000000         0.0000000000
   3    4   2    1         0.0000000000         0.0000000000
   3    4   1    2         0.0000000000         0.0000000000
   3    4   2    2         0.0000000000         0.0000000000
   3    4   1    4         0.0000000000         0.0000000000
   3    4   2    4         0.0000000000         0.0000000000
  
  
  Dynamical matrix, in cartesian coordinates,
   if specified in the inputs, asr has been imposed
     j1       j2             matrix element
  dir pert dir pert     real part    imaginary part
  
   1    1   2    1        -0.0000000000         0.0000000000
   1    1   3    1        -0.0000000000         0.0000000000
   1    1   2    2         0.0000000000        -0.0000000000
   1    1   3    2        -0.0000000000        -0.0000000000
  
   2    1   1    1        -0.0000000000         0.0000000000
   2    1   3    1         0.0000000000         0.0000000000
   2    1   1    2         0.0000000000        -0.0000000000
   2    1   3    2         0.0000000000         0.0000000000
  
   3    1   1    1        -0.0000000000         0.0000000000
   3    1   2    1         0.0000000000         0.0000000000
   3    1   3    1         1.5791344334         0.0000000000
   3    1   1    2        -0.0000000000        -0.0000000000
   3    1   2    2         0.0000000000         0.0000000000
   3    1   3    2        -1.6214237206        -0.0000000000
  
   1    2   2    1         0.0000000000         0.0000000000
   1    2   3    1        -0.0000000000         0.0000000000
   1    2   2    2        -0.0000000000         0.0000000000
   1    2   3    2         0.0000000000         0.0000000000
  
   2    2   1    1         0.0000000000         0.0000000000
   2    2   3    1         0.0000000000        -0.0000000000
   2    2   1    2        -0.0000000000         0.0000000000
   2    2   3    2         0.0000000000         0.0000000000
  
   3    2   1    1        -0.0000000000         0.0000000000
   3    2   2    1         0.0000000000        -0.0000000000
   3    2   3    1        -1.6214237206         0.0000000000
   3    2   1    2         0.0000000000         0.0000000000
   3    2   2    2         0.0000000000         0.0000000000
   3    2   3    2         1.5791344334         0.0000000000
 
  Phonon wavevector (reduced coordinates) :  0.00000  0.00000  0.00000
 Phonon energies in Hartree :
  -1.204157E-03  0.000000E+00  0.000000E+00  0.000000E+00  0.000000E+00
   1.047565E-02
 Phonon frequencies in cm-1    :
- -2.642820E+02  0.000000E+00  0.000000E+00  0.000000E+00  0.000000E+00
-  2.299139E+03
 chkph3 : WARNING -
  The dynamical matrix was incomplete : phonon frequencies may be wrong ...

================================================================================
== DATASET  5 ==================================================================
-   nproc =    1

 mkfilename : getwfk/=0, take file _WFK from output of DATASET   1.

 Exchange-correlation functional for the present dataset will be:
  LDA: new Teter (4/93) with spin-polarized option - ixc=1
 Citation for XC functional:
  S. Goedecker, M. Teter, J. Huetter, PRB 54, 1703 (1996)

 Real(R)+Recip(G) space primitive vectors, cartesian coordinates (Bohr,Bohr^-1):
 R(1)=  6.5000000  0.0000000  0.0000000  G(1)=  0.1538462  0.0000000  0.0000000
 R(2)=  0.0000000  6.5000000  0.0000000  G(2)=  0.0000000  0.1538462  0.0000000
 R(3)=  0.0000000  0.0000000  9.0000000  G(3)=  0.0000000  0.0000000  0.1111111
 Unit cell volume ucvol=  3.8025000E+02 bohr^3
 Angles (23,13,12)=  9.00000000E+01  9.00000000E+01  9.00000000E+01 degrees

 getcut: wavevector=  0.0000  0.0000  0.0000  ngfft=  24  24  30
         ecut(hartree)=     13.000   => boxcut(ratio)=   2.05372
--------------------------------------------------------------------------------

-inwffil : will read wavefunctions from disk file t74o_DS1_WFK
P newkpt: treating      8 bands with npw=     428 for ikpt=   1 by node    0

_setup2: Arith. and geom. avg. npw (full set) are     855.000     855.000

================================================================================

     iter   Etot(hartree)      deltaE(h)  residm     vres2
 ETOT  1  -31.820812173982    -3.182E+01 1.914E-19 1.868E-10
 ETOT  2  -31.820812173982     1.634E-13 9.437E-20 7.174E-12
 ETOT  3  -31.820812173981     7.283E-13 2.498E-16 1.190E-13
 ETOT  4  -31.820812173982    -9.699E-13 4.210E-19 3.864E-14
 ETOT  5  -31.820812173981     3.624E-13 7.244E-19 5.912E-17

 At SCF step    5       vres2   =  5.91E-17 < tolvrs=  1.00E-16 =>converged.

 Cartesian components of stress tensor (hartree/bohr^3)
  sigma(1 1)=  4.59519623E-03  sigma(3 2)=  0.00000000E+00
  sigma(2 2)=  4.59519623E-03  sigma(3 1)=  0.00000000E+00
  sigma(3 3)=  1.67164352E-03  sigma(2 1)=  0.00000000E+00

================================================================================

 ----iterations are completed or convergence reached----

 Mean square residual over all n,k,spin=   2.9373E-19; max=  7.2436E-19
   0.0000  0.0000  0.0000    1  7.24359E-19 kpt; spin; max resid(k); each band:
  8.56E-20 7.24E-19 6.99E-19 1.97E-19 1.97E-19 2.08E-19 2.08E-19 3.20E-20
 reduced coordinates (array xred) for    2 atoms
       0.000000000000      0.000000000000      0.115450000000
       0.000000000000      0.000000000000     -0.115500000000
 rms dE/dt=  3.2940E+00; max dE/dt=  5.7055E+00; dE/dt below (all hartree)
    1       0.000000000000      0.000000000000     -5.705349697064
    2       0.000000000000     -0.000000000000      5.705520575924

 cartesian coordinates (angstrom) at end:
    1      0.00000000000000     0.00000000000000     0.54984157858544
    2      0.00000000000000     0.00000000000000    -0.55007970832930

 cartesian forces (hartree/bohr) at end:
    1      0.00000000000000    -0.00000000000001     0.63393723738822
    2     -0.00000000000000     0.00000000000001    -0.63393723738822
 frms,max,avg= 3.6600383E-01 6.3393724E-01  -1.103E-14  0.000E+00 -9.493E-06 h/b

 cartesian forces (eV/Angstrom) at end:
    1      0.00000000000016    -0.00000000000029    32.59836068088146
    2     -0.00000000000016     0.00000000000029   -32.59836068088146
 frms,max,avg= 1.8820672E+01 3.2598361E+01  -5.674E-13  0.000E+00 -4.882E-04 e/A
 length scales=  6.500000000000  6.500000000000  9.000000000000 bohr
              =  3.439651855835  3.439651855835  4.762594877310 angstroms
 prteigrs : about to open file t74o_DS5_EIG
 Fermi (or HOMO) energy (hartree) =   0.01479   Average Vxc (hartree)=  -0.21537
 Eigenvalues (hartree) for nkpt=   1  k points:
 kpt#   1, nband=  8, wtk=  1.00000, kpt=  0.0000  0.0000  0.0000 (reduced coord)
  -1.22903  -0.64268  -0.35290  -0.35241  -0.35241   0.01479   0.01479   0.08048
 Total charge density [el/Bohr^3]
,     Maximum=    8.4299E-01  at reduced coord.    0.0000    0.0000    0.0000
,Next maximum=    8.0183E-01  at reduced coord.    0.0000    0.0000    0.9667
,     Minimum=    2.8292E-05  at reduced coord.    0.5000    0.3750    0.5000
,Next minimum=    2.8292E-05  at reduced coord.    0.3750    0.5000    0.5000
,  Integrated=    1.2000E+01

--------------------------------------------------------------------------------
 Components of total free energy (in Hartree) :

    Kinetic energy  =  1.95719553369917E+01
    Hartree energy  =  1.72443652147855E+01
    XC energy       = -8.02690065618181E+00
    Ewald energy    = -9.67029090065113E+00
    PspCore energy  =  9.95674882587417E-02
    Loc. psp. energy= -5.57786993087705E+01
    NL   psp  energy=  4.73919065158607E+00
    >>>>>>>>> Etotal= -3.18208121739814E+01

 Other information on the energy :
    Total energy(eV)= -8.65888334803169E+02 ; Band energy (Ha)=  -5.8292903183E+00
--------------------------------------------------------------------------------

 Cartesian components of stress tensor (hartree/bohr^3)
  sigma(1 1)=  4.59519623E-03  sigma(3 2)=  0.00000000E+00
  sigma(2 2)=  4.59519623E-03  sigma(3 1)=  0.00000000E+00
  sigma(3 3)=  1.67164352E-03  sigma(2 1)=  0.00000000E+00

-Cartesian components of stress tensor (GPa)         [Pressure= -1.0652E+02 GPa]
- sigma(1 1)=  1.35195318E+02  sigma(3 2)=  0.00000000E+00
- sigma(2 2)=  1.35195318E+02  sigma(3 1)=  0.00000000E+00
- sigma(3 3)=  4.91814421E+01  sigma(2 1)=  0.00000000E+00

================================================================================
== DATASET  6 ==================================================================
-   nproc =    1

 mkfilename : getwfk/=0, take file _WFK from output of DATASET   3.

 Exchange-correlation functional for the present dataset will be:
  LDA: new Teter (4/93) with spin-polarized option - ixc=1
 Citation for XC functional:
  S. Goedecker, M. Teter, J. Huetter, PRB 54, 1703 (1996)

 Real(R)+Recip(G) space primitive vectors, cartesian coordinates (Bohr,Bohr^-1):
 R(1)=  6.5000000  0.0000000  0.0000000  G(1)=  0.1538462  0.0000000  0.0000000
 R(2)=  0.0000000  6.5000000  0.0000000  G(2)=  0.0000000  0.1538462  0.0000000
 R(3)=  0.0000000  0.0000000  9.0000000  G(3)=  0.0000000  0.0000000  0.1111111
 Unit cell volume ucvol=  3.8025000E+02 bohr^3
 Angles (23,13,12)=  9.00000000E+01  9.00000000E+01  9.00000000E+01 degrees

 getcut: wavevector=  0.0000  0.0000  0.0000  ngfft=  24  24  30
         ecut(hartree)=     13.000   => boxcut(ratio)=   2.05372
--------------------------------------------------------------------------------

-inwffil : will read wavefunctions from disk file t74o_DS3_WFK
P newkpt: treating      8 bands with npw=     428 for ikpt=   1 by node    0

_setup2: Arith. and geom. avg. npw (full set) are     855.000     855.000

================================================================================

     iter   Etot(hartree)      deltaE(h)  residm     vres2
 ETOT  1  -31.821382069323    -3.182E+01 1.816E-19 1.748E-10
 ETOT  2  -31.821382069323    -6.750E-13 8.875E-20 6.817E-12
 ETOT  3  -31.821382069324    -4.583E-13 2.361E-16 1.166E-13
 ETOT  4  -31.821382069323     4.974E-13 4.229E-19 3.784E-14
 ETOT  5  -31.821382069324    -4.654E-13 7.256E-19 5.760E-17

 At SCF step    5       vres2   =  5.76E-17 < tolvrs=  1.00E-16 =>converged.

 Cartesian components of stress tensor (hartree/bohr^3)
  sigma(1 1)=  4.59459520E-03  sigma(3 2)=  0.00000000E+00
  sigma(2 2)=  4.59459520E-03  sigma(3 1)=  0.00000000E+00
  sigma(3 3)=  1.67768078E-03  sigma(2 1)=  0.00000000E+00

================================================================================

 ----iterations are completed or convergence reached----

 Mean square residual over all n,k,spin=   2.8905E-19; max=  7.2557E-19
   0.0000  0.0000  0.0000    1  7.25568E-19 kpt; spin; max resid(k); each band:
  8.38E-20 7.26E-19 7.02E-19 1.87E-19 1.87E-19 1.98E-19 1.98E-19 3.01E-20
 reduced coordinates (array xred) for    2 atoms
       0.000000000000      0.000000000000      0.115550000000
       0.000000000000      0.000000000000     -0.115500000000
 rms dE/dt=  3.2866E+00; max dE/dt=  5.6924E+00; dE/dt below (all hartree)
    1       0.000000000000     -0.000000000000     -5.692558689859
    2       0.000000000000     -0.000000000000      5.692387037768

 cartesian coordinates (angstrom) at end:
    1      0.00000000000000     0.00000000000000     0.55031783807317
    2      0.00000000000000     0.00000000000000    -0.55007970832930

 cartesian forces (hartree/bohr) at end:
    1     -0.00000000000000     0.00000000000000     0.63249698486815
    2      0.00000000000000    -0.00000000000000    -0.63249698486815
 frms,max,avg= 3.6517230E-01 6.3249698E-01  -1.080E-14  0.000E+00  9.536E-06 h/b

 cartesian forces (eV/Angstrom) at end:
    1     -0.00000000000004     0.00000000000001    32.52429992478164
    2      0.00000000000004    -0.00000000000001   -32.52429992478164
 frms,max,avg= 1.8777913E+01 3.2524300E+01  -5.554E-13  0.000E+00  4.904E-04 e/A
 length scales=  6.500000000000  6.500000000000  9.000000000000 bohr
              =  3.439651855835  3.439651855835  4.762594877310 angstroms
 prteigrs : about to open file t74o_DS6_EIG
 Fermi (or HOMO) energy (hartree) =   0.01462   Average Vxc (hartree)=  -0.21539
 Eigenvalues (hartree) for nkpt=   1  k points:
 kpt#   1, nband=  8, wtk=  1.00000, kpt=  0.0000  0.0000  0.0000 (reduced coord)
  -1.22856  -0.64281  -0.35287  -0.35217  -0.35217   0.01462   0.01462   0.08047
 Total charge density [el/Bohr^3]
,     Maximum=    8.4178E-01  at reduced coord.    0.0000    0.0000    0.0000
,Next maximum=    8.0109E-01  at reduced coord.    0.0000    0.0000    0.0333
,     Minimum=    2.8313E-05  at reduced coord.    0.5000    0.3750    0.5000
,Next minimum=    2.8313E-05  at reduced coord.    0.3750    0.5000    0.5000
,  Integrated=    1.2000E+01

--------------------------------------------------------------------------------
 Components of total free energy (in Hartree) :

    Kinetic energy  =  1.95692745432011E+01
    Hartree energy  =  1.72388645647344E+01
    XC energy       = -8.02637294753284E+00
    Ewald energy    = -9.67757915410457E+00
    PspCore energy  =  9.95674882587417E-02
    Loc. psp. energy= -5.57647388237251E+01
    NL   psp  energy=  4.73960225984450E+00
    >>>>>>>>> Etotal= -3.18213820693238E+01

 Other information on the energy :
    Total energy(eV)= -8.65903842444092E+02 ; Band energy (Ha)=  -5.8279099834E+00
--------------------------------------------------------------------------------

 Cartesian components of stress tensor (hartree/bohr^3)
  sigma(1 1)=  4.59459520E-03  sigma(3 2)=  0.00000000E+00
  sigma(2 2)=  4.59459520E-03  sigma(3 1)=  0.00000000E+00
  sigma(3 3)=  1.67768078E-03  sigma(2 1)=  0.00000000E+00

-Cartesian components of stress tensor (GPa)         [Pressure= -1.0657E+02 GPa]
- sigma(1 1)=  1.35177635E+02  sigma(3 2)=  0.00000000E+00
- sigma(2 2)=  1.35177635E+02  sigma(3 1)=  0.00000000E+00
- sigma(3 3)=  4.93590644E+01  sigma(2 1)=  0.00000000E+00

== END DATASET(S) ==============================================================
================================================================================
  
 -outvars: echo values of variables after computation  --------
            acell      6.5000000000E+00  6.5000000000E+00  9.0000000000E+00 Bohr
              amu      1.59994000E+01
      chksymbreak           0
           diemac      1.00000000E+00
           diemix      3.33333333E-01
             ecut      1.30000000E+01 Hartree
           etotal1    -3.1820812174E+01
           etotal2    -3.1821097282E+01
           etotal3    -3.1821382069E+01
           etotal4     1.2790998028E+02
           etotal5    -3.1820812174E+01
           etotal6    -3.1821382069E+01
            fcart1    -0.0000000000E+00 -0.0000000000E+00  6.3393723746E-01
                      -0.0000000000E+00 -0.0000000000E+00 -6.3393723746E-01
            fcart2    -0.0000000000E+00 -0.0000000000E+00  6.3321700498E-01
                      -0.0000000000E+00 -0.0000000000E+00 -6.3321700498E-01
            fcart3    -0.0000000000E+00 -0.0000000000E+00  6.3249698488E-01
                      -0.0000000000E+00 -0.0000000000E+00 -6.3249698488E-01
            fcart4     0.0000000000E+00  0.0000000000E+00  0.0000000000E+00
                       0.0000000000E+00  0.0000000000E+00  0.0000000000E+00
            fcart5     3.0768628501E-15 -5.6504523932E-15  6.3393723739E-01
                      -3.0768628501E-15  5.6504523932E-15 -6.3393723739E-01
            fcart6    -8.6951259456E-16  2.1613003939E-16  6.3249698487E-01
                       8.6951259456E-16 -2.1613003939E-16 -6.3249698487E-01
-          fftalg         112
           getwfk1         -1
           getwfk2          1
           getwfk3          2
           getwfk4          2
           getwfk5          1
           getwfk6          3
             iscf           5
           istwfk1       2
           istwfk2       2
           istwfk3       2
           istwfk4       1
           istwfk5       2
           istwfk6       2
           jdtset        1    2    3    4    5    6
           kptopt           0
P           mkmem           1
P          mkqmem           1
P          mk1mem           1
            natom           2
            nband           8
           ndtset           6
            ngfft          24      24      30
             nkpt           1
             nqpt1          0
             nqpt2          0
             nqpt3          0
             nqpt4          1
             nqpt5          0
             nqpt6          0
             nsym1         16
             nsym2         16
             nsym3         16
             nsym4         16
             nsym5          1
             nsym6          1
           ntypat           1
              occ      2.000000  2.000000  2.000000  2.000000  2.000000  1.000000
                       1.000000  0.000000
           occopt           0
        optdriver1          0
        optdriver2          0
        optdriver3          0
        optdriver4          1
        optdriver5          0
        optdriver6          0
            rfdir1          0       0       0
            rfdir2          0       0       0
            rfdir3          0       0       0
            rfdir4          0       0       1
            rfdir5          0       0       0
            rfdir6          0       0       0
           rfphon1          0
           rfphon2          0
           rfphon3          0
           rfphon4          1
           rfphon5          0
           rfphon6          0
          spgroup1        123
          spgroup2        123
          spgroup3        123
          spgroup4        123
          spgroup5          1
          spgroup6          1
           strten1     4.5951962312E-03  4.5951962312E-03  1.6716435226E-03
                       0.0000000000E+00  0.0000000000E+00  0.0000000000E+00
           strten2     4.5948956481E-03  4.5948956481E-03  1.6746639510E-03
                       0.0000000000E+00  0.0000000000E+00  0.0000000000E+00
           strten3     4.5945951962E-03  4.5945951962E-03  1.6776807831E-03
                       0.0000000000E+00  0.0000000000E+00  0.0000000000E+00
           strten4     0.0000000000E+00  0.0000000000E+00  0.0000000000E+00
                       0.0000000000E+00  0.0000000000E+00  0.0000000000E+00
           strten5     4.5951962315E-03  4.5951962312E-03  1.6716435226E-03
                       0.0000000000E+00  0.0000000000E+00  0.0000000000E+00
           strten6     4.5945951964E-03  4.5945951961E-03  1.6776807831E-03
                       0.0000000000E+00  0.0000000000E+00  0.0000000000E+00
           symafm1       1    1    1    1    1    1    1    1    1    1
                         1    1    1    1    1    1
           symafm2       1    1    1    1    1    1    1    1    1    1
                         1    1    1    1    1    1
           symafm3       1    1    1    1    1    1    1    1    1    1
                         1    1    1    1    1    1
           symafm4       1    1    1    1    1    1    1    1    1    1
                         1    1    1    1    1    1
           symafm5       1
           symafm6       1
           symrel1     1  0  0   0  1  0   0  0  1      -1  0  0   0 -1  0   0  0 -1
                      -1  0  0   0  1  0   0  0 -1       1  0  0   0 -1  0   0  0  1
                      -1  0  0   0 -1  0   0  0  1       1  0  0   0  1  0   0  0 -1
                       1  0  0   0 -1  0   0  0 -1      -1  0  0   0  1  0   0  0  1
                       0  1  0   1  0  0   0  0  1       0 -1  0  -1  0  0   0  0 -1
                       0 -1  0   1  0  0   0  0 -1       0  1  0  -1  0  0   0  0  1
                       0 -1  0  -1  0  0   0  0  1       0  1  0   1  0  0   0  0 -1
                       0  1  0  -1  0  0   0  0 -1       0 -1  0   1  0  0   0  0  1
           symrel2     1  0  0   0  1  0   0  0  1      -1  0  0   0 -1  0   0  0 -1
                      -1  0  0   0  1  0   0  0 -1       1  0  0   0 -1  0   0  0  1
                      -1  0  0   0 -1  0   0  0  1       1  0  0   0  1  0   0  0 -1
                       1  0  0   0 -1  0   0  0 -1      -1  0  0   0  1  0   0  0  1
                       0  1  0   1  0  0   0  0  1       0 -1  0  -1  0  0   0  0 -1
                       0 -1  0   1  0  0   0  0 -1       0  1  0  -1  0  0   0  0  1
                       0 -1  0  -1  0  0   0  0  1       0  1  0   1  0  0   0  0 -1
                       0  1  0  -1  0  0   0  0 -1       0 -1  0   1  0  0   0  0  1
           symrel3     1  0  0   0  1  0   0  0  1      -1  0  0   0 -1  0   0  0 -1
                      -1  0  0   0  1  0   0  0 -1       1  0  0   0 -1  0   0  0  1
                      -1  0  0   0 -1  0   0  0  1       1  0  0   0  1  0   0  0 -1
                       1  0  0   0 -1  0   0  0 -1      -1  0  0   0  1  0   0  0  1
                       0  1  0   1  0  0   0  0  1       0 -1  0  -1  0  0   0  0 -1
                       0 -1  0   1  0  0   0  0 -1       0  1  0  -1  0  0   0  0  1
                       0 -1  0  -1  0  0   0  0  1       0  1  0   1  0  0   0  0 -1
                       0  1  0  -1  0  0   0  0 -1       0 -1  0   1  0  0   0  0  1
           symrel4     1  0  0   0  1  0   0  0  1      -1  0  0   0 -1  0   0  0 -1
                      -1  0  0   0  1  0   0  0 -1       1  0  0   0 -1  0   0  0  1
                      -1  0  0   0 -1  0   0  0  1       1  0  0   0  1  0   0  0 -1
                       1  0  0   0 -1  0   0  0 -1      -1  0  0   0  1  0   0  0  1
                       0  1  0   1  0  0   0  0  1       0 -1  0  -1  0  0   0  0 -1
                       0 -1  0   1  0  0   0  0 -1       0  1  0  -1  0  0   0  0  1
                       0 -1  0  -1  0  0   0  0  1       0  1  0   1  0  0   0  0 -1
                       0  1  0  -1  0  0   0  0 -1       0 -1  0   1  0  0   0  0  1
           symrel5     1  0  0   0  1  0   0  0  1
           symrel6     1  0  0   0  1  0   0  0  1
            tnons1     0.0000000  0.0000000  0.0000000     0.0000000  0.0000000 -0.0000500
                       0.0000000  0.0000000 -0.0000500     0.0000000  0.0000000  0.0000000
                       0.0000000  0.0000000  0.0000000     0.0000000  0.0000000 -0.0000500
                       0.0000000  0.0000000 -0.0000500     0.0000000  0.0000000  0.0000000
                       0.0000000  0.0000000  0.0000000     0.0000000  0.0000000 -0.0000500
                       0.0000000  0.0000000 -0.0000500     0.0000000  0.0000000  0.0000000
                       0.0000000  0.0000000  0.0000000     0.0000000  0.0000000 -0.0000500
                       0.0000000  0.0000000 -0.0000500     0.0000000  0.0000000  0.0000000
            tnons2     0.0000000  0.0000000  0.0000000     0.0000000  0.0000000  0.0000000
                       0.0000000  0.0000000  0.0000000     0.0000000  0.0000000  0.0000000
                       0.0000000  0.0000000  0.0000000     0.0000000  0.0000000  0.0000000
                       0.0000000  0.0000000  0.0000000     0.0000000  0.0000000  0.0000000
                       0.0000000  0.0000000  0.0000000     0.0000000  0.0000000  0.0000000
                       0.0000000  0.0000000  0.0000000     0.0000000  0.0000000  0.0000000
                       0.0000000  0.0000000  0.0000000     0.0000000  0.0000000  0.0000000
                       0.0000000  0.0000000  0.0000000     0.0000000  0.0000000  0.0000000
            tnons3     0.0000000  0.0000000  0.0000000     0.0000000  0.0000000  0.0000500
                       0.0000000  0.0000000  0.0000500     0.0000000  0.0000000  0.0000000
                       0.0000000  0.0000000  0.0000000     0.0000000  0.0000000  0.0000500
                       0.0000000  0.0000000  0.0000500     0.0000000  0.0000000  0.0000000
                       0.0000000  0.0000000  0.0000000     0.0000000  0.0000000  0.0000500
                       0.0000000  0.0000000  0.0000500     0.0000000  0.0000000  0.0000000
                       0.0000000  0.0000000  0.0000000     0.0000000  0.0000000  0.0000500
                       0.0000000  0.0000000  0.0000500     0.0000000  0.0000000  0.0000000
            tnons4     0.0000000  0.0000000  0.0000000     0.0000000  0.0000000  0.0000000
                       0.0000000  0.0000000  0.0000000     0.0000000  0.0000000  0.0000000
                       0.0000000  0.0000000  0.0000000     0.0000000  0.0000000  0.0000000
                       0.0000000  0.0000000  0.0000000     0.0000000  0.0000000  0.0000000
                       0.0000000  0.0000000  0.0000000     0.0000000  0.0000000  0.0000000
                       0.0000000  0.0000000  0.0000000     0.0000000  0.0000000  0.0000000
                       0.0000000  0.0000000  0.0000000     0.0000000  0.0000000  0.0000000
                       0.0000000  0.0000000  0.0000000     0.0000000  0.0000000  0.0000000
            tnons5     0.0000000  0.0000000  0.0000000
            tnons6     0.0000000  0.0000000  0.0000000
           tolvrs1     1.00000000E-16
           tolvrs2     1.00000000E-16
           tolvrs3     1.00000000E-16
           tolvrs4     1.00000000E-07
           tolvrs5     1.00000000E-16
           tolvrs6     1.00000000E-16
           tsmear      2.00000000E-02 Hartree
            typat      1  1
           xangst1     0.0000000000E+00  0.0000000000E+00  5.4984157859E-01
                       0.0000000000E+00  0.0000000000E+00 -5.5007970833E-01
           xangst2     0.0000000000E+00  0.0000000000E+00  5.5007970833E-01
                       0.0000000000E+00  0.0000000000E+00 -5.5007970833E-01
           xangst3     0.0000000000E+00  0.0000000000E+00  5.5031783807E-01
                       0.0000000000E+00  0.0000000000E+00 -5.5007970833E-01
           xangst4     0.0000000000E+00  0.0000000000E+00  5.5007970833E-01
                       0.0000000000E+00  0.0000000000E+00 -5.5007970833E-01
           xangst5     0.0000000000E+00  0.0000000000E+00  5.4984157859E-01
                       0.0000000000E+00  0.0000000000E+00 -5.5007970833E-01
           xangst6     0.0000000000E+00  0.0000000000E+00  5.5031783807E-01
                       0.0000000000E+00  0.0000000000E+00 -5.5007970833E-01
            xcart1     0.0000000000E+00  0.0000000000E+00  1.0390500000E+00
                       0.0000000000E+00  0.0000000000E+00 -1.0395000000E+00
            xcart2     0.0000000000E+00  0.0000000000E+00  1.0395000000E+00
                       0.0000000000E+00  0.0000000000E+00 -1.0395000000E+00
            xcart3     0.0000000000E+00  0.0000000000E+00  1.0399500000E+00
                       0.0000000000E+00  0.0000000000E+00 -1.0395000000E+00
            xcart4     0.0000000000E+00  0.0000000000E+00  1.0395000000E+00
                       0.0000000000E+00  0.0000000000E+00 -1.0395000000E+00
            xcart5     0.0000000000E+00  0.0000000000E+00  1.0390500000E+00
                       0.0000000000E+00  0.0000000000E+00 -1.0395000000E+00
            xcart6     0.0000000000E+00  0.0000000000E+00  1.0399500000E+00
                       0.0000000000E+00  0.0000000000E+00 -1.0395000000E+00
             xred1     0.0000000000E+00  0.0000000000E+00  1.1545000000E-01
                       0.0000000000E+00  0.0000000000E+00 -1.1550000000E-01
             xred2     0.0000000000E+00  0.0000000000E+00  1.1550000000E-01
                       0.0000000000E+00  0.0000000000E+00 -1.1550000000E-01
             xred3     0.0000000000E+00  0.0000000000E+00  1.1555000000E-01
                       0.0000000000E+00  0.0000000000E+00 -1.1550000000E-01
             xred4     0.0000000000E+00  0.0000000000E+00  1.1550000000E-01
                       0.0000000000E+00  0.0000000000E+00 -1.1550000000E-01
             xred5     0.0000000000E+00  0.0000000000E+00  1.1545000000E-01
                       0.0000000000E+00  0.0000000000E+00 -1.1550000000E-01
             xred6     0.0000000000E+00  0.0000000000E+00  1.1555000000E-01
                       0.0000000000E+00  0.0000000000E+00 -1.1550000000E-01
            znucl        8.00000

================================================================================


- Timing analysis has been suppressed with timopt=0



================================================================================

 Suggested references for the acknowledgment of ABINIT usage.

 The users of ABINIT have little formal obligations with respect to the ABINIT group
 (those specified in the GNU General Public License, http://www.gnu.org/copyleft/gpl.txt).
 However, it is common practice in the scientific literature,
 to acknowledge the efforts of people that have made the research possible.
 In this spirit, please find below suggested citations of work written by ABINIT developers,
 corresponding to implementations inside of ABINIT that you have used in the present run.
 Note also that it will be of great value to readers of publications presenting these results,
 to read papers enabling them to understand the theoretical formalism and details
 of the ABINIT implementation.
 For information on why they are suggested, see also http://www.abinit.org/about/?text=acknowledgments.

 [1] First-principles responses of solids to atomic displacements and homogeneous electric fields:,
 implementation of a conjugate-gradient algorithm. X. Gonze, Phys. Rev. B55, 10337 (1997).
 Comment : Non-vanishing rfphon and/or rfelfd, in the norm-conserving case.

 [2] Dynamical matrices, Born effective charges, dielectric permittivity tensors, and ,
 interatomic force constants from density-functional perturbation theory,
 X. Gonze and C. Lee, Phys. Rev. B55, 10355 (1997).
 Comment : Non-vanishing rfphon and/or rfelfd, in the norm-conserving case.

 [3] ABINIT : First-principles approach of materials and nanosystem properties.
 X. Gonze, B. Amadon, P.-M. Anglade, J.-M. Beuken, F. Bottin, P. Boulanger, F. Bruneval,
 D. Caliste, R. Caracas, M. Cote, T. Deutsch, L. Genovese, Ph. Ghosez, M. Giantomassi
 S. Goedecker, D.R. Hamann, P. Hermet, F. Jollet, G. Jomard, S. Leroux, M. Mancini, S. Mazevet,
 M.J.T. Oliveira, G. Onida, Y. Pouillon, T. Rangel, G.-M. Rignanese, D. Sangalli, R. Shaltaf,
 M. Torrent, M.J. Verstraete, G. Zerah, J.W. Zwanziger
 Computer Phys. Comm. 180, 2582-2615 (2009).
 Comment : the third generic paper describing the ABINIT project.
 Note that a version of this paper, that is not formatted for Computer Phys. Comm. 
 is available at http://www.abinit.org/about/ABINIT_CPC_v10.pdf .
 The licence allows the authors to put it on the Web.

 [4] A brief introduction to the ABINIT software package.
 X. Gonze, G.-M. Rignanese, M. Verstraete, J.-M. Beuken, Y. Pouillon, R. Caracas, F. Jollet,
 M. Torrent, G. Zerah, M. Mikami, Ph. Ghosez, M. Veithen, J.-Y. Raty, V. Olevano, F. Bruneval,
 L. Reining, R. Godby, G. Onida, D.R. Hamann, and D.C. Allan.
 Z. Kristallogr. 220, 558-562 (2005).
 Comment : the second generic paper describing the ABINIT project. Note that this paper
 should be cited especially if you are using the GW part of ABINIT, as several authors
 of this part are not in the list of authors of the first or third paper.
 The .pdf of the latter paper is available at http://www.abinit.org/about/zfk_0505-06_558-562.pdf.
 Note that it should not redistributed (Copyright by Oldenburg Wissenshaftverlag,
 the licence allows the authors to put it on the Web).


 And optionally :

 [5] First-principles computation of material properties : the ABINIT software project. 
 X. Gonze, J.-M. Beuken, R. Caracas, F. Detraux, M. Fuchs, G.-M. Rignanese, L. Sindic,
 M. Verstraete, G. Zerah, F. Jollet, M. Torrent, A. Roy, M. Mikami, Ph. Ghosez, J.-Y. Raty, D.C. Allan.
 Computational Materials Science 25, 478-492 (2002). http://dx.doi.org/10.1016/S0927-0256(02)00325-7
 Comment : the original paper describing the ABINIT project.
-
- Proc.   0 individual time (sec): cpu=          2.8  wall=          2.8

================================================================================

 Calculation completed.
.Delivered   12 WARNINGs and   4 COMMENTs to log file.
+Overall time at end (sec) : cpu=          2.8  wall=          2.8
