
.Version 7.9.3 of ABINIT 
.(MPI version, prepared for a x86_64_linux_gnu4.7 computer) 

.Copyright (C) 1998-2014 ABINIT group . 
 ABINIT comes with ABSOLUTELY NO WARRANTY.
 It is free software, and you are welcome to redistribute it
 under certain conditions (GNU General Public License,
 see ~abinit/COPYING or http://www.gnu.org/copyleft/gpl.txt).

 ABINIT is a project of the Universite Catholique de Louvain,
 Corning Inc. and other collaborators, see ~abinit/doc/developers/contributors.txt .
 Please read ~abinit/doc/users/acknowledgments.html for suggested
 acknowledgments of the ABINIT effort.
 For more information, see http://www.abinit.org .

.Starting date : Sat 30 Aug 2014.
- ( at 22h19 )
  
- input  file    -> t12.in
- output file    -> t12.out
- root for input  files -> t12i
- root for output files -> t12o


 Symmetries : space group P1 (#  1); Bravais aP (primitive triclinic)
================================================================================
 Values of the parameters that define the memory need for DATASET  1 (WVL).
  wvl_hgrid =  0.450   nwfshist =      6 wvl_crmult =  5.000 wvl_frmult = 10.000
  tl_radius =  0.000  tl_nprccg =     30
      natom =      1     ntypat =      1    nstates =     18     nsppol =      2
================================================================================
================================================================================

--------------------------------------------------------------------------------
------------- Echo of variables that govern the present computation ------------
--------------------------------------------------------------------------------
-
- outvars: echo of selected default values                                      
-   accesswff0 =  0 , fftalg0 =112 , wfoptalg0 =  0
-
- outvars: echo of global parameters not present in the input file              
-  max_nthreads =    0
-
 -outvars: echo values of preprocessed input variables --------
            acell      2.0000000000E+01  2.0000000000E+01  2.0000000000E+01 Bohr
              amu      1.95080000E+02
-          fftalg         112
         icoulomb           1
             iscf           0
           istwfk        1
              ixc          11
           kptopt           0
            natom           1
            nband          10      10
            ngfft           2       2       2
             nkpt           1
           nspden           2
           nsppol           2
            nstep          20
             nsym           1
           ntypat           1
         nwfshist           6
              occ      1.000000  1.000000  1.000000  1.000000  1.000000  1.000000
                       1.000000  1.000000  1.000000  1.000000
                       1.000000  1.000000  1.000000  1.000000  1.000000  1.000000
                       1.000000  1.000000  0.000000  0.000000
           occopt           2
        optforces           0
        optstress           0
           prtden           0
           prteig           0
            prtwf           0
          spgroup           1
           tolwfr      1.00000000E-02
            typat      1
           usewvl           1
       wvl_crmult      5.00000000E+00
        wvl_hgrid      4.50000000E-01
       wvl_nprccg          15
           xangst      5.2917720859E+00  5.2917720859E+00  5.2917720859E+00
            xcart      1.0000000000E+01  1.0000000000E+01  1.0000000000E+01
             xred      5.0000000000E-01  5.0000000000E-01  5.0000000000E-01
            znucl       78.00000

================================================================================

 chkinp: Checking input parameters for consistency.

================================================================================
== DATASET  1 ==================================================================
-   nproc =    1   -> not optimal: autoparal keyword recommended in input file

 Exchange-correlation functional for the present dataset will be:
  GGA: Perdew-Burke-Ernzerhof functional - ixc=11
 Citation for XC functional:
  J.P.Perdew, K.Burke, M.Ernzerhof, PRL 77, 3865 (1996)

 Real(R)+Recip(G) space primitive vectors, cartesian coordinates (Bohr,Bohr^-1):
 R(1)= 20.0000000  0.0000000  0.0000000  G(1)=  0.0500000  0.0000000  0.0000000
 R(2)=  0.0000000 20.0000000  0.0000000  G(2)=  0.0000000  0.0500000  0.0000000
 R(3)=  0.0000000  0.0000000 20.0000000  G(3)=  0.0000000  0.0000000  0.0500000
 Unit cell volume ucvol=  8.0000000E+03 bohr^3
 Angles (23,13,12)=  9.00000000E+01  9.00000000E+01  9.00000000E+01 degrees

--- Pseudopotential description ------------------------------------------------
- pspini: atom type   1  psp file is /home/gonze/ABINIT/ABINITv7.9.3/trunk/7.9.3-private/tests/Psps_for_tests/78pt.18.khgh
- pspatm: opening atomic psp file    /home/gonze/ABINIT/ABINITv7.9.3/trunk/7.9.3-private/tests/Psps_for_tests/78pt.18.khgh
- Goedecker pseudopotential for Pt
- 78.00000  18.00000     70301                znucl, zion, pspdat
   10   11    2    2      2001   0.00000      pspcod,pspxc,lmax,lloc,mmax,r2well
 rloc=   0.5000000
 cc(1:2)=   8.8143232  -0.2925094
 for angular momentum l =  0 r(l) =   0.2980022
   h11, h12, h13 =  -5.9683850  24.2128997 -13.7896793
        h22, h23 =             -53.6876341  35.6047989
             h33 =                         -28.2604330
 for angular momentum l =  1 r(l) =   0.3601718
   h11, h12, h13 =  -6.6686590   7.1706592   0.7669037
        h22, h23 =              -7.2076607  -1.8148254
             h33 =                           1.2898060
   k11, k12, k13 =   0.3515669   2.3890644  -2.0606411
        k22, k23 =              -6.2574324   4.8763670
             k33 =                          -3.4656599
 for angular momentum l =  2 r(l) =   0.3405321
   h11, h12, h13 =  -8.5899045   9.4101220   0.0000000
        h22, h23 =             -10.6700754   0.0000000
             h33 =                           0.0000000
   k11, k12, k13 =   0.1803272   0.0292095   0.0000000
        k22, k23 =              -0.0331204   0.0000000
             k33 =                           0.0000000
-
- psp10in : COMMENT -
-  the pseudo-potential does not include geometric informations,
-  values have been computed.
  radii_cf(1)=   1.7605852; radii_cf(2)=   0.2980022; rad_cov=   0.5402577
-  Local part computed in reciprocal space.

 pspatm : COMMENT -
  the projectors are not normalized,
  so that the KB energies are not consistent with 
  definition in PRB44, 8503 (1991). 
  However, this does not influence the results obtained hereafter.
 pspatm: epsatm=   43.89951197
         --- l  ekb(1:nproj) -->
             0   -8.269678   -0.377669    0.399633
             1   -0.615824   -0.003164    0.078123
             2   -0.143796   -0.001224
 pspatm: atomic psp has been read  and splines computed

   7.90191215E+02                                ecore*ucvol(ha*bohr**3)
--------------------------------------------------------------------------------


 setup2: nwvl coarse and fine are   31144    1208

================================================================================

     iter   Etot(hartree)      deltaE(h)  grdnorm    vres2
 ETOT  1  -119.87424604844    -1.199E+02 1.389E-01 2.787E+03
 ETOT  2  -119.96289593258    -8.865E-02 5.907E-02 2.360E+02
 ETOT  3  -119.98965497274    -2.676E-02 1.209E-02 5.325E+00
 ETOT  4  -119.99042467197    -7.697E-04 6.189E-03 4.156E+00

 At SCF step    4   max grdnorm=  6.19E-03 < tolwfr=  1.00E-02 =>converged.
================================================================================

 ----iterations are completed or convergence reached----

 Mean square residual over all n,k,spin=   0.0000E+00; max=  0.0000E+00
   0.0000  0.0000  0.0000    1  0.00000E+00 kpt; spin; max resid(k); each band:
  0.00E+00 0.00E+00 0.00E+00 0.00E+00 0.00E+00 0.00E+00 0.00E+00 0.00E+00
  0.00E+00 0.00E+00
   0.0000  0.0000  0.0000    2  0.00000E+00 kpt; spin; max resid(k); each band:
  0.00E+00 0.00E+00 0.00E+00 0.00E+00 0.00E+00 0.00E+00 0.00E+00 0.00E+00
  0.00E+00 0.00E+00
 reduced coordinates (array xred) for    1 atoms
       0.500000000000      0.500000000000      0.500000000000
 rms dE/dt=  0.0000E+00; max dE/dt=  0.0000E+00; dE/dt below (all hartree)
    1       0.000000000000      0.000000000000      0.000000000000

 cartesian coordinates (angstrom) at end:
    1      4.64353000537725     4.64353000537725     4.64353000537725
 length scales= 17.550000000000 17.550000000000 17.550000000000 bohr
              =  9.287060010754  9.287060010754  9.287060010754 angstroms
 Fermi (or HOMO) energy (hartree) =   0.00000   Average Vxc (hartree)=  -0.02715
 Eigenvalues (hartree) for nkpt=   1  k points, SPIN UP:
 kpt#   1, nband= 10, wtk=  1.00000, kpt=  0.0000  0.0000  0.0000 (reduced coord)
  -3.85043  -2.18388  -2.18373  -2.18373  -0.33642  -0.33642  -0.30313  -0.30308
  -0.30308  -0.24830
 Eigenvalues (hartree) for nkpt=   1  k points, SPIN DOWN:
 kpt#   1, nband= 10, wtk=  1.00000, kpt=  0.0000  0.0000  0.0000 (reduced coord)
  -3.80871  -2.13337  -2.13330  -2.13330  -0.27675  -0.27668  -0.27668  -0.24367
  -0.24367  -0.22449
 Total charge density [el/Bohr^3]
,     Maximum=    1.5414E+00  at reduced coord.    0.5046    0.5138    0.4862
,Next maximum=    1.5413E+00  at reduced coord.    0.4679    0.5138    0.4862
,     Minimum=    2.0000E-20  at reduced coord.    0.0000    0.0000    0.0000
,Next minimum=    2.0000E-20  at reduced coord.    0.0092    0.0000    0.0000
,  Integrated=    6.5959E+00
 Spin up density      [el/Bohr^3]
,     Maximum=    7.7910E-01  at reduced coord.    0.4862    0.5046    0.5138
,Next maximum=    7.7910E-01  at reduced coord.    0.5046    0.4862    0.5138
,     Minimum=    1.0000E-20  at reduced coord.    0.0000    0.0000    0.0000
,Next minimum=    1.0000E-20  at reduced coord.    0.0092    0.0000    0.0000
,  Integrated=    3.6644E+00
 Spin down density    [el/Bohr^3]
,     Maximum=    7.6828E-01  at reduced coord.    0.5046    0.5046    0.5046
,Next maximum=    7.6828E-01  at reduced coord.    0.4679    0.4679    0.4679
,     Minimum=    1.0000E-20  at reduced coord.    0.0000    0.0000    0.0000
,Next minimum=    1.0000E-20  at reduced coord.    0.0092    0.0000    0.0000
,  Integrated=    2.9315E+00
 Magnetization (spin up - spin down) [el/Bohr^3]
,     Maximum=    2.2983E-01  at reduced coord.    0.5229    0.4862    0.4862
,Next maximum=    2.2983E-01  at reduced coord.    0.4495    0.4862    0.4862
,     Minimum=   -4.5502E-03  at reduced coord.    0.4587    0.4587    0.4587
,Next minimum=   -4.5443E-03  at reduced coord.    0.5138    0.5138    0.5138
,  Integrated=    7.3288E-01
 Relative magnetization (=zeta, between -1 and 1)
,     Maximum=    9.6180E-01  at reduced coord.    0.1927    0.4587    0.2661
,Next maximum=    9.6111E-01  at reduced coord.    0.1743    0.5505    0.6697
,     Minimum=   -4.4118E-01  at reduced coord.    0.3853    0.2569    0.7523
,Next minimum=   -3.9813E-01  at reduced coord.    0.3853    0.7523    0.2569

--------------------------------------------------------------------------------
 Components of total free energy (in Hartree) :

    Kinetic energy  =  3.81059889589604E+01
    Hartree energy  =  9.99525747604198E+01
    XC energy       = -1.14813545611136E+01
    Ion-ion energy  =  0.00000000000000E+00
    PspCore energy  =  0.00000000000000E+00
    Loc. psp. energy= -2.33765091829289E+02
    NL   psp  energy= -1.28027618782223E+01
    >>>>>>>>> Etotal= -1.19990644549245E+02

 Other information on the energy :
    Total energy(eV)= -3.26511148843833E+03 ; Band energy (Ha)=  -2.3425088350E+01
--------------------------------------------------------------------------------

== END DATASET(S) ==============================================================
================================================================================
  
 -outvars: echo values of variables after computation  --------
            acell      1.7550000000E+01  1.7550000000E+01  1.7550000000E+01 Bohr
              amu      1.95080000E+02
           etotal     -1.1999042467E+02
            fcart      9.9999999999E+99  9.9999999999E+99  9.9999999999E+99
-          fftalg         112
         icoulomb           1
             iscf           0
           istwfk        1
              ixc          11
           kptopt           0
            natom           1
            nband          10      10
            ngfft           2       2       2
             nkpt           1
           nspden           2
           nsppol           2
            nstep          20
             nsym           1
           ntypat           1
         nwfshist           6
              occ      1.000000  1.000000  1.000000  1.000000  1.000000  1.000000
                       1.000000  1.000000  1.000000  1.000000
                       1.000000  1.000000  1.000000  1.000000  1.000000  1.000000
                       1.000000  1.000000  0.000000  0.000000
           occopt           2
        optforces           0
        optstress           0
           prtden           0
           prteig           0
            prtwf           0
          spgroup           1
           strten      9.9999999999E+99  9.9999999999E+99  9.9999999999E+99
                       9.9999999999E+99  9.9999999999E+99  9.9999999999E+99
           tolwfr      1.00000000E-02
            typat      1
           usewvl           1
       wvl_crmult      5.00000000E+00
        wvl_hgrid      4.50000000E-01
       wvl_nprccg          15
           xangst      4.6435300054E+00  4.6435300054E+00  4.6435300054E+00
            xcart      8.7750000000E+00  8.7750000000E+00  8.7750000000E+00
             xred      5.0000000000E-01  5.0000000000E-01  5.0000000000E-01
            znucl       78.00000

================================================================================


- Timing analysis has been suppressed with timopt=0



================================================================================

 Suggested references for the acknowledgment of ABINIT usage.

 The users of ABINIT have little formal obligations with respect to the ABINIT group
 (those specified in the GNU General Public License, http://www.gnu.org/copyleft/gpl.txt).
 However, it is common practice in the scientific literature,
 to acknowledge the efforts of people that have made the research possible.
 In this spirit, please find below suggested citations of work written by ABINIT developers,
 corresponding to implementations inside of ABINIT that you have used in the present run.
 Note also that it will be of great value to readers of publications presenting these results,
 to read papers enabling them to understand the theoretical formalism and details
 of the ABINIT implementation.
 For information on why they are suggested, see also http://www.abinit.org/about/?text=acknowledgments.

 [1] Daubechies wavelets as a basis set for density functional pseudopotential calculations.
 L. Genovese, A. Neelov, S. Goedecker, T. Deutsch, S.A. Ghasemi, A. Willand, D. Caliste, O. Zilberberg, M. Rayson, A. Bergman et R. Schneider,
 J. Chem. Phys. 129, 014109 (2008).
 Comment : to be cited in case BigDFT project is used, i.e. usewvl=1.

 [2] ABINIT : First-principles approach of materials and nanosystem properties.
 X. Gonze, B. Amadon, P.-M. Anglade, J.-M. Beuken, F. Bottin, P. Boulanger, F. Bruneval,
 D. Caliste, R. Caracas, M. Cote, T. Deutsch, L. Genovese, Ph. Ghosez, M. Giantomassi
 S. Goedecker, D.R. Hamann, P. Hermet, F. Jollet, G. Jomard, S. Leroux, M. Mancini, S. Mazevet,
 M.J.T. Oliveira, G. Onida, Y. Pouillon, T. Rangel, G.-M. Rignanese, D. Sangalli, R. Shaltaf,
 M. Torrent, M.J. Verstraete, G. Zerah, J.W. Zwanziger
 Computer Phys. Comm. 180, 2582-2615 (2009).
 Comment : the third generic paper describing the ABINIT project.
 Note that a version of this paper, that is not formatted for Computer Phys. Comm. 
 is available at http://www.abinit.org/about/ABINIT_CPC_v10.pdf .
 The licence allows the authors to put it on the Web.

 [3] A brief introduction to the ABINIT software package.
 X. Gonze, G.-M. Rignanese, M. Verstraete, J.-M. Beuken, Y. Pouillon, R. Caracas, F. Jollet,
 M. Torrent, G. Zerah, M. Mikami, Ph. Ghosez, M. Veithen, J.-Y. Raty, V. Olevano, F. Bruneval,
 L. Reining, R. Godby, G. Onida, D.R. Hamann, and D.C. Allan.
 Z. Kristallogr. 220, 558-562 (2005).
 Comment : the second generic paper describing the ABINIT project. Note that this paper
 should be cited especially if you are using the GW part of ABINIT, as several authors
 of this part are not in the list of authors of the first or third paper.
 The .pdf of the latter paper is available at http://www.abinit.org/about/zfk_0505-06_558-562.pdf.
 Note that it should not redistributed (Copyright by Oldenburg Wissenshaftverlag,
 the licence allows the authors to put it on the Web).


 And optionally :

 [4] First-principles computation of material properties : the ABINIT software project. 
 X. Gonze, J.-M. Beuken, R. Caracas, F. Detraux, M. Fuchs, G.-M. Rignanese, L. Sindic,
 M. Verstraete, G. Zerah, F. Jollet, M. Torrent, A. Roy, M. Mikami, Ph. Ghosez, J.-Y. Raty, D.C. Allan.
 Computational Materials Science 25, 478-492 (2002). http://dx.doi.org/10.1016/S0927-0256(02)00325-7
 Comment : the original paper describing the ABINIT project.

 [5] Fast radix 2, 3, 4 and 5 kernels for Fast Fourier Transformations
 on computers with overlapping multiply-add instructions.
 S. Goedecker, SIAM J. on Scientific Computing 18, 1605 (1997).
-
- Proc.   0 individual time (sec): cpu=         19.4  wall=         19.4

================================================================================

 Calculation completed.
.Delivered    3 WARNINGs and   6 COMMENTs to log file.
+Overall time at end (sec) : cpu=         19.4  wall=         19.4
